 Q-Chem 5.0, Q-Chem, Inc., Pleasanton, CA (2017)
 Q-Chem 5.0.1 for Intel X86 EM64T Linux

User input:
--------------------------------------------------------------
$molecule
0  1
O 3.2227006803 -1.1156221911 1.3155616934
C 4.4440399813 -1.0078214262 1.0622235005
C 5.0932810295 -0.4286949064 -0.2395286773
C 4.0168743789 0.0440162414 -1.3018603159
C 2.5321957489 -0.3197654485 -0.9221246353
O 1.9187677452 0.808409904 -0.2781420771
C 0.5224154552 0.4885931606 0.0896352763
C -0.4637704501 0.6021641743 -1.1437101106
O -1.5840240616 -0.3674426226 -1.0568687265
C -2.4783685157 -0.0007097349 -0.0055367186
C -3.645690926 -1.0526623992 0.088957197
C -5.0123225309 -0.3777298015 0.5246272587
C -4.8671589231 1.0699698403 1.1176205621
O -5.1828311989 2.1508684694 0.5761299676
O 5.4834587889 -1.4095866552 1.9549083061
O -4.4625886974 0.9354631272 2.4881423932
O -2.3517514841 1.0393627684 0.680139617
C -4.2448194034 2.2736559486 3.079001237
C -4.0354261565 -1.5640332303 -1.3601661915
C -5.1095445126 -2.7180278308 -1.2469731748
C -6.4222828692 -1.897669507 -0.9619801337
C -5.8337471294 -0.4398897003 -0.8321896948
O -4.7976021339 -0.4085996005 -1.8922181713
H -3.3473268632 -1.8696906003 0.771361019
H -5.4962603433 -0.9947868134 1.3027658846
H -3.1629527219 -1.7851636756 -2.0038448678
H -5.1768600278 -3.2776308254 -2.1932296856
H -4.8682308787 -3.4242294137 -0.4362921706
H -7.1228151469 -1.9540489324 -1.8105370336
H -6.9435223109 -2.2266108799 -0.0489464362
H -6.5530994875 0.3907699938 -0.9688584366
O 1.9264047476 -1.3688618 -1.2320589708
C 4.8971302067 -1.9554702941 3.2018493304
C 5.8380698968 0.9437567089 0.062891347
C 6.7231224776 1.3201180734 -1.1903386642
C 5.6250873975 1.8251858932 -2.198116862
C 4.310347442 1.6040664312 -1.3512745995
O 4.7356404767 1.9303605855 0.0302101758
H 5.7858753672 -1.1818385294 -0.6569018732
H 4.2207377537 -0.4298988066 -2.2786247461
H 4.2587056397 -2.8391942367 2.9978470837
H 6.3599667273 0.9683469613 1.0392058079
H 7.436771606 2.1190849994 -0.9338344508
H 7.2849356848 0.4533513574 -1.573368449
H 5.7550643066 2.893789244 -2.4324709957
H 5.6141816656 1.2546602125 -3.1403333621
H 3.442626831 2.2247061151 -1.6451774478
H 4.2882174445 -1.1950652431 3.7321075434
H 5.7527998745 -2.2533993669 3.8351487253
H -4.0292694101 2.1065989846 4.1504149942
H -5.1405938148 2.9192505334 2.9734993632
H -3.38217272 2.7828775821 2.6021448371
H -0.85135314 1.639154157 -1.231998273
H 0.0717395187 0.3291646555 -2.0747446721
H 0.2354909835 1.2140110499 0.8757015829
H 0.4595609198 -0.5441815626 0.4967610629
$end

$rem
JOBTYPE                   OPT
METHOD                    B3LYP
DFT_D                     d3_op
BASIS                     STO-3G
GEOM_OPT_MAX_CYCLES       100
GEOM_OPT_TOL_GRADIENT     300
GEOM_OPT_TOL_DISPLACEMENT 1200
GEOM_OPT_TOL_ENERGY       100
SYMMETRY                  False
THRESH                    12
SCF_CONVERGENCE           8
MAX_SUB_FILE_NUM          128
MEM_STATIC                400
MEM_TOTAL                 4000
$end
--------------------------------------------------------------

   16   -1510.2831866378      4.77E-09 Convergence criterion met
 Total energy in the final basis set = -1510.28318664
   13   -1510.2842010315      7.77E-09 Convergence criterion met
 Total energy in the final basis set = -1510.28420103
   13   -1510.2849519208      4.80E-09 Convergence criterion met
 Total energy in the final basis set = -1510.28495192
   13   -1510.2856565421      3.26E-09 Convergence criterion met
 Total energy in the final basis set = -1510.28565654
   13   -1510.2862450467      2.97E-09 Convergence criterion met
 Total energy in the final basis set = -1510.28624505
   13   -1510.2867758239      4.21E-09 Convergence criterion met
 Total energy in the final basis set = -1510.28677582
   13   -1510.2872972191      5.44E-09 Convergence criterion met
 Total energy in the final basis set = -1510.28729722
   13   -1510.2876277986      6.28E-09 Convergence criterion met
   13   -1510.2879914043      7.61E-09 Convergence criterion met
 Total energy in the final basis set = -1510.28799140
   13   -1510.2882137125      4.87E-09 Convergence criterion met
 Total energy in the final basis set = -1510.28821371
   11   -1510.2882072819      6.34E-09 Convergence criterion met
 Total energy in the final basis set = -1510.28820728
   10   -1510.2882170536      5.32E-09 Convergence criterion met
 Total energy in the final basis set = -1510.28821705
   10   -1510.2882149080      9.69E-09 Convergence criterion met
 Total energy in the final basis set = -1510.28821491
   10   -1510.2882168538      4.19E-09 Convergence criterion met
 Total energy in the final basis set = -1510.28821685

             Standard Nuclear Orientation (Angstroms)
    I     Atom           X                Y                Z
 ----------------------------------------------------------------
    1      O      -3.2497095458    -0.7233665204     1.9592239286
    2      C      -4.3393886118    -0.9254177933     1.3772741215
    3      C      -5.0667671162     0.0252187013     0.3667954623
    4      C      -4.1641717213     1.2383889490    -0.1040553501
    5      C      -2.7280702988     1.2712335785     0.5383866599
    6      O      -1.8796908669     0.3536351334    -0.1703802392
    7      C      -0.5341872082     0.3210238804     0.4460102312
    8      C       0.3302481399     1.5691624840     0.0207307627
    9      O       1.6503773365     1.5619801529     0.6989436547
   10      C       2.5440297919     0.6490684056     0.0588186148
   11      C       3.9116402548     0.6902098258     0.8154325772
   12      C       4.8911108842    -0.4768623448     0.3892927542
   13      C       4.2812346913    -1.4860779790    -0.6539464062
   14      O       4.5998565691    -1.6208334836    -1.8537235420
   15      O      -5.1357377528    -2.0973464224     1.5558801583
   16      O       3.3678020151    -2.3445543253     0.0483122468
   17      O       2.2576477645    -0.0292859520    -0.9537607958
   18      C       2.7054619328    -3.2565221473    -0.9099033416
   19      C       4.7569553928     1.9653546117     0.3744727847
   20      C       5.9500753684     2.1493802143     1.3937394333
   21      C       6.9187592650     0.9936386283     0.9401057323
   22      C       6.0897556126     0.3487723121    -0.2384564394
   23      O       5.4197016603     1.5121102525    -0.8673276403
   24      H       3.7140802587     0.6951025877     1.9020055314
   25      H       5.2113358776    -1.0523569315     1.2762158698
   26      H       4.1490593188     2.8723686280     0.1885417967
   27      H       6.4140796495     3.1405167250     1.2677130857
   28      H       5.6205752305     2.0438965017     2.4398103031
   29      H       7.8760985248     1.3917325564     0.5678931776
   30      H       7.1237905103     0.2708636581     1.7456950727
   31      H       6.6759886568    -0.2094080062    -0.9939841651
   32      O      -2.3382339459     2.0423629500     1.4422028243
   33      C      -4.4715065562    -3.0257458950     2.5007585825
   34      C      -5.3702155941    -0.6883678885    -1.0207292031
   35      C      -6.4226504075     0.1865638445    -1.8081692680
   36      C      -5.5232379678     1.3878431761    -2.2826408583
   37      C      -4.1238637741     0.9814709901    -1.6718350281
   38      O      -4.1159415110    -0.4962862693    -1.7816882994
   39      H      -6.0006846089     0.3779382253     0.8420992445
   40      H      -4.6486628237     2.2000432840     0.1400620187
   41      H      -4.3217322895    -2.5577768801     3.4950629541
   42      H      -5.6161545114    -1.7640151182    -0.9285110233
   43      H      -6.8275949453    -0.3777026143    -2.6631599877
   44      H      -7.2599290778     0.5071888453    -1.1678532241
   45      H      -5.4620673507     1.4365287738    -3.3814725740
   46      H      -5.8768206818     2.3608916832    -1.9053473160
   47      H      -3.2423374063     1.4113455573    -2.1849063790
   48      H      -3.4864007962    -3.3604709471     2.1161576210
   49      H      -5.1465034002    -3.8958376843     2.5975844566
   50      H       2.0748765212    -3.9346341801    -0.3057073043
   51      H       3.4418068911    -3.8494289255    -1.4898464330
   52      H       2.0677678617    -2.6921971204    -1.6214045290
   53      H       0.4506923902     1.5825128333    -1.0832569617
   54      H      -0.1735382426     2.4963251076     0.3589847214
   55      H      -0.0542636579    -0.6061743495     0.0737993545
   56      H      -0.6086144666     0.2855430903     1.5538006511
 ----------------------------------------------------------------

    9   -1510.2882163845      4.88E-09 Convergence criterion met
 Total energy in the final basis set = -1510.28821638
 Final energy is   -1510.28821638449
 **  OPTIMIZATION CONVERGED  **

                    Orbital Energies (a.u.)
 --------------------------------------------------------------

 Alpha MOs
 -- Occupied --
-18.944 -18.938 -18.925 -18.916 -18.889 -18.887 -18.884 -18.881
-18.863 -18.859 -10.108 -10.103 -10.094 -10.087 -10.071 -10.067
-10.063 -10.061 -10.060 -10.059 -10.054 -10.051 -10.042 -10.037
-10.035 -10.030 -10.022 -10.020 -10.018 -10.017  -1.021  -1.016
 -1.002  -0.994  -0.971  -0.967  -0.945  -0.940  -0.928  -0.921
 -0.764  -0.760  -0.726  -0.721  -0.713  -0.705  -0.690  -0.668
 -0.651  -0.615  -0.596  -0.580  -0.547  -0.542  -0.538  -0.534
 -0.514  -0.507  -0.485  -0.474  -0.464  -0.455  -0.450  -0.444
 -0.435  -0.432  -0.427  -0.417  -0.410  -0.405  -0.400  -0.393
 -0.388  -0.381  -0.380  -0.363  -0.360  -0.354  -0.350  -0.345
 -0.338  -0.337  -0.333  -0.330  -0.328  -0.327  -0.322  -0.315
 -0.309  -0.306  -0.301  -0.301  -0.298  -0.284  -0.277  -0.274
 -0.271  -0.262  -0.256  -0.243  -0.240  -0.235  -0.231  -0.189
 -0.185  -0.163  -0.162  -0.160  -0.156  -0.146  -0.143  -0.142
 -0.138

          Ground-State Mulliken Net Atomic Charges

     Atom                 Charge (a.u.)
  ----------------------------------------
      1 O                    -0.207803
      2 C                     0.215154
      3 C                    -0.078139
      4 C                    -0.081714
      5 C                     0.213661
      6 O                    -0.170237
      7 C                    -0.050828
      8 C                    -0.053547
      9 O                    -0.169974
     10 C                     0.213774
     11 C                    -0.078315
     12 C                    -0.081201
     13 C                     0.215888
     14 O                    -0.215127
     15 O                    -0.168888
     16 O                    -0.177987
     17 O                    -0.208691
     18 C                    -0.129158
     19 C                     0.025433
     20 C                    -0.143606
     21 C                    -0.144108
     22 C                     0.024870
     23 O                    -0.188748
     24 H                     0.087344
     25 H                     0.083278
     26 H                     0.084312
     27 H                     0.077981
     28 H                     0.073756
     29 H                     0.077757
     30 H                     0.072984
     31 H                     0.089342
     32 O                    -0.220671
     33 C                    -0.127942
     34 C                     0.024850
     35 C                    -0.143806
     36 C                    -0.144274
     37 C                     0.026642
     38 O                    -0.186695
     39 H                     0.086578
     40 H                     0.083460
     41 H                     0.091027
     42 H                     0.088193
     43 H                     0.078411
     44 H                     0.073438
     45 H                     0.078327
     46 H                     0.073566
     47 H                     0.085658
     48 H                     0.091635
     49 H                     0.092426
     50 H                     0.085053
     51 H                     0.087195
     52 H                     0.091913
     53 H                     0.091870
     54 H                     0.096752
     55 H                     0.093095
     56 H                     0.095834
  ----------------------------------------
  Sum of atomic charges =    -0.000000

                    Cartesian Multipole Moments
 -----------------------------------------------------------------
    Charge (ESU x 10^10)
                -0.0000
    Dipole Moment (Debye)
         X      -2.6057      Y      -0.4950      Z       2.1971
       Tot       3.4441
    Quadrupole Moments (Debye-Ang)
        XX    -139.5950     XY       1.8981     YY    -152.7505
        XZ      13.0887     YZ      -7.3576     ZZ    -164.5996

 Total job time:  56.00s(wall), 2661.26s(cpu)
        *  Thank you very much for using Q-Chem.  Have a nice day.  *
