 Q-Chem 5.0, Q-Chem, Inc., Pleasanton, CA (2017)
 Q-Chem 5.0.1 for Intel X86 EM64T Linux

User input:
--------------------------------------------------------------
$molecule
0  1
O -3.94934 -3.66094 2.70899
C -3.26408 -4.56952 2.26188
C -3.36658 -6.02376 2.66595
C -4.4156 -6.385 3.73034
C -5.36556 -5.28237 4.14249
O -6.52828 -5.38233 3.43291
C -7.48109 -4.36766 3.76735
C -8.20225 -4.72984 5.06152
O -8.54264 -3.53541 5.78287
C -9.51622 -2.77433 5.22426
C -9.81158 -1.52269 6.01597
C -11.27914 -1.07119 5.98943
C -12.27763 -2.09828 5.49465
O -13.0772 -2.70363 6.1938
O -2.33269 -4.28079 1.31528
O -12.33047 -2.28772 4.15005
O -9.84721 -2.88105 4.0517
C -13.1926 -3.15949 3.51802
C -9.5677 -1.61689 7.5411
C -9.32999 -0.21856 8.10955
C -10.72016 0.36959 8.00414
C -11.49678 -0.85283 7.50291
O -10.82374 -1.94698 8.07588
H -9.14767 -0.73736 5.58919
H -11.45554 -0.1338 5.41709
H -8.72444 -2.2772 7.83475
H -9.07924 -0.34231 9.18779
H -8.52695 0.36775 7.61332
H -11.05731 0.65723 9.02486
H -10.82108 1.23307 7.31151
H -12.57302 -0.75056 7.76546
O -5.09137 -4.4063 4.9561
C -2.0983 -3.01687 0.81581
C -3.79327 -6.9297 1.49667
C -3.30753 -8.35596 1.74494
C -4.2351 -8.77603 2.86413
C -5.1285 -7.53363 2.96459
O -5.18439 -7.05113 1.6446
H -2.34549 -6.30533 3.00898
H -3.98427 -6.79795 4.66895
H -1.78086 -2.33496 1.63351
H -3.43663 -6.57126 0.5063
H -3.55362 -8.95244 0.83722
H -2.22253 -8.45243 1.96505
H -4.82892 -9.65067 2.51639
H -3.73962 -9.01422 3.83002
H -6.10055 -7.81273 3.42825
H -3.01613 -2.62077 0.33095
H -1.28864 -3.06904 0.05936
H -13.01837 -3.11334 2.42351
H -14.24617 -2.87428 3.72523
H -13.00819 -4.19838 3.86604
H -9.05727 -5.42413 4.9061
H -7.48563 -5.25316 5.72764
H -8.21488 -4.26634 2.94218
H -6.96865 -3.37967 3.84433
$end

$opt
CONSTRAINT
tors           1           2           3           4      -0.254
tors           3           4           5           6     +95.925
tors           4           5           6           7    -179.922
tors           5           6           7           8     -79.552
tors           6           7           8           9    +147.835
tors           7           8           9          10     +70.033
tors           8           9          10          11    -179.010
tors           9          10          11          12    -146.192
tors          11          12          13          14    +107.195
ENDCONSTRAINT
$end

$rem
JOBTYPE                   OPT
METHOD                    B3LYP
DFT_D                     d3_op
BASIS                     STO-3G
GEOM_OPT_MAX_CYCLES       100
GEOM_OPT_TOL_GRADIENT     300
GEOM_OPT_TOL_DISPLACEMENT 1200
GEOM_OPT_TOL_ENERGY       100
SYMMETRY                  False
THRESH                    12
SCF_CONVERGENCE           8
MAX_SUB_FILE_NUM          128
MEM_STATIC                400
MEM_TOTAL                 4000
$end
--------------------------------------------------------------

   15   -1510.1454171634      6.51E-09 Convergence criterion met
 Total energy in the final basis set = -1510.14541716
   14   -1510.2155591000      6.01E-09 Convergence criterion met
 Total energy in the final basis set = -1510.21555910
   14   -1510.2529105059      5.43E-09 Convergence criterion met
 Total energy in the final basis set = -1510.25291051
   14   -1510.2690880816      5.76E-09 Convergence criterion met
 Total energy in the final basis set = -1510.26908808
   13   -1510.2746795927      9.52E-09 Convergence criterion met
 Total energy in the final basis set = -1510.27467959
   13   -1510.2770972041      4.53E-09 Convergence criterion met
 Total energy in the final basis set = -1510.27709720
   13   -1510.2785040969      3.26E-09 Convergence criterion met
 Total energy in the final basis set = -1510.27850410
   13   -1510.2794428358      6.25E-09 Convergence criterion met
   11   -1510.2831054697      7.59E-09 Convergence criterion met
 Total energy in the final basis set = -1510.28310547
   11   -1510.2831388608      6.94E-09 Convergence criterion met
 Total energy in the final basis set = -1510.28313886
   11   -1510.2831536537      3.60E-09 Convergence criterion met
 Total energy in the final basis set = -1510.28315365
   10   -1510.2831648289      9.94E-09 Convergence criterion met
 Total energy in the final basis set = -1510.28316483
    9   -1510.2831684620      6.32E-09 Convergence criterion met
 Total energy in the final basis set = -1510.28316846
    9   -1510.2831697625      5.67E-09 Convergence criterion met
 Total energy in the final basis set = -1510.28316976

             Standard Nuclear Orientation (Angstroms)
    I     Atom           X                Y                Z
 ----------------------------------------------------------------
    1      O       3.2227006803    -1.1156221911     1.3155616934
    2      C       4.4440399813    -1.0078214262     1.0622235005
    3      C       5.0932810295    -0.4286949064    -0.2395286773
    4      C       4.0168743789     0.0440162414    -1.3018603159
    5      C       2.5321957489    -0.3197654485    -0.9221246353
    6      O       1.9187677452     0.8084099040    -0.2781420771
    7      C       0.5224154552     0.4885931606     0.0896352763
    8      C      -0.4637704501     0.6021641743    -1.1437101106
    9      O      -1.5840240616    -0.3674426226    -1.0568687265
   10      C      -2.4783685157    -0.0007097349    -0.0055367186
   11      C      -3.6456909260    -1.0526623992     0.0889571970
   12      C      -5.0123225309    -0.3777298015     0.5246272587
   13      C      -4.8671589231     1.0699698403     1.1176205621
   14      O      -5.1828311989     2.1508684694     0.5761299676
   15      O       5.4834587889    -1.4095866552     1.9549083061
   16      O      -4.4625886974     0.9354631272     2.4881423932
   17      O      -2.3517514841     1.0393627684     0.6801396170
   18      C      -4.2448194034     2.2736559486     3.0790012370
   19      C      -4.0354261565    -1.5640332303    -1.3601661915
   20      C      -5.1095445126    -2.7180278308    -1.2469731748
   21      C      -6.4222828692    -1.8976695070    -0.9619801337
   22      C      -5.8337471294    -0.4398897003    -0.8321896948
   23      O      -4.7976021339    -0.4085996005    -1.8922181713
   24      H      -3.3473268632    -1.8696906003     0.7713610190
   25      H      -5.4962603433    -0.9947868134     1.3027658846
   26      H      -3.1629527219    -1.7851636756    -2.0038448678
   27      H      -5.1768600278    -3.2776308254    -2.1932296856
   28      H      -4.8682308787    -3.4242294137    -0.4362921706
   29      H      -7.1228151469    -1.9540489324    -1.8105370336
   30      H      -6.9435223109    -2.2266108799    -0.0489464362
   31      H      -6.5530994875     0.3907699938    -0.9688584366
   32      O       1.9264047476    -1.3688618000    -1.2320589708
   33      C       4.8971302067    -1.9554702941     3.2018493304
   34      C       5.8380698968     0.9437567089     0.0628913470
   35      C       6.7231224776     1.3201180734    -1.1903386642
   36      C       5.6250873975     1.8251858932    -2.1981168620
   37      C       4.3103474420     1.6040664312    -1.3512745995
   38      O       4.7356404767     1.9303605855     0.0302101758
   39      H       5.7858753672    -1.1818385294    -0.6569018732
   40      H       4.2207377537    -0.4298988066    -2.2786247461
   41      H       4.2587056397    -2.8391942367     2.9978470837
   42      H       6.3599667273     0.9683469613     1.0392058079
   43      H       7.4367716060     2.1190849994    -0.9338344508
   44      H       7.2849356848     0.4533513574    -1.5733684490
   45      H       5.7550643066     2.8937892440    -2.4324709957
   46      H       5.6141816656     1.2546602125    -3.1403333621
   47      H       3.4426268310     2.2247061151    -1.6451774478
   48      H       4.2882174445    -1.1950652431     3.7321075434
   49      H       5.7527998745    -2.2533993669     3.8351487253
   50      H      -4.0292694101     2.1065989846     4.1504149942
   51      H      -5.1405938148     2.9192505334     2.9734993632
   52      H      -3.3821727200     2.7828775821     2.6021448371
   53      H      -0.8513531400     1.6391541570    -1.2319982730
   54      H       0.0717395187     0.3291646555    -2.0747446721
   55      H       0.2354909835     1.2140110499     0.8757015829
   56      H       0.4595609198    -0.5441815626     0.4967610629
 ----------------------------------------------------------------

    9   -1510.2831702727      5.77E-09 Convergence criterion met
 Total energy in the final basis set = -1510.28317027
 Final energy is   -1510.28317027266
 **  OPTIMIZATION CONVERGED  **

                    Orbital Energies (a.u.)
 --------------------------------------------------------------

 Alpha MOs
 -- Occupied --
-18.944 -18.938 -18.924 -18.917 -18.888 -18.887 -18.880 -18.878
-18.860 -18.859 -10.107 -10.101 -10.093 -10.088 -10.070 -10.069
-10.063 -10.062 -10.059 -10.053 -10.053 -10.051 -10.042 -10.036
-10.035 -10.029 -10.022 -10.020 -10.016 -10.015  -1.021  -1.016
 -1.001  -0.995  -0.971  -0.964  -0.944  -0.938  -0.927  -0.922
 -0.764  -0.758  -0.725  -0.721  -0.712  -0.703  -0.688  -0.668
 -0.651  -0.615  -0.595  -0.580  -0.546  -0.540  -0.538  -0.532
 -0.513  -0.505  -0.483  -0.476  -0.464  -0.453  -0.449  -0.446
 -0.435  -0.430  -0.426  -0.417  -0.410  -0.402  -0.399  -0.396
 -0.387  -0.379  -0.378  -0.364  -0.361  -0.356  -0.347  -0.345
 -0.338  -0.336  -0.332  -0.330  -0.327  -0.325  -0.319  -0.314
 -0.308  -0.306  -0.302  -0.301  -0.295  -0.283  -0.277  -0.272
 -0.271  -0.262  -0.256  -0.242  -0.240  -0.234  -0.229  -0.188
 -0.184  -0.164  -0.161  -0.160  -0.154  -0.147  -0.141  -0.140
 -0.138

          Ground-State Mulliken Net Atomic Charges

     Atom                 Charge (a.u.)
  ----------------------------------------
      1 O                    -0.206049
      2 C                     0.214934
      3 C                    -0.077884
      4 C                    -0.081963
      5 C                     0.213565
      6 O                    -0.171434
      7 C                    -0.051304
      8 C                    -0.049412
      9 O                    -0.165703
     10 C                     0.213399
     11 C                    -0.076142
     12 C                    -0.081928
     13 C                     0.213366
     14 O                    -0.218094
     15 O                    -0.168735
     16 O                    -0.173098
     17 O                    -0.212925
     18 C                    -0.127989
     19 C                     0.022707
     20 C                    -0.145248
     21 C                    -0.142794
     22 C                     0.023172
     23 O                    -0.191666
     24 H                     0.086663
     25 H                     0.083293
     26 H                     0.092587
     27 H                     0.077629
     28 H                     0.072701
     29 H                     0.077279
     30 H                     0.072648
     31 H                     0.088222
     32 O                    -0.221850
     33 C                    -0.128076
     34 C                     0.024996
     35 C                    -0.144036
     36 C                    -0.144031
     37 C                     0.025809
     38 O                    -0.188298
     39 H                     0.087256
     40 H                     0.082897
     41 H                     0.091358
     42 H                     0.086064
     43 H                     0.078420
     44 H                     0.073755
     45 H                     0.078073
     46 H                     0.073435
     47 H                     0.088648
     48 H                     0.091702
     49 H                     0.092333
     50 H                     0.085903
     51 H                     0.086863
     52 H                     0.091576
     53 H                     0.091584
     54 H                     0.093380
     55 H                     0.096418
     56 H                     0.096025
  ----------------------------------------
  Sum of atomic charges =    -0.000000

                    Cartesian Multipole Moments
 -----------------------------------------------------------------
    Charge (ESU x 10^10)
                 0.0000
    Dipole Moment (Debye)
         X       2.6490      Y      -1.9524      Z       0.9227
       Tot       3.4176
    Quadrupole Moments (Debye-Ang)
        XX    -141.9038     XY       7.1021     YY    -160.8350
        XZ      -6.5403     YZ      -3.4894     ZZ    -152.5012

 Total job time:  63.24s(wall), 3007.73s(cpu)
        *  Thank you very much for using Q-Chem.  Have a nice day.  *
