 Q-Chem 5.0, Q-Chem, Inc., Pleasanton, CA (2017)
 Q-Chem 5.0.1 for Intel X86 EM64T Linux

User input:
--------------------------------------------------------------
$molecule
0  1
O 3.1430560586 -1.2282730966 1.247785932
C 4.364737307 -1.0047901888 1.0899858644
C 5.0685744604 -0.4468583418 -0.1932723454
C 4.043050277 -0.0254329467 -1.3251912029
C 2.5405801213 -0.3636260438 -0.9971252524
O 1.9505686904 0.7534642648 -0.3133456331
C 0.5415836679 0.4656897711 0.0320531866
C -0.428629771 0.5267402948 -1.2181680114
O -1.5560045492 -0.430389481 -1.0929525172
C -2.4635805969 -0.0010744728 -0.0776838401
C -3.6344873838 -1.0428336553 0.0536474583
C -4.9756504971 -0.3637078114 0.5544878729
C -4.7986538546 1.0850167721 1.138326401
O -5.138115829 2.1656495085 0.6110903374
O 5.3552671484 -1.2443516939 2.0904650185
O -4.3335292704 0.9504631804 2.4903688065
O -2.341969439 1.072829746 0.5549464811
C -4.0874786706 2.2889077884 3.0691497469
C -4.0862283369 -1.5344468978 -1.3851742483
C -5.1530518292 -2.6913429235 -1.2401484339
C -6.4498961131 -1.8772965735 -0.8764065875
C -5.8588703752 -0.4187873902 -0.7630594198
O -4.872839443 -0.3747347236 -1.869001161
H -3.3140714707 -1.8719631575 0.710947545
H -5.425589013 -0.9797767039 1.3534977906
H -3.2419278269 -1.7467069482 -2.0684048328
H -5.2667745289 -3.2327164956 -2.1926533304
H -4.8723264056 -3.4131883014 -0.4563070338
H -7.1965459676 -1.9275170096 -1.685195477
H -6.9190234587 -2.2162059587 0.0609320178
H -6.586292251 0.4104623106 -0.8599508573
O 1.9135443834 -1.3805345833 -1.3657024276
C 4.7164588256 -1.7745786432 3.318248817
C 5.7834312034 0.9431140638 0.0994808528
C 6.7416428462 1.2762379083 -1.1117838955
C 5.7022253281 1.7181772829 -2.2077318836
C 4.3398752342 1.5313557311 -1.4293271263
O 4.6817221047 1.920290587 -0.0413795364
H 5.790971479 -1.2021941032 -0.5531964598
H 4.2881594911 -0.5434433467 -2.2693998584
H 4.1870535315 -2.7291893671 3.1216184054
H 6.2433831349 1.0089084368 1.1045475346
H 7.4270464895 2.0973641389 -0.8481605458
H 7.3383324831 0.4022110459 -1.4178996806
H 5.8405755964 2.7733992428 -2.4922148265
H 5.7494965209 1.0966228207 -3.1158840648
H 3.4917909194 2.1364990518 -1.8025430702
H 3.9923155033 -1.0507857628 3.7446054809
H 5.5376051222 -1.9464737378 4.0381004356
H -3.8271243213 2.1233384317 4.1308066836
H -4.9850770805 2.9368428507 3.0005172752
H -3.2447091045 2.7954542333 2.5551818472
H -0.8077228749 1.5606605065 -1.3614219976
H 0.1140965558 0.2023705986 -2.1277402395
H 0.2493911907 1.2297202682 0.7787263337
H 0.4585048045 -0.5450946258 0.4889352075
$end

$rem
JOBTYPE                   OPT
METHOD                    B3LYP
DFT_D                     d3_op
BASIS                     STO-3G
GEOM_OPT_MAX_CYCLES       100
GEOM_OPT_TOL_GRADIENT     300
GEOM_OPT_TOL_DISPLACEMENT 1200
GEOM_OPT_TOL_ENERGY       100
SYMMETRY                  False
THRESH                    12
SCF_CONVERGENCE           8
MAX_SUB_FILE_NUM          128
MEM_STATIC                400
MEM_TOTAL                 4000
$end
--------------------------------------------------------------

   16   -1510.2837578440      4.79E-09 Convergence criterion met
 Total energy in the final basis set = -1510.28375784
   13   -1510.2846766776      9.60E-09 Convergence criterion met
 Total energy in the final basis set = -1510.28467668
   13   -1510.2853778223      5.11E-09 Convergence criterion met
 Total energy in the final basis set = -1510.28537782
   13   -1510.2861131685      2.94E-09 Convergence criterion met
 Total energy in the final basis set = -1510.28611317
   13   -1510.2866822549      3.03E-09 Convergence criterion met
 Total energy in the final basis set = -1510.28668225
   13   -1510.2872825328      3.67E-09 Convergence criterion met
 Total energy in the final basis set = -1510.28728253
   13   -1510.2876590212      4.49E-09 Convergence criterion met
 Total energy in the final basis set = -1510.28765902
   13   -1510.2878965433      3.19E-09 Convergence criterion met
   13   -1510.2881844797      3.83E-09 Convergence criterion met
 Total energy in the final basis set = -1510.28818448
   12   -1510.2882141506      5.27E-09 Convergence criterion met
 Total energy in the final basis set = -1510.28821415
   12   -1510.2882118493      2.84E-09 Convergence criterion met
 Total energy in the final basis set = -1510.28821185
   11   -1510.2882198425      8.05E-09 Convergence criterion met
 Total energy in the final basis set = -1510.28821984
   10   -1510.2882114761      4.11E-09 Convergence criterion met
 Total energy in the final basis set = -1510.28821148
    9   -1510.2882138531      4.94E-09 Convergence criterion met
 Total energy in the final basis set = -1510.28821385

             Standard Nuclear Orientation (Angstroms)
    I     Atom           X                Y                Z
 ----------------------------------------------------------------
    1      O      -3.3517492456    -0.7412176497     2.0616767244
    2      C      -4.4211295008    -0.9337405512     1.4399974987
    3      C      -5.0488959436    -0.0332500758     0.3230793063
    4      C      -4.1038378905     1.1562989398    -0.1247412442
    5      C      -2.7347551895     1.2217759053     0.6496641821
    6      O      -1.8092048213     0.3176793969     0.0277742593
    7      C      -0.5353857157     0.2811099166     0.7819520102
    8      C       0.3214411746     1.5869299503     0.5612313890
    9      O       1.6774994373     1.4419583935     1.1470556654
   10      C       2.5291308621     0.7221976110     0.2530009081
   11      C       3.9524049514     0.6067415309     0.8896636113
   12      C       4.8595736170    -0.4561397912     0.1466845299
   13      C       4.1155773020    -1.2770155209    -0.9716091191
   14      O       4.3366335914    -1.2544319425    -2.2003148803
   15      O      -5.2811392424    -2.0530523794     1.6572266460
   16      O       3.2078479785    -2.1833240543    -0.3235813005
   17      O       2.1736721995     0.3017817060    -0.8717990262
   18      C       2.4288529497    -2.9209990341    -1.3421612042
   19      C       4.7780143420     1.9396242036     0.6175471845
   20      C       6.0928418630     1.9083981579     1.4929127250
   21      C       6.9749210935     0.8844357611     0.6861859326
   22      C       5.9812838819     0.4783236264    -0.4711409157
   23      O       5.2652809944     1.7428476204    -0.7654781392
   24      H       3.8518042645     0.3994517401     1.9695885048
   25      H       5.2842624669    -1.1732635965     0.8723305545
   26      H       4.1803495352     2.8687272090     0.6961291851
   27      H       6.5570817676     2.9069170906     1.5241556077
   28      H       5.8942545828     1.5792375664     2.5255455607
   29      H       7.8744166949     1.3669094973     0.2716158936
   30      H       7.2844823826     0.0181803218     1.2924583307
   31      H       6.4448620123     0.0759126315    -1.3927339856
   32      O      -2.4458089836     2.0033166652     1.5821493612
   33      C      -4.7075278531    -2.9426234819     2.6943340786
   34      C      -5.2215686653    -0.8207009234    -1.0481297782
   35      C      -6.1978147841     0.0068368467    -1.9723523707
   36      C      -5.2593994562     1.1870893120    -2.4231872440
   37      C      -3.9208843110     0.8188792507    -1.6679096147
   38      O      -3.9031225581    -0.6622628532    -1.6992055388
   39      H      -6.0238334400     0.3390436825     0.6882273684
   40      H      -4.6073505890     2.1279249612     0.0240004870
   41      H      -4.5930407810    -2.4171533413     3.6643136221
   42      H      -5.4749605831    -1.8913674706    -0.9233758941
   43      H      -6.5217498624    -0.6024905375    -2.8309707007
   44      H      -7.0903352968     0.3538975042    -1.4279344279
   45      H      -5.0982622601     1.1802699307    -3.5129231555
   46      H      -5.6458022888     2.1762457623    -2.1296653692
   47      H      -2.9957612943     1.2250286587    -2.1198236466
   48      H      -3.7174950541    -3.3378849914     2.3878728435
   49      H      -5.4218722820    -3.7787354643     2.8069157968
   50      H       1.7656237402    -3.6077610388    -0.7844476266
   51      H       3.0854850393    -3.5060189916    -2.0182791472
   52      H       1.8160281418    -2.2293647899    -1.9561307247
   53      H       0.3844974981     1.8025444376    -0.5265121217
   54      H      -0.1566184956     2.4347430308     1.0905466558
   55      H       0.0165752296    -0.5929556334     0.3811512834
   56      H      -0.7257191697     0.1352233882     1.8666063375
 ----------------------------------------------------------------

    9   -1510.2882166675      2.55E-09 Convergence criterion met
 Total energy in the final basis set = -1510.28821667
 Final energy is   -1510.28821666745
 **  OPTIMIZATION CONVERGED  **

                    Orbital Energies (a.u.)
 --------------------------------------------------------------

 Alpha MOs
 -- Occupied --
-18.944 -18.937 -18.924 -18.916 -18.889 -18.887 -18.884 -18.880
-18.862 -18.859 -10.108 -10.101 -10.094 -10.087 -10.071 -10.065
-10.063 -10.062 -10.059 -10.059 -10.053 -10.051 -10.042 -10.037
-10.035 -10.030 -10.021 -10.020 -10.018 -10.017  -1.021  -1.016
 -1.001  -0.995  -0.971  -0.967  -0.945  -0.939  -0.928  -0.922
 -0.764  -0.760  -0.725  -0.721  -0.713  -0.704  -0.690  -0.668
 -0.651  -0.615  -0.596  -0.580  -0.546  -0.542  -0.538  -0.534
 -0.514  -0.507  -0.485  -0.473  -0.464  -0.454  -0.451  -0.444
 -0.434  -0.432  -0.428  -0.417  -0.410  -0.404  -0.401  -0.392
 -0.389  -0.380  -0.377  -0.363  -0.361  -0.354  -0.350  -0.345
 -0.339  -0.337  -0.334  -0.330  -0.328  -0.326  -0.322  -0.315
 -0.309  -0.306  -0.301  -0.300  -0.297  -0.283  -0.277  -0.274
 -0.270  -0.262  -0.256  -0.243  -0.240  -0.235  -0.231  -0.189
 -0.185  -0.163  -0.162  -0.160  -0.156  -0.145  -0.142  -0.142
 -0.139

          Ground-State Mulliken Net Atomic Charges

     Atom                 Charge (a.u.)
  ----------------------------------------
      1 O                    -0.207735
      2 C                     0.214990
      3 C                    -0.078254
      4 C                    -0.081691
      5 C                     0.214187
      6 O                    -0.169688
      7 C                    -0.049631
      8 C                    -0.055499
      9 O                    -0.170271
     10 C                     0.213723
     11 C                    -0.077987
     12 C                    -0.080973
     13 C                     0.216066
     14 O                    -0.215145
     15 O                    -0.168938
     16 O                    -0.178836
     17 O                    -0.208583
     18 C                    -0.129174
     19 C                     0.025265
     20 C                    -0.143890
     21 C                    -0.143792
     22 C                     0.024490
     23 O                    -0.189057
     24 H                     0.087270
     25 H                     0.082996
     26 H                     0.084010
     27 H                     0.077980
     28 H                     0.073677
     29 H                     0.077723
     30 H                     0.072905
     31 H                     0.090217
     32 O                    -0.221795
     33 C                    -0.128022
     34 C                     0.025068
     35 C                    -0.143792
     36 C                    -0.144368
     37 C                     0.026780
     38 O                    -0.186819
     39 H                     0.086709
     40 H                     0.083265
     41 H                     0.091047
     42 H                     0.087282
     43 H                     0.078392
     44 H                     0.073522
     45 H                     0.078464
     46 H                     0.073619
     47 H                     0.086889
     48 H                     0.091526
     49 H                     0.092454
     50 H                     0.085430
     51 H                     0.086283
     52 H                     0.092965
     53 H                     0.092606
     54 H                     0.099862
     55 H                     0.091792
     56 H                     0.094487
  ----------------------------------------
  Sum of atomic charges =     0.000000

                    Cartesian Multipole Moments
 -----------------------------------------------------------------
    Charge (ESU x 10^10)
                -0.0000
    Dipole Moment (Debye)
         X      -2.3564      Y      -0.9597      Z       2.1341
       Tot       3.3208
    Quadrupole Moments (Debye-Ang)
        XX    -137.0773     XY       0.8082     YY    -153.8974
        XZ      12.7943     YZ      -6.0290     ZZ    -164.4115

 Total job time:  75.15s(wall), 3576.62s(cpu)
        *  Thank you very much for using Q-Chem.  Have a nice day.  *
