 Q-Chem 5.0, Q-Chem, Inc., Pleasanton, CA (2017)
 Q-Chem 5.0.1 for Intel X86 EM64T Linux

User input:
--------------------------------------------------------------
$molecule
0  1
O -3.94934 -3.66094 2.70899
C -3.26408 -4.56952 2.26188
C -3.36658 -6.02376 2.66595
C -4.50558 -6.40806 3.62452
C -5.52121 -5.32998 3.93165
O -6.54272 -5.38345 3.02662
C -7.53764 -4.3766 3.24028
C -8.39444 -4.7328 4.45071
O -8.82578 -3.53448 5.11469
C -9.74588 -2.79615 4.44579
C -10.14066 -1.539 5.1836
C -11.56595 -1.04258 4.90009
C -12.49003 -2.03669 4.22591
O -13.41903 -2.61982 4.7658
O -2.29526 -4.27148 1.35653
O -12.32313 -2.20253 2.88735
O -9.91559 -2.90407 3.23988
C -13.09291 -3.03515 2.10181
C -10.18568 -1.66558 6.72555
C -10.0066 -0.28595 7.3571
C -11.32978 0.35882 7.00587
C -12.04626 -0.82816 6.3521
O -11.52877 -1.95351 7.01756
H -9.38026 -0.77419 4.907
H -11.60943 -0.09678 4.31631
H -9.43534 -2.36397 7.1531
H -9.96779 -0.43614 8.46017
H -9.10377 0.2756 7.03395
H -11.83706 0.65506 7.95091
H -11.26779 1.2286 6.31651
H -13.14801 -0.68766 6.41673
O -5.36668 -4.468 4.79064
C -2.0417 -3.00289 0.87869
C -3.66954 -6.94508 1.46698
C -3.17879 -8.36043 1.76602
C -4.19488 -8.79657 2.79934
C -5.12087 -7.57467 2.80822
O -5.06499 -7.09898 1.48599
H -2.37103 -6.28689 3.08899
H -4.15257 -6.79818 4.6047
H -1.75733 -2.32856 1.71463
H -3.23195 -6.58551 0.51012
H -3.33082 -8.96443 0.84272
H -2.11615 -8.43555 2.08237
H -4.73375 -9.68747 2.40652
H -3.78425 -9.01579 3.80858
H -6.12692 -7.86578 3.18375
H -2.93977 -2.60245 0.36147
H -1.20256 -3.04791 0.15462
H -12.73662 -2.97712 1.05294
H -14.15734 -2.71878 2.13637
H -13.0004 -4.08501 2.45343
H -9.22152 -5.4351 4.20559
H -7.7658 -5.24651 5.20552
H -8.17437 -4.29019 2.33662
H -7.0365 -3.38849 3.37007
$end

$opt
CONSTRAINT
tors           1           2           3           4      +5.648
tors           3           4           5           6     +89.949
tors           4           5           6           7    -179.103
tors           5           6           7           8     -74.395
tors           6           7           8           9    +147.835
tors           7           8           9          10     +70.455
tors           8           9          10          11    -179.010
tors           9          10          11          12    -151.295
tors          11          12          13          14    +107.195
ENDCONSTRAINT
$end

$rem
JOBTYPE                   OPT
METHOD                    B3LYP
DFT_D                     d3_op
BASIS                     STO-3G
GEOM_OPT_MAX_CYCLES       100
GEOM_OPT_TOL_GRADIENT     300
GEOM_OPT_TOL_DISPLACEMENT 1200
GEOM_OPT_TOL_ENERGY       100
SYMMETRY                  False
THRESH                    12
SCF_CONVERGENCE           8
MAX_SUB_FILE_NUM          128
MEM_STATIC                400
MEM_TOTAL                 4000
$end
--------------------------------------------------------------

   15   -1510.1433176656      6.51E-09 Convergence criterion met
 Total energy in the final basis set = -1510.14331767
   14   -1510.2138330994      6.24E-09 Convergence criterion met
 Total energy in the final basis set = -1510.21383310
   14   -1510.2515299397      5.57E-09 Convergence criterion met
 Total energy in the final basis set = -1510.25152994
   14   -1510.2681935631      5.89E-09 Convergence criterion met
 Total energy in the final basis set = -1510.26819356
   13   -1510.2742968621      9.02E-09 Convergence criterion met
 Total energy in the final basis set = -1510.27429686
   13   -1510.2771186629      5.95E-09 Convergence criterion met
 Total energy in the final basis set = -1510.27711866
   13   -1510.2788180852      3.33E-09 Convergence criterion met
 Total energy in the final basis set = -1510.27881809
   13   -1510.2799639455      4.68E-09 Convergence criterion met
   12   -1510.2837733562      3.94E-09 Convergence criterion met
 Total energy in the final basis set = -1510.28377336
   11   -1510.2838032089      4.60E-09 Convergence criterion met
 Total energy in the final basis set = -1510.28380321
   11   -1510.2838282656      4.14E-09 Convergence criterion met
 Total energy in the final basis set = -1510.28382827
   11   -1510.2838416600      5.10E-09 Convergence criterion met
 Total energy in the final basis set = -1510.28384166
    9   -1510.2838476377      8.76E-09 Convergence criterion met
 Total energy in the final basis set = -1510.28384764
    9   -1510.2838492848      3.92E-09 Convergence criterion met
 Total energy in the final basis set = -1510.28384928

             Standard Nuclear Orientation (Angstroms)
    I     Atom           X                Y                Z
 ----------------------------------------------------------------
    1      O       3.1430560586    -1.2282730966     1.2477859320
    2      C       4.3647373070    -1.0047901888     1.0899858644
    3      C       5.0685744604    -0.4468583418    -0.1932723454
    4      C       4.0430502770    -0.0254329467    -1.3251912029
    5      C       2.5405801213    -0.3636260438    -0.9971252524
    6      O       1.9505686904     0.7534642648    -0.3133456331
    7      C       0.5415836679     0.4656897711     0.0320531866
    8      C      -0.4286297710     0.5267402948    -1.2181680114
    9      O      -1.5560045492    -0.4303894810    -1.0929525172
   10      C      -2.4635805969    -0.0010744728    -0.0776838401
   11      C      -3.6344873838    -1.0428336553     0.0536474583
   12      C      -4.9756504971    -0.3637078114     0.5544878729
   13      C      -4.7986538546     1.0850167721     1.1383264010
   14      O      -5.1381158290     2.1656495085     0.6110903374
   15      O       5.3552671484    -1.2443516939     2.0904650185
   16      O      -4.3335292704     0.9504631804     2.4903688065
   17      O      -2.3419694390     1.0728297460     0.5549464811
   18      C      -4.0874786706     2.2889077884     3.0691497469
   19      C      -4.0862283369    -1.5344468978    -1.3851742483
   20      C      -5.1530518292    -2.6913429235    -1.2401484339
   21      C      -6.4498961131    -1.8772965735    -0.8764065875
   22      C      -5.8588703752    -0.4187873902    -0.7630594198
   23      O      -4.8728394430    -0.3747347236    -1.8690011610
   24      H      -3.3140714707    -1.8719631575     0.7109475450
   25      H      -5.4255890130    -0.9797767039     1.3534977906
   26      H      -3.2419278269    -1.7467069482    -2.0684048328
   27      H      -5.2667745289    -3.2327164956    -2.1926533304
   28      H      -4.8723264056    -3.4131883014    -0.4563070338
   29      H      -7.1965459676    -1.9275170096    -1.6851954770
   30      H      -6.9190234587    -2.2162059587     0.0609320178
   31      H      -6.5862922510     0.4104623106    -0.8599508573
   32      O       1.9135443834    -1.3805345833    -1.3657024276
   33      C       4.7164588256    -1.7745786432     3.3182488170
   34      C       5.7834312034     0.9431140638     0.0994808528
   35      C       6.7416428462     1.2762379083    -1.1117838955
   36      C       5.7022253281     1.7181772829    -2.2077318836
   37      C       4.3398752342     1.5313557311    -1.4293271263
   38      O       4.6817221047     1.9202905870    -0.0413795364
   39      H       5.7909714790    -1.2021941032    -0.5531964598
   40      H       4.2881594911    -0.5434433467    -2.2693998584
   41      H       4.1870535315    -2.7291893671     3.1216184054
   42      H       6.2433831349     1.0089084368     1.1045475346
   43      H       7.4270464895     2.0973641389    -0.8481605458
   44      H       7.3383324831     0.4022110459    -1.4178996806
   45      H       5.8405755964     2.7733992428    -2.4922148265
   46      H       5.7494965209     1.0966228207    -3.1158840648
   47      H       3.4917909194     2.1364990518    -1.8025430702
   48      H       3.9923155033    -1.0507857628     3.7446054809
   49      H       5.5376051222    -1.9464737378     4.0381004356
   50      H      -3.8271243213     2.1233384317     4.1308066836
   51      H      -4.9850770805     2.9368428507     3.0005172752
   52      H      -3.2447091045     2.7954542333     2.5551818472
   53      H      -0.8077228749     1.5606605065    -1.3614219976
   54      H       0.1140965558     0.2023705986    -2.1277402395
   55      H       0.2493911907     1.2297202682     0.7787263337
   56      H       0.4585048045    -0.5450946258     0.4889352075
 ----------------------------------------------------------------

    9   -1510.2838497092      2.75E-09 Convergence criterion met
 Total energy in the final basis set = -1510.28384971
 Final energy is   -1510.28384970916
 **  OPTIMIZATION CONVERGED  **

                    Orbital Energies (a.u.)
 --------------------------------------------------------------

 Alpha MOs
 -- Occupied --
-18.945 -18.939 -18.924 -18.916 -18.889 -18.888 -18.881 -18.880
-18.861 -18.858 -10.108 -10.102 -10.093 -10.087 -10.071 -10.068
-10.064 -10.062 -10.059 -10.054 -10.053 -10.050 -10.042 -10.037
-10.035 -10.028 -10.022 -10.020 -10.016 -10.015  -1.021  -1.016
 -1.001  -0.994  -0.971  -0.964  -0.945  -0.939  -0.927  -0.921
 -0.764  -0.758  -0.725  -0.721  -0.712  -0.703  -0.688  -0.668
 -0.650  -0.615  -0.595  -0.580  -0.547  -0.540  -0.538  -0.532
 -0.514  -0.505  -0.483  -0.476  -0.464  -0.453  -0.449  -0.445
 -0.435  -0.430  -0.426  -0.417  -0.410  -0.402  -0.398  -0.395
 -0.386  -0.380  -0.378  -0.365  -0.361  -0.355  -0.348  -0.345
 -0.338  -0.335  -0.331  -0.329  -0.327  -0.326  -0.320  -0.315
 -0.309  -0.306  -0.302  -0.301  -0.296  -0.283  -0.277  -0.272
 -0.271  -0.262  -0.256  -0.242  -0.239  -0.234  -0.229  -0.188
 -0.184  -0.164  -0.161  -0.160  -0.154  -0.146  -0.141  -0.140
 -0.138

          Ground-State Mulliken Net Atomic Charges

     Atom                 Charge (a.u.)
  ----------------------------------------
      1 O                    -0.206620
      2 C                     0.215050
      3 C                    -0.077932
      4 C                    -0.082044
      5 C                     0.213631
      6 O                    -0.171495
      7 C                    -0.051118
      8 C                    -0.049949
      9 O                    -0.165749
     10 C                     0.214002
     11 C                    -0.076325
     12 C                    -0.082072
     13 C                     0.214002
     14 O                    -0.218573
     15 O                    -0.168747
     16 O                    -0.174211
     17 O                    -0.211725
     18 C                    -0.128160
     19 C                     0.022901
     20 C                    -0.145065
     21 C                    -0.142935
     22 C                     0.023414
     23 O                    -0.191726
     24 H                     0.086810
     25 H                     0.083156
     26 H                     0.092017
     27 H                     0.077676
     28 H                     0.072825
     29 H                     0.077235
     30 H                     0.072641
     31 H                     0.088284
     32 O                    -0.220588
     33 C                    -0.128037
     34 C                     0.024941
     35 C                    -0.143970
     36 C                    -0.144147
     37 C                     0.026253
     38 O                    -0.187976
     39 H                     0.087039
     40 H                     0.082926
     41 H                     0.091199
     42 H                     0.087067
     43 H                     0.078382
     44 H                     0.073585
     45 H                     0.078090
     46 H                     0.073495
     47 H                     0.087321
     48 H                     0.091853
     49 H                     0.092423
     50 H                     0.085464
     51 H                     0.086842
     52 H                     0.091170
     53 H                     0.091275
     54 H                     0.095274
     55 H                     0.096282
     56 H                     0.094640
  ----------------------------------------
  Sum of atomic charges =    -0.000000

                    Cartesian Multipole Moments
 -----------------------------------------------------------------
    Charge (ESU x 10^10)
                 0.0000
    Dipole Moment (Debye)
         X       2.7828      Y      -1.9600      Z       1.0973
       Tot       3.5763
    Quadrupole Moments (Debye-Ang)
        XX    -142.4793     XY       7.4863     YY    -161.6093
        XZ      -6.2758     YZ      -3.2918     ZZ    -152.0446

 Total job time:  61.06s(wall), 2903.90s(cpu)
        *  Thank you very much for using Q-Chem.  Have a nice day.  *
