 Q-Chem 5.0, Q-Chem, Inc., Pleasanton, CA (2017)
 Q-Chem 5.0.1 for Intel X86 EM64T Linux

User input:
--------------------------------------------------------------
$molecule
0  1
O -3.94934 -3.66094 2.70899
C -3.26408 -4.56952 2.26188
C -3.36658 -6.02376 2.66595
C -4.39612 -6.38074 3.7506
C -5.33151 -5.27347 4.18314
O -6.52514 -5.39286 3.53015
C -7.44813 -4.34583 3.84806
C -8.1475 -4.64508 5.16998
O -8.44578 -3.41819 5.85457
C -9.4183 -2.65834 5.29245
C -9.66863 -1.37263 6.04406
C -11.08771 -0.80387 5.89911
C -12.12708 -1.75521 5.34112
O -13.03303 -2.2697 5.98073
O -2.34108 -4.28287 1.30649
O -12.1099 -1.94478 3.99534
O -9.73736 -2.77895 4.11874
C -13.00414 -2.738 3.30676
C -9.56523 -1.48389 7.5845
C -9.24687 -0.1114 8.17522
C -10.56008 0.60513 7.94668
C -11.40467 -0.54592 7.38819
O -10.88556 -1.69224 8.01518
H -8.89824 -0.654 5.68384
H -11.14028 0.13476 5.30464
H -8.81582 -2.22083 7.94369
H -9.10769 -0.25472 9.2711
H -8.35031 0.39519 7.75759
H -10.95139 0.94243 8.9322
H -10.51877 1.46085 7.23842
H -12.48458 -0.34231 7.56167
O -5.02934 -4.38696 4.97534
C -2.11223 -3.02028 0.8011
C -3.81832 -6.92638 1.5041
C -3.33256 -8.35432 1.7413
C -4.23884 -8.77211 2.87854
C -5.12672 -7.52718 2.99739
O -5.20682 -7.04312 1.67922
H -2.34103 -6.3094 2.99202
H -3.94753 -6.79559 4.68023
H -1.78874 -2.33544 1.61396
H -3.47978 -6.56749 0.50754
H -3.59893 -8.94895 0.8381
H -2.24371 -8.45478 1.93952
H -4.84158 -9.64518 2.54239
H -3.72493 -9.01186 3.83436
H -6.08992 -7.80624 3.47905
H -3.03452 -2.62671 0.32267
H -1.30892 -3.074 0.03803
H -12.75535 -2.71241 2.22608
H -14.03898 -2.35811 3.44495
H -12.93737 -3.78776 3.66445
H -9.01984 -5.32632 5.05982
H -7.42453 -5.15874 5.83701
H -8.19567 -4.259 3.03373
H -6.91503 -3.36608 3.8781
$end

$opt
CONSTRAINT
tors           1           2           3           4      -1.445
tors           3           4           5           6     +97.972
tors           4           5           6           7    -177.653
tors           5           6           7           8     -81.199
tors           6           7           8           9    +147.835
tors           7           8           9          10     +70.247
tors           8           9          10          11    -179.010
tors           9          10          11          12    -153.144
tors          11          12          13          14    +108.013
ENDCONSTRAINT
$end

$rem
JOBTYPE                   OPT
METHOD                    B3LYP
DFT_D                     d3_op
BASIS                     STO-3G
GEOM_OPT_MAX_CYCLES       100
GEOM_OPT_TOL_GRADIENT     300
GEOM_OPT_TOL_DISPLACEMENT 1200
GEOM_OPT_TOL_ENERGY       100
SYMMETRY                  False
THRESH                    12
SCF_CONVERGENCE           8
MAX_SUB_FILE_NUM          128
MEM_STATIC                400
MEM_TOTAL                 4000
$end
--------------------------------------------------------------

   15   -1510.1424697335      6.54E-09 Convergence criterion met
 Total energy in the final basis set = -1510.14246973
   14   -1510.2131095742      6.73E-09 Convergence criterion met
 Total energy in the final basis set = -1510.21310957
   14   -1510.2509324985      5.36E-09 Convergence criterion met
 Total energy in the final basis set = -1510.25093250
   14   -1510.2677397359      5.96E-09 Convergence criterion met
 Total energy in the final basis set = -1510.26773974
   13   -1510.2739032286      9.71E-09 Convergence criterion met
 Total energy in the final basis set = -1510.27390323
   13   -1510.2767637894      6.08E-09 Convergence criterion met
 Total energy in the final basis set = -1510.27676379
   13   -1510.2785724691      3.02E-09 Convergence criterion met
 Total energy in the final basis set = -1510.27857247
   13   -1510.2798630705      3.21E-09 Convergence criterion met
   11   -1510.2839566293      6.69E-09 Convergence criterion met
 Total energy in the final basis set = -1510.28395663
   11   -1510.2839932285      5.93E-09 Convergence criterion met
 Total energy in the final basis set = -1510.28399323
   10   -1510.2840139244      7.64E-09 Convergence criterion met
 Total energy in the final basis set = -1510.28401392
   11   -1510.2840287076      2.55E-09 Convergence criterion met
 Total energy in the final basis set = -1510.28402871
    9   -1510.2840328076      9.28E-09 Convergence criterion met
 Total energy in the final basis set = -1510.28403281
    9   -1510.2840342447      4.87E-09 Convergence criterion met
 Total energy in the final basis set = -1510.28403424

             Standard Nuclear Orientation (Angstroms)
    I     Atom           X                Y                Z
 ----------------------------------------------------------------
    1      O       3.1449154935    -1.0262347581     1.3419274379
    2      C       4.3754653524    -0.9704940667     1.1180358965
    3      C       5.0793004291    -0.4476918358    -0.1792956267
    4      C       4.0493941329     0.0116036084    -1.2922012352
    5      C       2.5481547451    -0.3269658685    -0.9571863361
    6      O       1.9114154634     0.8372668998    -0.4069892093
    7      C       0.5148721357     0.5262000111    -0.0322805258
    8      C      -0.4629585166     0.5742465642    -1.2762689457
    9      O      -1.5776722308    -0.3977735688    -1.1498720928
   10      C      -2.4842783680     0.0150552052    -0.1269774036
   11      C      -3.6403305751    -1.0424627880     0.0042415734
   12      C      -4.9744008290    -0.3940494273     0.5606951422
   13      C      -4.7987643492     1.0401940778     1.1804418075
   14      O      -5.1781713071     2.1292373578     0.6998437423
   15      O       5.3763242424    -1.3854693068     2.0479567620
   16      O      -4.2824722091     0.8738570363     2.5104700949
   17      O      -2.3729544958     1.0874715483     0.5100659222
   18      C      -4.0387451043     2.1990460495     3.1199052570
   19      C      -4.1243375551    -1.4954564270    -1.4373769828
   20      C      -5.1715205218    -2.6709299032    -1.2999182339
   21      C      -6.4672244251    -1.8865482752    -0.8728758943
   22      C      -5.8930110354    -0.4236433467    -0.7328434959
   23      O      -4.9392466616    -0.3325064606    -1.8635901086
   24      H      -3.2935699072    -1.8877942836     0.6265101881
   25      H      -5.3944949429    -1.0378382714     1.3541186201
   26      H      -3.2959528067    -1.6747342882    -2.1490625289
   27      H      -5.3059501630    -3.1820918257    -2.2662904517
   28      H      -4.8589764754    -3.4146964071    -0.5491964419
   29      H      -7.2372796919    -1.9231549183    -1.6602479729
   30      H      -6.9036942606    -2.2594863822     0.0673807327
   31      H      -6.6344269424     0.3972642359    -0.7851138868
   32      O       1.9527771409    -1.3925797016    -1.2284494079
   33      C       4.7383131996    -1.8758777887     3.2927962343
   34      C       5.8370019375     0.9212442741     0.1088659695
   35      C       6.7699198633     1.2482612070    -1.1238960031
   36      C       5.7142915061     1.7416391917    -2.1816333978
   37      C       4.3684572892     1.5648662846    -1.3737115913
   38      O       4.7530345258     1.9235032410     0.0115585291
   39      H       5.7722875538    -1.2254704692    -0.5477905589
   40      H       4.2832906693    -0.4914364672    -2.2476161054
   41      H       4.0754797607    -2.7429053894     3.0951662984
   42      H       6.3268635233     0.9655781487     1.1009691146
   43      H       7.4877454987     2.0427982048    -0.8652911716
   44      H       7.3297081207     0.3621008135    -1.4630025964
   45      H       5.8696765489     2.8009622298    -2.4411636422
   46      H       5.7253544765     1.1445695204    -3.1071972412
   47      H       3.5213274692     2.1901906987    -1.7139833476
   48      H       4.1419619232    -1.0806619826     3.7848575984
   49      H       5.5658702506    -2.1846994174     3.9574472938
   50      H      -3.7373264663     2.0072951986     4.1661759757
   51      H      -4.9492036181     2.8322622267     3.1027008569
   52      H      -3.2240148995     2.7357844726     2.5916341526
   53      H      -0.8558570775     1.6031911269    -1.4181835749
   54      H       0.0814134954     0.2596601474    -2.1889018800
   55      H       0.2179779610     1.2869898050     0.7159654313
   56      H       0.4558145499    -0.4860510986     0.4235297465
 ----------------------------------------------------------------

    9   -1510.2840348182      2.83E-09 Convergence criterion met
 Total energy in the final basis set = -1510.28403482
 Final energy is   -1510.28403481825
 **  OPTIMIZATION CONVERGED  **

                    Orbital Energies (a.u.)
 --------------------------------------------------------------

 Alpha MOs
 -- Occupied --
-18.944 -18.939 -18.924 -18.916 -18.889 -18.887 -18.881 -18.880
-18.861 -18.857 -10.108 -10.102 -10.094 -10.087 -10.071 -10.069
-10.063 -10.063 -10.059 -10.054 -10.053 -10.050 -10.042 -10.037
-10.035 -10.028 -10.022 -10.020 -10.017 -10.015  -1.021  -1.017
 -1.001  -0.994  -0.971  -0.965  -0.945  -0.940  -0.927  -0.920
 -0.764  -0.758  -0.725  -0.721  -0.712  -0.703  -0.688  -0.668
 -0.650  -0.615  -0.595  -0.580  -0.547  -0.540  -0.538  -0.533
 -0.514  -0.505  -0.483  -0.476  -0.464  -0.453  -0.450  -0.446
 -0.435  -0.430  -0.426  -0.417  -0.410  -0.402  -0.398  -0.396
 -0.387  -0.379  -0.379  -0.365  -0.360  -0.356  -0.348  -0.345
 -0.339  -0.336  -0.331  -0.330  -0.327  -0.325  -0.319  -0.314
 -0.309  -0.306  -0.302  -0.301  -0.296  -0.282  -0.278  -0.272
 -0.271  -0.262  -0.256  -0.242  -0.240  -0.234  -0.229  -0.188
 -0.185  -0.164  -0.161  -0.160  -0.155  -0.147  -0.142  -0.140
 -0.138

          Ground-State Mulliken Net Atomic Charges

     Atom                 Charge (a.u.)
  ----------------------------------------
      1 O                    -0.206470
      2 C                     0.214868
      3 C                    -0.077884
      4 C                    -0.081873
      5 C                     0.213738
      6 O                    -0.171666
      7 C                    -0.051218
      8 C                    -0.049546
      9 O                    -0.166247
     10 C                     0.214361
     11 C                    -0.076354
     12 C                    -0.082117
     13 C                     0.214261
     14 O                    -0.218729
     15 O                    -0.168695
     16 O                    -0.174517
     17 O                    -0.211023
     18 C                    -0.128215
     19 C                     0.022946
     20 C                    -0.145026
     21 C                    -0.142942
     22 C                     0.023517
     23 O                    -0.191802
     24 H                     0.086994
     25 H                     0.083157
     26 H                     0.091489
     27 H                     0.077667
     28 H                     0.072935
     29 H                     0.077222
     30 H                     0.072688
     31 H                     0.088405
     32 O                    -0.221835
     33 C                    -0.128123
     34 C                     0.025076
     35 C                    -0.144051
     36 C                    -0.144001
     37 C                     0.025691
     38 O                    -0.188495
     39 H                     0.087389
     40 H                     0.082832
     41 H                     0.091387
     42 H                     0.085854
     43 H                     0.078449
     44 H                     0.073783
     45 H                     0.078084
     46 H                     0.073403
     47 H                     0.089146
     48 H                     0.091677
     49 H                     0.092348
     50 H                     0.085414
     51 H                     0.086816
     52 H                     0.091079
     53 H                     0.091615
     54 H                     0.093436
     55 H                     0.096361
     56 H                     0.096739
  ----------------------------------------
  Sum of atomic charges =    -0.000000

                    Cartesian Multipole Moments
 -----------------------------------------------------------------
    Charge (ESU x 10^10)
                 0.0000
    Dipole Moment (Debye)
         X       2.8044      Y      -2.0702      Z       0.8935
       Tot       3.5984
    Quadrupole Moments (Debye-Ang)
        XX    -143.4615     XY       7.9524     YY    -161.6093
        XZ      -6.1193     YZ      -3.3098     ZZ    -151.6746

 Total job time:  60.46s(wall), 2870.50s(cpu)
        *  Thank you very much for using Q-Chem.  Have a nice day.  *
