 Q-Chem 5.0, Q-Chem, Inc., Pleasanton, CA (2017)
 Q-Chem 5.0.1 for Intel X86 EM64T Linux

User input:
--------------------------------------------------------------
$molecule
0  1
O 3.1449154935 -1.0262347581 1.3419274379
C 4.3754653524 -0.9704940667 1.1180358965
C 5.0793004291 -0.4476918358 -0.1792956267
C 4.0493941329 0.0116036084 -1.2922012352
C 2.5481547451 -0.3269658685 -0.9571863361
O 1.9114154634 0.8372668998 -0.4069892093
C 0.5148721357 0.5262000111 -0.0322805258
C -0.4629585166 0.5742465642 -1.2762689457
O -1.5776722308 -0.3977735688 -1.1498720928
C -2.484278368 0.0150552052 -0.1269774036
C -3.6403305751 -1.042462788 0.0042415734
C -4.974400829 -0.3940494273 0.5606951422
C -4.7987643492 1.0401940778 1.1804418075
O -5.1781713071 2.1292373578 0.6998437423
O 5.3763242424 -1.3854693068 2.047956762
O -4.2824722091 0.8738570363 2.5104700949
O -2.3729544958 1.0874715483 0.5100659222
C -4.0387451043 2.1990460495 3.119905257
C -4.1243375551 -1.495456427 -1.4373769828
C -5.1715205218 -2.6709299032 -1.2999182339
C -6.4672244251 -1.8865482752 -0.8728758943
C -5.8930110354 -0.4236433467 -0.7328434959
O -4.9392466616 -0.3325064606 -1.8635901086
H -3.2935699072 -1.8877942836 0.6265101881
H -5.3944949429 -1.0378382714 1.3541186201
H -3.2959528067 -1.6747342882 -2.1490625289
H -5.305950163 -3.1820918257 -2.2662904517
H -4.8589764754 -3.4146964071 -0.5491964419
H -7.2372796919 -1.9231549183 -1.6602479729
H -6.9036942606 -2.2594863822 0.0673807327
H -6.6344269424 0.3972642359 -0.7851138868
O 1.9527771409 -1.3925797016 -1.2284494079
C 4.7383131996 -1.8758777887 3.2927962343
C 5.8370019375 0.9212442741 0.1088659695
C 6.7699198633 1.248261207 -1.1238960031
C 5.7142915061 1.7416391917 -2.1816333978
C 4.3684572892 1.5648662846 -1.3737115913
O 4.7530345258 1.923503241 0.0115585291
H 5.7722875538 -1.2254704692 -0.5477905589
H 4.2832906693 -0.4914364672 -2.2476161054
H 4.0754797607 -2.7429053894 3.0951662984
H 6.3268635233 0.9655781487 1.1009691146
H 7.4877454987 2.0427982048 -0.8652911716
H 7.3297081207 0.3621008135 -1.4630025964
H 5.8696765489 2.8009622298 -2.4411636422
H 5.7253544765 1.1445695204 -3.1071972412
H 3.5213274692 2.1901906987 -1.7139833476
H 4.1419619232 -1.0806619826 3.7848575984
H 5.5658702506 -2.1846994174 3.9574472938
H -3.7373264663 2.0072951986 4.1661759757
H -4.9492036181 2.8322622267 3.1027008569
H -3.2240148995 2.7357844726 2.5916341526
H -0.8558570775 1.6031911269 -1.4181835749
H 0.0814134954 0.2596601474 -2.18890188
H 0.217977961 1.286989805 0.7159654313
H 0.4558145499 -0.4860510986 0.4235297465
$end

$rem
JOBTYPE                   OPT
METHOD                    B3LYP
DFT_D                     d3_op
BASIS                     STO-3G
GEOM_OPT_MAX_CYCLES       100
GEOM_OPT_TOL_GRADIENT     300
GEOM_OPT_TOL_DISPLACEMENT 1200
GEOM_OPT_TOL_ENERGY       100
SYMMETRY                  False
THRESH                    12
SCF_CONVERGENCE           8
MAX_SUB_FILE_NUM          128
MEM_STATIC                400
MEM_TOTAL                 4000
$end
--------------------------------------------------------------

   16   -1510.2839053717      5.36E-09 Convergence criterion met
 Total energy in the final basis set = -1510.28390537
   13   -1510.2847113609      9.57E-09 Convergence criterion met
 Total energy in the final basis set = -1510.28471136
   13   -1510.2853049984      4.09E-09 Convergence criterion met
 Total energy in the final basis set = -1510.28530500
   13   -1510.2859820243      2.80E-09 Convergence criterion met
 Total energy in the final basis set = -1510.28598202
   13   -1510.2865101796      3.84E-09 Convergence criterion met
 Total energy in the final basis set = -1510.28651018
   13   -1510.2869613436      5.21E-09 Convergence criterion met
 Total energy in the final basis set = -1510.28696134
   13   -1510.2874183903      4.45E-09 Convergence criterion met
 Total energy in the final basis set = -1510.28741839
   13   -1510.2877221123      4.84E-09 Convergence criterion met
   12   -1510.2879653881      8.06E-09 Convergence criterion met
 Total energy in the final basis set = -1510.28796539
   14   -1510.2878427612      2.47E-09 Convergence criterion met
 Total energy in the final basis set = -1510.28784276
   13   -1510.2881558881      8.96E-09 Convergence criterion met
 Total energy in the final basis set = -1510.28815589
   13   -1510.2881019769      8.09E-09 Convergence criterion met
 Total energy in the final basis set = -1510.28810198
   13   -1510.2882031703      2.63E-09 Convergence criterion met
 Total energy in the final basis set = -1510.28820317
   11   -1510.2882171909      7.36E-09 Convergence criterion met
 Total energy in the final basis set = -1510.28821719

             Standard Nuclear Orientation (Angstroms)
    I     Atom           X                Y                Z
 ----------------------------------------------------------------
    1      O      -3.3031097183    -0.8258198694     1.9987186133
    2      C      -4.3786120487    -0.9959283695     1.3810531582
    3      C      -5.0414027130    -0.0313935214     0.3403299979
    4      C      -4.1194098514     1.1964149021    -0.0477260669
    5      C      -2.7345264484     1.2266932246     0.7005669695
    6      O      -1.8145293979     0.3709894855     0.0063459800
    7      C      -0.5323311796     0.2856048882     0.7418975658
    8      C       0.3292106291     1.5978667744     0.5879607760
    9      O       1.6794710357     1.4224419808     1.1786580964
   10      C       2.5303453863     0.7173221558     0.2726171823
   11      C       3.9455021950     0.5651494038     0.9201292105
   12      C       4.8431015688    -0.4942078897     0.1608322714
   13      C       4.0989113016    -1.2693598781    -0.9893539679
   14      O       4.3338776221    -1.2127053893    -2.2144260571
   15      O      -5.2148788817    -2.1433874713     1.5340814517
   16      O       3.1725741904    -2.1830740972    -0.3791329271
   17      O       2.1800207528     0.3292091333    -0.8653942211
   18      C       2.3928769059    -2.8760076704    -1.4282436616
   19      C       4.7956242191     1.8904502186     0.6891036702
   20      C       6.0994650093     1.8179181278     1.5781270668
   21      C       6.9752426383     0.8003198887     0.7563614274
   22      C       5.9880736541     0.4355248482    -0.4197489410
   23      O       5.2955980367     1.7179837869    -0.6926355451
   24      H       3.8295512573     0.3329721159     1.9933808781
   25      H       5.2445758672    -1.2394137651     0.8714325604
   26      H       4.2115356165     2.8268938028     0.7823416057
   27      H       6.5782837695     2.8081081775     1.6386776940
   28      H       5.8842085737     1.4671346386     2.6002353511
   29      H       7.8844751268     1.2803263438     0.3607353788
   30      H       7.2687859781    -0.0829996316     1.3458465194
   31      H       6.4554049590     0.0471712915    -1.3454358112
   32      O      -2.4341014798     1.9519369955     1.6739799210
   33      C      -4.6109620523    -3.0891465984     2.5018499727
   34      C      -5.2374981488    -0.7281459358    -1.0759752870
   35      C      -6.2420557166     0.1470730084    -1.9232409985
   36      C      -5.3256286500     1.3650643732    -2.3143627883
   37      C      -3.9677064346     0.9644502944    -1.6128559317
   38      O      -3.9350831669    -0.5113641138    -1.7431976873
   39      H      -6.0111286014     0.3039276860     0.7519916477
   40      H      -4.6295013669     2.1498182837     0.1767549188
   41      H      -4.4749526390    -2.6216497522     3.4983025500
   42      H      -5.4771225305    -1.8075681530    -1.0166763351
   43      H      -6.5775625448    -0.4085411144    -2.8132355346
   44      H      -7.1262849325     0.4477960324    -1.3391759149
   45      H      -5.1869979754     1.4312535161    -3.4052758134
   46      H      -5.7171591718     2.3283036064    -1.9496139627
   47      H      -3.0572774472     1.4108517247    -2.0566078392
   48      H      -3.6268553341    -3.4590882497     2.1480552555
   49      H      -5.3178049916    -3.9353738812     2.5815187890
   50      H       1.7133746732    -3.5693921169    -0.8990737341
   51      H       3.0473252304    -3.4499673326    -2.1159113878
   52      H       1.7973113245    -2.1558252000    -2.0260879453
   53      H       0.4008678242     1.8652472854    -0.4877256822
   54      H      -0.1497537602     2.4215927450     1.1532776892
   55      H       0.0114425724    -0.5659992937     0.2853811222
   56      H      -0.7113060851     0.0786176837     1.8185101315
 ----------------------------------------------------------------

   11   -1510.2882163740      6.89E-09 Convergence criterion met
 Total energy in the final basis set = -1510.28821637
 Final energy is   -1510.28821637399
 **  OPTIMIZATION CONVERGED  **

                    Orbital Energies (a.u.)
 --------------------------------------------------------------

 Alpha MOs
 -- Occupied --
-18.945 -18.938 -18.924 -18.916 -18.888 -18.887 -18.884 -18.880
-18.863 -18.859 -10.108 -10.102 -10.094 -10.087 -10.071 -10.065
-10.063 -10.061 -10.060 -10.059 -10.053 -10.051 -10.042 -10.037
-10.035 -10.030 -10.021 -10.020 -10.018 -10.017  -1.021  -1.016
 -1.001  -0.995  -0.971  -0.967  -0.945  -0.939  -0.928  -0.921
 -0.764  -0.760  -0.725  -0.721  -0.713  -0.704  -0.690  -0.668
 -0.651  -0.615  -0.596  -0.580  -0.546  -0.542  -0.538  -0.534
 -0.514  -0.507  -0.485  -0.473  -0.464  -0.454  -0.451  -0.444
 -0.434  -0.432  -0.428  -0.417  -0.410  -0.404  -0.401  -0.392
 -0.389  -0.381  -0.377  -0.363  -0.361  -0.354  -0.350  -0.345
 -0.339  -0.337  -0.334  -0.330  -0.328  -0.326  -0.322  -0.315
 -0.309  -0.306  -0.301  -0.300  -0.297  -0.283  -0.277  -0.274
 -0.270  -0.262  -0.256  -0.243  -0.240  -0.235  -0.231  -0.189
 -0.185  -0.163  -0.162  -0.160  -0.156  -0.145  -0.142  -0.142
 -0.138

          Ground-State Mulliken Net Atomic Charges

     Atom                 Charge (a.u.)
  ----------------------------------------
      1 O                    -0.207900
      2 C                     0.215103
      3 C                    -0.078267
      4 C                    -0.081690
      5 C                     0.214231
      6 O                    -0.169864
      7 C                    -0.049849
      8 C                    -0.055151
      9 O                    -0.170080
     10 C                     0.213795
     11 C                    -0.078039
     12 C                    -0.081038
     13 C                     0.216036
     14 O                    -0.215268
     15 O                    -0.168908
     16 O                    -0.178910
     17 O                    -0.208544
     18 C                    -0.129190
     19 C                     0.025291
     20 C                    -0.143889
     21 C                    -0.143827
     22 C                     0.024526
     23 O                    -0.189055
     24 H                     0.087278
     25 H                     0.083024
     26 H                     0.083922
     27 H                     0.077979
     28 H                     0.073696
     29 H                     0.077785
     30 H                     0.072961
     31 H                     0.090207
     32 O                    -0.221691
     33 C                    -0.127984
     34 C                     0.024958
     35 C                    -0.143796
     36 C                    -0.144307
     37 C                     0.026680
     38 O                    -0.186778
     39 H                     0.086711
     40 H                     0.083280
     41 H                     0.091254
     42 H                     0.087395
     43 H                     0.078421
     44 H                     0.073517
     45 H                     0.078427
     46 H                     0.073599
     47 H                     0.086741
     48 H                     0.091353
     49 H                     0.092481
     50 H                     0.085319
     51 H                     0.086269
     52 H                     0.092951
     53 H                     0.092265
     54 H                     0.099703
     55 H                     0.092138
     56 H                     0.094730
  ----------------------------------------
  Sum of atomic charges =     0.000000

                    Cartesian Multipole Moments
 -----------------------------------------------------------------
    Charge (ESU x 10^10)
                -0.0000
    Dipole Moment (Debye)
         X      -2.3945      Y      -1.0234      Z       2.1256
       Tot       3.3614
    Quadrupole Moments (Debye-Ang)
        XX    -137.3899     XY       0.2560     YY    -153.0312
        XZ      12.8605     YZ      -5.6959     ZZ    -165.1885

 Total job time:  54.38s(wall), 2586.09s(cpu)
        *  Thank you very much for using Q-Chem.  Have a nice day.  *
