 Q-Chem 5.0, Q-Chem, Inc., Pleasanton, CA (2017)
 Q-Chem 5.0.1 for Intel X86 EM64T Linux

User input:
--------------------------------------------------------------
$molecule
0  1
O -5.2762088504 0.3039841403 0.6480215389
C -4.3531742803 0.5620983495 -0.111182303
C -3.3872911358 -0.4480580577 -0.6901871188
C -1.9184157247 -0.0158503888 -0.8296864891
C -1.544743132 1.3129754851 -0.2110782421
O -0.3735581682 1.7630252751 -0.7506926575
C 0.6473667338 0.7605810006 -0.7962345101
C 0.0191932034 -0.6246954682 -0.9082258513
O 0.9915377113 -1.5654738318 -1.3902729462
C 2.1990485686 -1.5232293499 -0.7744235879
C 2.9457930973 -0.2359612856 -1.031260636
C 2.5874716999 0.9199495915 -0.0858665007
C 1.8288204665 0.5364996636 1.1687757272
O 0.6161933248 0.4051389077 1.2515470806
O -4.3577980908 1.7823016615 -0.7150991347
O 2.5402593336 0.2349587445 2.2947501962
O 2.7427392493 -2.5522418981 -0.4017042687
C 1.9857638203 -0.1663843317 3.4926868536
C 4.4620599044 -0.4304837166 -0.8041329517
C 5.2535738505 0.6531114525 -1.5365049837
C 4.9897802111 1.8256281546 -0.6335416266
C 4.0712044662 1.1663443838 0.4123065926
O 4.6269492852 -0.1146523007 0.5438727148
H 2.8356094895 -0.0140736051 -2.1173418558
H 2.5808329013 1.9806002565 -0.4770967039
H 4.8330195229 -1.4290532225 -1.1239537386
H 6.3394036432 0.4100340763 -1.4985029156
H 4.9386742142 0.7869706548 -2.5939268989
H 5.9452313913 2.0946820574 -0.128056391
H 4.578529261 2.730997871 -1.1293896099
H 4.1146526545 1.7972270624 1.330766734
O -2.161582084 1.9566285542 0.6231918982
C -5.2354369699 2.8021360523 -0.4105521895
C -3.7455661431 -1.7393832924 0.0047323251
C -2.9771876248 -2.9322844666 -0.5270169124
C -1.6973083815 -2.6365256939 0.1515183133
C -1.9771284122 -1.1447091251 0.5572179853
O -3.2019492515 -1.3656946997 1.1791681032
H -3.8132482446 -0.6186483598 -1.7161085889
H -2.0403743992 0.2161655475 -1.9279192537
H -5.1229469589 3.0966174576 0.6548055291
H -4.8384456398 -1.9580897019 0.0243441433
H -3.3543171763 -3.9202396578 -0.1822765899
H -2.9476835967 -2.8832246312 -1.6379779518
H -1.6661551528 -3.202497879 1.1139804678
H -0.8265327572 -3.0024546404 -0.4271543793
H -1.3183264025 -0.8301775294 1.3912509004
H -6.2808248134 2.4795638776 -0.603529327
H -5.0085691127 3.6797837959 -1.0498134846
H 2.7972192219 -0.3415475243 4.2283136596
H 1.4179820984 -1.1112204984 3.3533262254
H 1.3106001825 0.6238380822 3.8850482807
H 0.1094553773 -1.1635689344 0.0180154344
H -0.3231314442 -0.8183672561 -1.9911045812
H 0.688990028 1.863078619 -0.4137816668
H 0.954750732 0.8992539152 -1.8682410013
$end

$rem
JOBTYPE                   OPT
METHOD                    B3LYP
DFT_D                     d3_op
BASIS                     STO-3G
GEOM_OPT_MAX_CYCLES       100
GEOM_OPT_TOL_GRADIENT     300
GEOM_OPT_TOL_DISPLACEMENT 1200
GEOM_OPT_TOL_ENERGY       100
SYMMETRY                  False
THRESH                    12
SCF_CONVERGENCE           8
MAX_SUB_FILE_NUM          128
MEM_STATIC                400
MEM_TOTAL                 4000
$end
--------------------------------------------------------------

   17   -1509.4440163540      4.04E-09 Convergence criterion met
 Total energy in the final basis set = -1509.44401635
   14   -1509.6118735862      9.78E-09 Convergence criterion met
 Total energy in the final basis set = -1509.61187359
   15   -1509.7129428375      2.61E-09 Convergence criterion met
 Total energy in the final basis set = -1509.71294284
   14   -1509.7850936921      6.18E-09 Convergence criterion met
 Total energy in the final basis set = -1509.78509369
   14   -1509.8432552424      6.54E-09 Convergence criterion met
 Total energy in the final basis set = -1509.84325524
   14   -1509.8884342819      6.90E-09 Convergence criterion met
 Total energy in the final basis set = -1509.88843428
   14   -1509.9257691853      5.05E-09 Convergence criterion met
 Total energy in the final basis set = -1509.92576919
   14   -1509.9579331428      5.32E-09 Convergence criterion met
   11   -1510.2661394371      8.80E-09 Convergence criterion met
 Total energy in the final basis set = -1510.26613944
   10   -1510.2661642260      9.01E-09 Convergence criterion met
 Total energy in the final basis set = -1510.26616423
   11   -1510.2661763307      3.74E-09 Convergence criterion met
 Total energy in the final basis set = -1510.26617633
   10   -1510.2661979722      8.64E-09 Convergence criterion met
 Total energy in the final basis set = -1510.26619797
   10   -1510.2662035541      6.39E-09 Convergence criterion met
 Total energy in the final basis set = -1510.26620355
   11   -1510.2662117128      6.85E-09 Convergence criterion met
 Total energy in the final basis set = -1510.26621171

             Standard Nuclear Orientation (Angstroms)
    I     Atom           X                Y                Z
 ----------------------------------------------------------------
    1      O      -5.4844586649     1.3637960563    -0.3488484839
    2      C      -4.6793026492     0.4660346326    -0.6739638421
    3      C      -3.4164712149    -0.0172985724     0.1352936536
    4      C      -2.0199573786     0.4489775847    -0.4545027109
    5      C      -2.1737196919     1.2510710187    -1.7990066566
    6      O      -1.0411545619     1.4528396294    -2.6623345272
    7      C       0.2830399004     1.0495168143    -2.1370162714
    8      C       0.5448919796    -0.5153639926    -2.1843358903
    9      O       1.8361174993    -0.9109802399    -2.7960652316
   10      C       3.0041155393    -0.8390706874    -1.9549052091
   11      C       3.0932688073     0.2573296713    -0.8137113757
   12      C       2.5152318770    -0.1479320301     0.6138675282
   13      C       1.8962152942    -1.5826717837     0.6582328746
   14      O       0.6844692454    -1.8578558614     0.4412780400
   15      O      -4.8622525816    -0.4352880961    -1.7783656909
   16      O       2.8828239153    -2.5515100257     0.9572890400
   17      O       3.9686398673    -1.5704147231    -2.2703098008
   18      C       2.2926313181    -3.9138320912     0.9391467718
   19      C       4.6168949952     0.5229632696    -0.4416918031
   20      C       4.7054625905     1.9098360612     0.3081899553
   21      C       4.1106322260     1.5315441147     1.7148829264
   22      C       3.8140412993    -0.0074356479     1.5159399134
   23      O       4.8984090826    -0.4665630520     0.6215384237
   24      H       2.6163423471     1.1846037207    -1.1697250921
   25      H       1.7221470332     0.5564083893     0.9216830258
   26      H       5.3157763256     0.3865243446    -1.2890509097
   27      H       5.7547962346     2.2353382073     0.3883202989
   28      H       4.1297628743     2.6986851565    -0.2018506617
   29      H       4.8478069796     1.6789697958     2.5197806343
   30      H       3.1998959227     2.1008752004     1.9606648921
   31      H       3.7908891654    -0.6113359115     2.4431744893
   32      O      -3.2604658869     1.7269506061    -2.2030817752
   33      C      -6.0101175716     0.0099505960    -2.5981611476
   34      C      -3.3837606111     0.6533285597     1.5681295689
   35      C      -2.3638628967    -0.1387899289     2.4759742788
   36      C      -0.9883177821     0.3360387762     1.8782830910
   37      C      -1.4787722762     1.3363087417     0.7578476650
   38      O      -2.7000244871     1.9441324450     1.3211255190
   39      H      -3.4528154187    -1.1198246563     0.1946442057
   40      H      -1.3711118637    -0.4251774828    -0.6136914548
   41      H      -5.8181893695     1.0057480327    -3.0478917450
   42      H      -4.3850373033     0.8295370666     2.0062743000
   43      H      -2.4725478743     0.1610106121     3.5303922329
   44      H      -2.5046075208    -1.2289186124     2.4010933354
   45      H      -0.3801752089     0.8623925839     2.6309627352
   46      H      -0.4018740673    -0.4976958717     1.4479576232
   47      H      -0.7583993289     2.1291509770     0.4785590738
   48      H      -6.9438815194     0.0658607726    -2.0018295415
   49      H      -6.1265271791    -0.7419699062    -3.4002975073
   50      H       3.1265435290    -4.6039703162     1.1621084204
   51      H       1.8640114565    -4.1516409215    -0.0553049338
   52      H       1.4996988916    -4.0203700392     1.7069987767
   53      H       0.4347759913    -0.9738513600    -1.1727501381
   54      H      -0.2150932725    -0.9599448809    -2.8602934591
   55      H       0.4468644232     1.4427445346    -1.1147407370
   56      H       1.0015032665     1.5466220631    -2.8221038413
 ----------------------------------------------------------------

   10   -1510.2662120569      6.63E-09 Convergence criterion met
 Total energy in the final basis set = -1510.26621206
 Final energy is   -1510.26621205689
 **  OPTIMIZATION CONVERGED  **

                    Orbital Energies (a.u.)
 --------------------------------------------------------------

 Alpha MOs
 -- Occupied --
-18.973 -18.943 -18.936 -18.914 -18.905 -18.901 -18.891 -18.889
-18.887 -18.856 -10.131 -10.109 -10.108 -10.087 -10.086 -10.085
-10.075 -10.072 -10.070 -10.066 -10.060 -10.058 -10.052 -10.049
-10.041 -10.032 -10.032 -10.031 -10.020 -10.017  -1.043  -1.016
 -1.012  -0.993  -0.983  -0.973  -0.966  -0.947  -0.941  -0.919
 -0.779  -0.764  -0.737  -0.722  -0.720  -0.716  -0.707  -0.681
 -0.651  -0.626  -0.612  -0.595  -0.562  -0.551  -0.548  -0.540
 -0.530  -0.518  -0.503  -0.484  -0.481  -0.460  -0.456  -0.451
 -0.445  -0.441  -0.436  -0.432  -0.427  -0.415  -0.410  -0.405
 -0.399  -0.397  -0.393  -0.383  -0.374  -0.362  -0.361  -0.354
 -0.349  -0.347  -0.345  -0.333  -0.332  -0.328  -0.325  -0.322
 -0.318  -0.315  -0.312  -0.310  -0.303  -0.298  -0.290  -0.279
 -0.277  -0.272  -0.250  -0.246  -0.244  -0.240  -0.237  -0.206
 -0.193  -0.184  -0.167  -0.160  -0.159  -0.156  -0.156  -0.146
 -0.137

          Ground-State Mulliken Net Atomic Charges

     Atom                 Charge (a.u.)
  ----------------------------------------
      1 O                    -0.217329
      2 C                     0.216611
      3 C                    -0.079827
      4 C                    -0.088142
      5 C                     0.211878
      6 O                    -0.165939
      7 C                    -0.055075
      8 C                    -0.071077
      9 O                    -0.171883
     10 C                     0.202091
     11 C                    -0.086171
     12 C                    -0.082273
     13 C                     0.215616
     14 O                    -0.222108
     15 O                    -0.178049
     16 O                    -0.149880
     17 O                    -0.190944
     18 C                    -0.126196
     19 C                     0.027118
     20 C                    -0.144384
     21 C                    -0.144417
     22 C                     0.027138
     23 O                    -0.181816
     24 H                     0.080497
     25 H                     0.084075
     26 H                     0.092977
     27 H                     0.081471
     28 H                     0.073512
     29 H                     0.081153
     30 H                     0.073269
     31 H                     0.087740
     32 O                    -0.190514
     33 C                    -0.128564
     34 C                     0.025601
     35 C                    -0.144395
     36 C                    -0.155866
     37 C                     0.022164
     38 O                    -0.186570
     39 H                     0.084110
     40 H                     0.087247
     41 H                     0.092951
     42 H                     0.090029
     43 H                     0.076772
     44 H                     0.073817
     45 H                     0.069513
     46 H                     0.083623
     47 H                     0.073055
     48 H                     0.085787
     49 H                     0.085375
     50 H                     0.101132
     51 H                     0.097326
     52 H                     0.093460
     53 H                     0.098380
     54 H                     0.094383
     55 H                     0.077271
     56 H                     0.094274
  ----------------------------------------
  Sum of atomic charges =     0.000000

                    Cartesian Multipole Moments
 -----------------------------------------------------------------
    Charge (ESU x 10^10)
                 0.0000
    Dipole Moment (Debye)
         X       2.3950      Y      -1.3881      Z       3.0004
       Tot       4.0823
    Quadrupole Moments (Debye-Ang)
        XX    -180.3926     XY      21.5179     YY    -160.6476
        XZ       5.3968     YZ      -4.4073     ZZ    -164.8472

 Total job time:  178.45s(wall), 8516.40s(cpu)
        *  Thank you very much for using Q-Chem.  Have a nice day.  *
