 Q-Chem 5.0, Q-Chem, Inc., Pleasanton, CA (2017)
 Q-Chem 5.0.1 for Intel X86 EM64T Linux

User input:
--------------------------------------------------------------
$molecule
0  1
O -3.94934 -3.66094 2.70899
C -3.26408 -4.56952 2.26188
C -3.36658 -6.02376 2.66595
C -2.09215 -6.69516 3.20345
C -0.90361 -5.79095 3.44399
O -1.29816 -4.67922 4.13233
C -0.33711 -4.24595 5.10078
C 0.47803 -5.43424 5.60044
O -0.39777 -6.52188 5.93644
C -0.91859 -6.48586 7.18807
C -2.36573 -6.05466 7.21099
C -2.66181 -4.82774 8.08579
C -1.45687 -4.01228 8.50988
O -1.48787 -2.85794 8.91127
O -2.30718 -4.26176 1.34213
O -0.32124 -4.67153 8.85955
O -0.38784 -7.08016 8.11563
C 0.82654 -4.08765 9.35968
C -3.22371 -5.42349 6.07069
C -4.73575 -5.66153 6.2943
C -5.02629 -4.64009 7.35183
C -3.67097 -3.94761 7.39207
O -3.16975 -4.02131 6.11394
H -2.9289 -6.9604 7.52929
H -3.05525 -5.17632 9.06741
H -2.88724 -5.76035 5.17573
H -5.25265 -5.32307 5.36873
H -5.06357 -6.69419 6.54079
H -5.8277 -3.95579 6.99384
H -5.29394 -5.05521 8.34811
H -3.7589 -2.9307 7.83318
O 0.13782 -5.84016 2.79697
C -2.05329 -2.98816 0.87857
C -4.47285 -6.95436 3.24564
C -4.5277 -8.287 2.47131
C -3.24383 -8.96564 2.96855
C -2.71757 -7.91005 3.9642
O -3.95095 -7.44562 4.45574
H -3.4566 -6.32611 1.59698
H -1.63338 -7.22617 2.3372
H -1.75031 -2.32898 1.72006
H -5.46785 -6.46408 3.29026
H -5.3983 -8.8677 2.85198
H -4.62273 -8.19572 1.36788
H -3.53381 -9.88133 3.53114
H -2.51737 -9.25033 2.17752
H -2.01822 -8.35759 4.70107
H -2.95695 -2.57427 0.38222
H -1.22628 -3.02819 0.14046
H 1.58655 -4.87577 9.53711
H 0.61174 -3.57531 10.32154
H 1.23265 -3.35889 8.62582
H 1.21966 -5.79238 4.8597
H 1.10763 -5.12645 6.4655
H -0.85325 -3.77425 5.94803
H 0.32998 -3.46975 4.66951
$end

$opt
CONSTRAINT
tors           1           2           3           4    -123.158
tors           3           4           5           6     +47.368
tors           4           5           6           7    +142.105
tors           5           6           7           8     -28.421
tors           6           7           8           9     -47.368
tors           7           8           9          10     -85.263
tors           8           9          10          11    +104.211
tors           9          10          11          12    -123.158
tors          11          12          13          14    +161.053
ENDCONSTRAINT
$end

$rem
JOBTYPE                   OPT
METHOD                    B3LYP
DFT_D                     d3_op
BASIS                     STO-3G
GEOM_OPT_MAX_CYCLES       100
GEOM_OPT_TOL_GRADIENT     300
GEOM_OPT_TOL_DISPLACEMENT 1200
GEOM_OPT_TOL_ENERGY       100
SYMMETRY                  False
THRESH                    12
SCF_CONVERGENCE           8
MAX_SUB_FILE_NUM          128
MEM_STATIC                400
MEM_TOTAL                 4000
$end
--------------------------------------------------------------

   16   -1510.0047038359      1.64E-09 Convergence criterion met
 Total energy in the final basis set = -1510.00470384
   14   -1510.0906023884      3.01E-09 Convergence criterion met
 Total energy in the final basis set = -1510.09060239
   14   -1510.1467856619      4.31E-09 Convergence criterion met
 Total energy in the final basis set = -1510.14678566
   14   -1510.1831638769      2.29E-09 Convergence criterion met
 Total energy in the final basis set = -1510.18316388
   13   -1510.2054664903      6.82E-09 Convergence criterion met
 Total energy in the final basis set = -1510.20546649
   13   -1510.2203692162      7.36E-09 Convergence criterion met
 Total energy in the final basis set = -1510.22036922
   13   -1510.2310447825      5.46E-09 Convergence criterion met
 Total energy in the final basis set = -1510.23104478
   13   -1510.2387850283      5.56E-09 Convergence criterion met
   12   -1510.2512407872      5.26E-09 Convergence criterion met
 Total energy in the final basis set = -1510.25124079
   11   -1510.2512897829      8.31E-09 Convergence criterion met
 Total energy in the final basis set = -1510.25128978
   11   -1510.2513243272      8.27E-09 Convergence criterion met
 Total energy in the final basis set = -1510.25132433
   11   -1510.2513446088      4.51E-09 Convergence criterion met
 Total energy in the final basis set = -1510.25134461
   11   -1510.2513521937      3.35E-09 Convergence criterion met
 Total energy in the final basis set = -1510.25135219
   10   -1510.2513548616      9.42E-09 Convergence criterion met
 Total energy in the final basis set = -1510.25135486

             Standard Nuclear Orientation (Angstroms)
    I     Atom           X                Y                Z
 ----------------------------------------------------------------
    1      O      -2.7531982543     0.0171422445     2.2724279150
    2      C      -3.0176649624     0.6533418350     1.2302528312
    3      C      -3.5200226371     0.0678921611    -0.1383341779
    4      C      -2.5945379354     0.4343188646    -1.3707064583
    5      C      -1.5167965775     1.5627972154    -1.1915233390
    6      O      -0.6896348535     1.4997638138    -0.0105505408
    7      C       0.7312673346     1.9060700132    -0.2720576823
    8      C       1.1815601413     1.6209425110    -1.7521087824
    9      O       0.7440060633     0.2256002788    -2.0475790837
   10      C       1.8387851161    -0.6400726263    -1.5386687145
   11      C       1.7226368982    -1.4669550253    -0.1896444818
   12      C       2.8831525514    -1.1355478049     0.8705032179
   13      C       3.8017701299     0.1442501701     0.7459116055
   14      O       4.4605059593     0.6095950278     1.7032545338
   15      O      -3.0083857833     2.0792075718     1.1207529499
   16      O       3.8382454980     0.7163097167    -0.5621241135
   17      O       2.7973886709    -0.8693514886    -2.3091224144
   18      C       4.7472854451     1.8876018823    -0.5722679549
   19      C       0.4441063488    -1.2938033726     0.7375560118
   20      C       0.3287484850    -2.5826163257     1.6399448625
   21      C       1.4892716194    -2.3548557925     2.6731441026
   22      C       2.0361793431    -0.9565505126     2.2001242775
   23      O       0.8368384852    -0.2405999337     1.7050540264
   24      H       1.8281186308    -2.5231843872    -0.4987865636
   25      H       3.5710810569    -1.9984084803     0.9512153452
   26      H      -0.5169926649    -1.0681146316     0.2242076505
   27      H      -0.6552595093    -2.5980894470     2.1348836332
   28      H       0.4457092103    -3.5113939568     1.0594706491
   29      H       1.1114389571    -2.2919868475     3.7059078089
   30      H       2.2655893361    -3.1355017688     2.6274588193
   31      H       2.5640354531    -0.3610659354     2.9706713776
   32      O      -1.4042255307     2.4717855361    -2.0503857621
   33      C      -2.4235451109     2.6737646792     2.3436835254
   34      C      -3.4136063130    -1.5082123507    -0.1571187686
   35      C      -4.1859768766    -2.0687350099    -1.4163299136
   36      C      -3.1735444819    -1.7390466458    -2.5804350816
   37      C      -2.0356515298    -0.9906507950    -1.7869215443
   38      O      -1.9921794220    -1.7395756093    -0.5125193640
   39      H      -4.5537046095     0.4190657741    -0.3098379202
   40      H      -3.2272321012     0.8186679641    -2.1910169004
   41      H      -1.3678039466     2.3576313563     2.4687828157
   42      H      -3.6472518913    -1.9908222217     0.8118302091
   43      H      -4.3480193359    -3.1538755476    -1.3178720342
   44      H      -5.1625650216    -1.5773355262    -1.5534913571
   45      H      -2.7789084188    -2.6584944023    -3.0419251136
   46      H      -3.6168156198    -1.1090423088    -3.3677221312
   47      H      -1.0289092794    -0.9486737206    -2.2506058021
   48      H      -2.9936771397     2.3870965739     3.2508800650
   49      H      -2.4705182693     3.7693099098     2.2039946490
   50      H       4.7863645840     2.2292338745    -1.6230374400
   51      H       5.7655054760     1.6155474357    -0.2292331577
   52      H       4.3634157387     2.7048440449     0.0720856035
   53      H       0.6389341787     2.2869720858    -2.4507673566
   54      H       2.2785221894     1.7492879859    -1.8495078422
   55      H       1.2831079146     1.2788588726     0.4641340580
   56      H       0.8681866829     2.9835915891    -0.0278305265
 ----------------------------------------------------------------

   10   -1510.2513557637      6.24E-09 Convergence criterion met
 Total energy in the final basis set = -1510.25135576
 Final energy is   -1510.25135576369
 **  OPTIMIZATION CONVERGED  **

                    Orbital Energies (a.u.)
 --------------------------------------------------------------

 Alpha MOs
 -- Occupied --
-18.946 -18.928 -18.911 -18.901 -18.900 -18.892 -18.884 -18.877
-18.871 -18.864 -10.105 -10.100 -10.095 -10.092 -10.072 -10.064
-10.060 -10.060 -10.057 -10.054 -10.053 -10.039 -10.038 -10.035
-10.034 -10.034 -10.024 -10.022 -10.013 -10.006  -1.021  -1.007
 -1.001  -0.991  -0.980  -0.965  -0.942  -0.931  -0.929  -0.917
 -0.765  -0.756  -0.724  -0.715  -0.709  -0.698  -0.690  -0.668
 -0.656  -0.606  -0.597  -0.582  -0.548  -0.542  -0.538  -0.528
 -0.511  -0.503  -0.485  -0.469  -0.467  -0.452  -0.445  -0.439
 -0.431  -0.429  -0.424  -0.419  -0.416  -0.409  -0.405  -0.399
 -0.387  -0.383  -0.371  -0.366  -0.358  -0.353  -0.350  -0.344
 -0.343  -0.341  -0.336  -0.332  -0.328  -0.323  -0.314  -0.310
 -0.307  -0.303  -0.300  -0.296  -0.292  -0.290  -0.285  -0.272
 -0.267  -0.264  -0.249  -0.238  -0.233  -0.227  -0.226  -0.186
 -0.172  -0.165  -0.160  -0.154  -0.152  -0.150  -0.149  -0.140
 -0.136

          Ground-State Mulliken Net Atomic Charges

     Atom                 Charge (a.u.)
  ----------------------------------------
      1 O                    -0.211510
      2 C                     0.215653
      3 C                    -0.080152
      4 C                    -0.080520
      5 C                     0.212638
      6 O                    -0.178567
      7 C                    -0.059997
      8 C                    -0.062924
      9 O                    -0.194403
     10 C                     0.211757
     11 C                    -0.083867
     12 C                    -0.079795
     13 C                     0.205558
     14 O                    -0.215674
     15 O                    -0.170098
     16 O                    -0.169670
     17 O                    -0.180189
     18 C                    -0.128280
     19 C                     0.006966
     20 C                    -0.142626
     21 C                    -0.145162
     22 C                     0.022423
     23 O                    -0.193047
     24 H                     0.086813
     25 H                     0.086200
     26 H                     0.117753
     27 H                     0.081094
     28 H                     0.070245
     29 H                     0.078047
     30 H                     0.071377
     31 H                     0.087313
     32 O                    -0.215816
     33 C                    -0.126978
     34 C                     0.025940
     35 C                    -0.143963
     36 C                    -0.142390
     37 C                     0.020098
     38 O                    -0.189816
     39 H                     0.086345
     40 H                     0.085990
     41 H                     0.096907
     42 H                     0.091223
     43 H                     0.078805
     44 H                     0.074972
     45 H                     0.078935
     46 H                     0.076630
     47 H                     0.100326
     48 H                     0.087461
     49 H                     0.088620
     50 H                     0.093001
     51 H                     0.094479
     52 H                     0.089475
     53 H                     0.103984
     54 H                     0.090753
     55 H                     0.102250
     56 H                     0.075413
  ----------------------------------------
  Sum of atomic charges =     0.000000

                    Cartesian Multipole Moments
 -----------------------------------------------------------------
    Charge (ESU x 10^10)
                 0.0000
    Dipole Moment (Debye)
         X      -0.6206      Y      -0.5128      Z      -0.0108
       Tot       0.8051
    Quadrupole Moments (Debye-Ang)
        XX    -150.1246     XY       5.9105     YY    -153.4896
        XZ       2.2732     YZ       2.3593     ZZ    -167.3445

 Total job time:  71.50s(wall), 3406.05s(cpu)
        *  Thank you very much for using Q-Chem.  Have a nice day.  *
