 Q-Chem 5.0, Q-Chem, Inc., Pleasanton, CA (2017)
 Q-Chem 5.0.1 for Intel X86 EM64T Linux

User input:
--------------------------------------------------------------
$molecule
0  1
O -2.7531982543 0.0171422445 2.272427915
C -3.0176649624 0.653341835 1.2302528312
C -3.5200226371 0.0678921611 -0.1383341779
C -2.5945379354 0.4343188646 -1.3707064583
C -1.5167965775 1.5627972154 -1.191523339
O -0.6896348535 1.4997638138 -0.0105505408
C 0.7312673346 1.9060700132 -0.2720576823
C 1.1815601413 1.620942511 -1.7521087824
O 0.7440060633 0.2256002788 -2.0475790837
C 1.8387851161 -0.6400726263 -1.5386687145
C 1.7226368982 -1.4669550253 -0.1896444818
C 2.8831525514 -1.1355478049 0.8705032179
C 3.8017701299 0.1442501701 0.7459116055
O 4.4605059593 0.6095950278 1.7032545338
O -3.0083857833 2.0792075718 1.1207529499
O 3.838245498 0.7163097167 -0.5621241135
O 2.7973886709 -0.8693514886 -2.3091224144
C 4.7472854451 1.8876018823 -0.5722679549
C 0.4441063488 -1.2938033726 0.7375560118
C 0.328748485 -2.5826163257 1.6399448625
C 1.4892716194 -2.3548557925 2.6731441026
C 2.0361793431 -0.9565505126 2.2001242775
O 0.8368384852 -0.2405999337 1.7050540264
H 1.8281186308 -2.5231843872 -0.4987865636
H 3.5710810569 -1.9984084803 0.9512153452
H -0.5169926649 -1.0681146316 0.2242076505
H -0.6552595093 -2.598089447 2.1348836332
H 0.4457092103 -3.5113939568 1.0594706491
H 1.1114389571 -2.2919868475 3.7059078089
H 2.2655893361 -3.1355017688 2.6274588193
H 2.5640354531 -0.3610659354 2.9706713776
O -1.4042255307 2.4717855361 -2.0503857621
C -2.4235451109 2.6737646792 2.3436835254
C -3.413606313 -1.5082123507 -0.1571187686
C -4.1859768766 -2.0687350099 -1.4163299136
C -3.1735444819 -1.7390466458 -2.5804350816
C -2.0356515298 -0.990650795 -1.7869215443
O -1.992179422 -1.7395756093 -0.512519364
H -4.5537046095 0.4190657741 -0.3098379202
H -3.2272321012 0.8186679641 -2.1910169004
H -1.3678039466 2.3576313563 2.4687828157
H -3.6472518913 -1.9908222217 0.8118302091
H -4.3480193359 -3.1538755476 -1.3178720342
H -5.1625650216 -1.5773355262 -1.5534913571
H -2.7789084188 -2.6584944023 -3.0419251136
H -3.6168156198 -1.1090423088 -3.3677221312
H -1.0289092794 -0.9486737206 -2.2506058021
H -2.9936771397 2.3870965739 3.250880065
H -2.4705182693 3.7693099098 2.203994649
H 4.786364584 2.2292338745 -1.62303744
H 5.765505476 1.6155474357 -0.2292331577
H 4.3634157387 2.7048440449 0.0720856035
H 0.6389341787 2.2869720858 -2.4507673566
H 2.2785221894 1.7492879859 -1.8495078422
H 1.2831079146 1.2788588726 0.464134058
H 0.8681866829 2.9835915891 -0.0278305265
$end

$rem
JOBTYPE                   OPT
METHOD                    B3LYP
DFT_D                     d3_op
BASIS                     STO-3G
GEOM_OPT_MAX_CYCLES       100
GEOM_OPT_TOL_GRADIENT     300
GEOM_OPT_TOL_DISPLACEMENT 1200
GEOM_OPT_TOL_ENERGY       100
SYMMETRY                  False
THRESH                    12
SCF_CONVERGENCE           8
MAX_SUB_FILE_NUM          128
MEM_STATIC                400
MEM_TOTAL                 4000
$end
--------------------------------------------------------------

   16   -1510.2514787206      5.64E-09 Convergence criterion met
 Total energy in the final basis set = -1510.25147872
   15   -1510.2509636928      2.51E-09 Convergence criterion met
 Total energy in the final basis set = -1510.25096369
   14   -1510.2604980285      1.69E-09 Convergence criterion met
 Total energy in the final basis set = -1510.26049803
   15   -1510.2610543179      2.91E-09 Convergence criterion met
 Total energy in the final basis set = -1510.26105432
   15   -1510.2369234944      4.37E-09 Convergence criterion met
 Total energy in the final basis set = -1510.23692349
   14   -1510.2523682671      5.64E-09 Convergence criterion met
 Total energy in the final basis set = -1510.25236827
   15   -1510.2638614574      2.96E-09 Convergence criterion met
 Total energy in the final basis set = -1510.26386146
   13   -1510.2705981882      8.43E-09 Convergence criterion met
   10   -1510.2961129498      9.97E-09 Convergence criterion met
 Total energy in the final basis set = -1510.29611295
   11   -1510.2961176096      2.62E-09 Convergence criterion met
 Total energy in the final basis set = -1510.29611761
   10   -1510.2961200534      8.43E-09 Convergence criterion met
 Total energy in the final basis set = -1510.29612005
   10   -1510.2961206234      7.99E-09 Convergence criterion met
 Total energy in the final basis set = -1510.29612062
    9   -1510.2961217348      5.82E-09 Convergence criterion met
 Total energy in the final basis set = -1510.29612173
   10   -1510.2961232737      6.89E-09 Convergence criterion met
 Total energy in the final basis set = -1510.29612327

             Standard Nuclear Orientation (Angstroms)
    I     Atom           X                Y                Z
 ----------------------------------------------------------------
    1      O       1.7848839217    -1.9820342313    -1.2626133873
    2      C       2.2442597319    -0.8211623746    -1.3426845731
    3      C       3.3020819009    -0.1845879540    -0.3730326329
    4      C       3.0153193769     1.3240672535     0.0221295365
    5      C       1.7710825281     2.0007169758    -0.6521776445
    6      O       0.6014304847     1.2858979318    -0.2385099709
    7      C      -0.6284935859     2.0815083393    -0.4516179661
    8      C      -1.0961368930     2.5414762571     0.9811302412
    9      O      -1.1093686839     1.3174327978     1.8238650729
   10      C      -2.3074979534     0.5830115161     1.5246402497
   11      C      -2.0262064101    -0.9589375711     1.4025152452
   12      C      -3.0251269225    -1.6203019051     0.3557656908
   13      C      -4.0003760275    -0.6055985485    -0.3437770580
   14      O      -5.2489101338    -0.6051070344    -0.2842807951
   15      O       1.8740367533     0.1285574349    -2.3387152280
   16      O      -3.2336377794     0.2590743199    -1.2123569317
   17      O      -3.4191726123     1.1272899539     1.3312690112
   18      C      -4.1341657037     1.2118556292    -1.8988895147
   19      C      -0.6196582293    -1.2622655143     0.7258842980
   20      C      -0.2728516540    -2.7869274586     0.9147351113
   21      C      -1.2816048125    -3.4687631266    -0.0800021352
   22      C      -1.9969161704    -2.2079763041    -0.6999347210
   23      O      -0.9419259892    -1.1717034535    -0.7212033269
   24      H      -2.1133160930    -1.4330370711     2.3977307108
   25      H      -3.6430608175    -2.4051449815     0.8256702460
   26      H       0.2016547605    -0.5565265891     0.9928821807
   27      H       0.7666965171    -2.9562957573     0.5909549142
   28      H      -0.3956226823    -3.1236105756     1.9563389503
   29      H      -0.7536913263    -4.0351333130    -0.8634609331
   30      H      -1.9955147073    -4.1397691445     0.4240529504
   31      H      -2.4170864766    -2.3534320243    -1.7138741848
   32      O       1.7563320521     3.0552046675    -1.3241435358
   33      C       0.6508352505    -0.3462150434    -3.0376200603
   34      C       3.1999376770    -0.8997646039     1.0365198592
   35      C       4.4706091486    -0.5412259296     1.8963984464
   36      C       4.1544644709     0.9463687748     2.3009110636
   37      C       2.7633004926     1.1685865040     1.5886075927
   38      O       2.1031144875    -0.1529363161     1.7019618619
   39      H       4.3091499173    -0.2893340375    -0.8172025214
   40      H       3.8922647190     1.9609130845    -0.1880779360
   41      H      -0.0906006898    -0.6943493063    -2.2762686465
   42      H       2.9478549181    -1.9755726144     0.9655647288
   43      H       4.5368513750    -1.1957725629     2.7797899534
   44      H       5.4014900923    -0.6350877726     1.3147711123
   45      H       4.0489038839     1.0545356967     3.3922067172
   46      H       4.9187057681     1.6564406481     1.9466800547
   47      H       2.1244609884     1.9557300728     2.0333240641
   48      H       0.8894894431    -1.1685027702    -3.7422591527
   49      H       0.2687009171     0.5235465464    -3.6020966417
   50      H      -3.9136077056     2.2409541590    -1.5520267437
   51      H      -5.1868008132     0.9540977721    -1.6640164730
   52      H      -3.9551014924     1.1467520443    -2.9897905700
   53      H      -0.3579957197     3.2321252512     1.4352836546
   54      H      -2.0957348895     3.0259632840     0.9455158288
   55      H      -1.3963710343     1.4032265751    -0.8919019922
   56      H      -0.4184772684     2.9430889787    -1.1212497714
 ----------------------------------------------------------------

    9   -1510.2961233650      6.47E-09 Convergence criterion met
 Total energy in the final basis set = -1510.29612336
 Final energy is   -1510.29612336497
 **  OPTIMIZATION CONVERGED  **

                    Orbital Energies (a.u.)
 --------------------------------------------------------------

 Alpha MOs
 -- Occupied --
-18.928 -18.925 -18.923 -18.922 -18.896 -18.889 -18.889 -18.870
-18.869 -18.868 -10.105 -10.097 -10.095 -10.095 -10.072 -10.063
-10.061 -10.059 -10.059 -10.052 -10.043 -10.038 -10.037 -10.036
-10.036 -10.034 -10.024 -10.023 -10.014 -10.007  -1.017  -1.009
 -1.002  -0.999  -0.975  -0.968  -0.943  -0.930  -0.929  -0.927
 -0.764  -0.758  -0.727  -0.718  -0.711  -0.705  -0.691  -0.652
 -0.647  -0.615  -0.596  -0.578  -0.546  -0.539  -0.539  -0.530
 -0.512  -0.503  -0.485  -0.472  -0.465  -0.457  -0.447  -0.439
 -0.436  -0.428  -0.425  -0.415  -0.409  -0.404  -0.403  -0.398
 -0.383  -0.381  -0.371  -0.365  -0.358  -0.352  -0.348  -0.345
 -0.343  -0.341  -0.335  -0.333  -0.327  -0.324  -0.319  -0.310
 -0.308  -0.306  -0.299  -0.297  -0.293  -0.288  -0.279  -0.272
 -0.271  -0.253  -0.250  -0.243  -0.238  -0.233  -0.224  -0.179
 -0.169  -0.166  -0.162  -0.157  -0.153  -0.152  -0.150  -0.145
 -0.141

          Ground-State Mulliken Net Atomic Charges

     Atom                 Charge (a.u.)
  ----------------------------------------
      1 O                    -0.214492
      2 C                     0.216090
      3 C                    -0.079406
      4 C                    -0.079648
      5 C                     0.216552
      6 O                    -0.176796
      7 C                    -0.061908
      8 C                    -0.049918
      9 O                    -0.174862
     10 C                     0.217986
     11 C                    -0.079314
     12 C                    -0.080184
     13 C                     0.215218
     14 O                    -0.214185
     15 O                    -0.171154
     16 O                    -0.178962
     17 O                    -0.203114
     18 C                    -0.137191
     19 C                     0.016072
     20 C                    -0.146120
     21 C                    -0.144123
     22 C                     0.028374
     23 O                    -0.192118
     24 H                     0.086969
     25 H                     0.085252
     26 H                     0.120416
     27 H                     0.087096
     28 H                     0.070598
     29 H                     0.080137
     30 H                     0.071788
     31 H                     0.081953
     32 O                    -0.219143
     33 C                    -0.145016
     34 C                     0.024217
     35 C                    -0.144112
     36 C                    -0.143637
     37 C                     0.027399
     38 O                    -0.186949
     39 H                     0.084909
     40 H                     0.084280
     41 H                     0.121055
     42 H                     0.089612
     43 H                     0.078628
     44 H                     0.074685
     45 H                     0.078532
     46 H                     0.074900
     47 H                     0.083365
     48 H                     0.077594
     49 H                     0.081680
     50 H                     0.081776
     51 H                     0.103227
     52 H                     0.082437
     53 H                     0.085970
     54 H                     0.093332
     55 H                     0.104452
     56 H                     0.095798
  ----------------------------------------
  Sum of atomic charges =    -0.000000

                    Cartesian Multipole Moments
 -----------------------------------------------------------------
    Charge (ESU x 10^10)
                -0.0000
    Dipole Moment (Debye)
         X       2.1980      Y      -0.3755      Z       0.6553
       Tot       2.3241
    Quadrupole Moments (Debye-Ang)
        XX    -162.7968     XY      -0.7287     YY    -157.4032
        XZ       8.7270     YZ       1.1225     ZZ    -157.2902

 Total job time:  167.84s(wall), 8013.71s(cpu)
        *  Thank you very much for using Q-Chem.  Have a nice day.  *
