 Q-Chem 5.0, Q-Chem, Inc., Pleasanton, CA (2017)
 Q-Chem 5.0.1 for Intel X86 EM64T Linux

User input:
--------------------------------------------------------------
$molecule
0  1
O -3.94934 -3.66094 2.70899
C -3.26408 -4.56952 2.26188
C -3.36658 -6.02376 2.66595
C -2.27333 -6.57303 3.59705
C -1.29943 -5.56331 4.16282
O -0.99461 -5.88596 5.45449
C -1.81868 -6.93009 5.9836
C -3.26174 -6.45113 6.10332
O -3.35226 -5.41231 7.09101
C -3.8856 -5.78415 8.28115
C -3.29453 -7.06696 8.81567
C -4.19418 -8.30324 8.67239
C -5.36509 -8.16167 7.72075
O -6.14487 -7.22057 7.69142
O -2.32425 -4.24255 1.32497
O -5.51582 -9.15498 6.80458
O -4.4397 -4.95737 8.99337
C -6.55724 -9.23 5.903
C -1.931 -7.80293 8.9668
C -1.81985 -8.621 10.27394
C -2.67201 -9.83224 9.93718
C -3.17146 -9.4473 8.54631
O -2.02986 -8.83589 8.0034
H -3.39214 -6.76621 9.88402
H -4.76059 -8.44347 9.62337
H -1.05962 -7.11177 8.94561
H -0.77039 -8.96683 10.40908
H -2.13215 -8.05813 11.17966
H -2.00529 -10.71705 9.82422
H -3.47106 -10.06948 10.67229
H -3.563 -10.33639 8.00802
O -0.68329 -4.71828 3.53172
C -2.10086 -2.96588 0.85277
C -4.61996 -6.91391 2.73522
C -4.49041 -8.09507 1.77848
C -3.28407 -8.78458 2.41039
C -3.13525 -7.97965 3.74101
O -4.46735 -7.57808 3.95053
H -2.96677 -6.34003 1.6719
H -1.46364 -7.00803 2.96436
H -1.79909 -2.2971 1.687
H -5.5704 -6.34899 2.63187
H -5.40074 -8.7213 1.92213
H -4.37937 -7.85331 0.69928
H -3.56817 -9.8473 2.58283
H -2.34807 -8.74747 1.81321
H -2.80364 -8.77057 4.43271
H -3.019 -2.57144 0.36733
H -1.28363 -2.99323 0.10325
H -6.42278 -10.12762 5.26537
H -6.57619 -8.32859 5.25578
H -7.52337 -9.31559 6.4445
H -3.77204 -5.9618 5.27106
H -3.80004 -7.34671 6.30816
H -1.36894 -6.98857 6.92534
H -1.49047 -7.89418 5.57715
$end

$opt
CONSTRAINT
tors           1           2           3           4    -104.211
tors           3           4           5           6    +142.105
tors           4           5           6           7      -9.474
tors           5           6           7           8     -66.316
tors           6           7           8           9     -66.316
tors           7           8           9          10    -104.211
tors           8           9          10          11     +47.368
tors           9          10          11          12    -104.211
tors          11          12          13          14     -47.368
ENDCONSTRAINT
$end

$rem
JOBTYPE                   OPT
METHOD                    B3LYP
DFT_D                     d3_op
BASIS                     STO-3G
GEOM_OPT_MAX_CYCLES       100
GEOM_OPT_TOL_GRADIENT     300
GEOM_OPT_TOL_DISPLACEMENT 1200
GEOM_OPT_TOL_ENERGY       100
SYMMETRY                  False
THRESH                    12
SCF_CONVERGENCE           8
MAX_SUB_FILE_NUM          128
MEM_STATIC                400
MEM_TOTAL                 4000
$end
--------------------------------------------------------------

   16   -1509.9474982259      5.77E-09 Convergence criterion met
 Total energy in the final basis set = -1509.94749823
   14   -1510.0379258021      4.39E-09 Convergence criterion met
 Total energy in the final basis set = -1510.03792580
   14   -1510.0992341657      4.60E-09 Convergence criterion met
 Total energy in the final basis set = -1510.09923417
   14   -1510.1383035370      2.72E-09 Convergence criterion met
 Total energy in the final basis set = -1510.13830354
   13   -1510.1644073530      9.90E-09 Convergence criterion met
 Total energy in the final basis set = -1510.16440735
   13   -1510.1832018239      9.13E-09 Convergence criterion met
 Total energy in the final basis set = -1510.18320182
   13   -1510.1965682257      5.93E-09 Convergence criterion met
 Total energy in the final basis set = -1510.19656823
   13   -1510.2071306623      5.59E-09 Convergence criterion met
   10   -1510.2294445785      7.74E-09 Convergence criterion met
 Total energy in the final basis set = -1510.22944458
   10   -1510.2294587362      7.96E-09 Convergence criterion met
 Total energy in the final basis set = -1510.22945874
   10   -1510.2294692895      5.64E-09 Convergence criterion met
 Total energy in the final basis set = -1510.22946929
   10   -1510.2294744697      6.33E-09 Convergence criterion met
 Total energy in the final basis set = -1510.22947447
   10   -1510.2294766201      4.70E-09 Convergence criterion met
 Total energy in the final basis set = -1510.22947662
    9   -1510.2294824996      6.80E-09 Convergence criterion met
 Total energy in the final basis set = -1510.22948250

             Standard Nuclear Orientation (Angstroms)
    I     Atom           X                Y                Z
 ----------------------------------------------------------------
    1      O      -4.3480405041     0.8982667787     1.6710890939
    2      C      -4.5347004350     0.6343089737     0.4634272472
    3      C      -3.9463066153    -0.5752453441    -0.3487615721
    4      C      -2.7464471008    -0.2520299593    -1.3387379218
    5      C      -2.2557026394     1.2679288363    -1.1179247665
    6      O      -0.9307057849     1.7990075000    -1.1462844250
    7      C       0.2553514845     0.9197356712    -1.1974301652
    8      C       0.4377306462     0.0588157788     0.1169138359
    9      O       0.7521710189     0.8577985474     1.3332271163
   10      C       2.1130574288     0.8392224860     1.8043409225
   11      C       3.4089907537     1.0463654462     0.8967602393
   12      C       4.1981778126    -0.3037622359     0.5904131356
   13      C       3.3418596042    -1.5855065635     0.9021838953
   14      O       2.6778083074    -1.8024868375     1.9402960529
   15      O      -5.5789695166     1.2120214670    -0.3367896997
   16      O       3.4251443654    -2.5145342283    -0.1846040970
   17      O       2.2532227801     0.9044753921     3.0485948102
   18      C       2.6180645905    -3.7191369237     0.1199153328
   19      C       3.3702447087     1.7059608735    -0.5361848170
   20      C       4.8096106441     2.2795327055    -0.8496536225
   21      C       5.6111027450     0.9594690002    -1.1439340039
   22      C       4.4831235849    -0.1276331942    -0.9603613078
   23      O       3.2580846576     0.5479537048    -1.4573290995
   24      H       4.0429247118     1.6693093029     1.5537466433
   25      H       5.1308528920    -0.3628124425     1.1802380534
   26      H       2.5586643792     2.4398305235    -0.6905269611
   27      H       4.7708285967     2.9342217502    -1.7347985364
   28      H       5.2228074868     2.8521661560    -0.0042781678
   29      H       6.0008945759     0.9433134335    -2.1741675155
   30      H       6.4500129953     0.8063033855    -0.4465937112
   31      H       4.6409764884    -1.0805755633    -1.5000326079
   32      O      -3.1388577749     2.1359088214    -0.9073739820
   33      C      -6.1649586542     2.3725999602     0.3678072209
   34      C      -3.3240327749    -1.7494013119     0.5226885893
   35      C      -3.5785119844    -3.0787104942    -0.2822446808
   36      C      -2.6495366077    -2.8302249690    -1.5293443255
   37      C      -1.8541847165    -1.5320259338    -1.0900984599
   38      O      -1.8480967624    -1.6092404883     0.3905231706
   39      H      -4.7922605521    -0.9677780976    -0.9403132638
   40      H      -3.1215866772    -0.2616504765    -2.3812287108
   41      H      -5.4381101162     3.2082782736     0.4303972572
   42      H      -3.6159924531    -1.7467530681     1.5907852097
   43      H      -3.2429390808    -3.9526800181     0.2989884043
   44      H      -4.6372108605    -3.2142605175    -0.5545489741
   45      H      -1.9521781702    -3.6668838708    -1.6921382191
   46      H      -3.2227452553    -2.6653921010    -2.4559652908
   47      H      -0.8277181851    -1.4955640552    -1.4920303189
   48      H      -6.4899585432     2.1064187152     1.3944811831
   49      H      -7.0387122372     2.6881720795    -0.2315258685
   50      H       2.7081954333    -4.3763806160    -0.7644568613
   51      H       1.5518324057    -3.4630612224     0.2884461750
   52      H       2.9974291008    -4.2487882159     1.0173474313
   53      H      -0.5122761835    -0.4634346087     0.3856207222
   54      H       1.2228423591    -0.6956346772    -0.0920459664
   55      H       1.0938512627     1.6168289928    -1.3492780073
   56      H       0.2218255947     0.2360160667    -2.0739004194
 ----------------------------------------------------------------

    9   -1510.2294824007      5.45E-09 Convergence criterion met
 Total energy in the final basis set = -1510.22948240
 Final energy is   -1510.22948240071
 **  OPTIMIZATION CONVERGED  **

                    Orbital Energies (a.u.)
 --------------------------------------------------------------

 Alpha MOs
 -- Occupied --
-18.945 -18.936 -18.918 -18.912 -18.909 -18.893 -18.885 -18.873
-18.863 -18.861 -10.107 -10.104 -10.091 -10.089 -10.075 -10.074
-10.073 -10.068 -10.066 -10.065 -10.053 -10.050 -10.046 -10.044
-10.036 -10.036 -10.032 -10.029 -10.026 -10.025  -1.021  -1.009
 -0.996  -0.989  -0.986  -0.977  -0.945  -0.936  -0.923  -0.918
 -0.771  -0.767  -0.727  -0.727  -0.715  -0.711  -0.704  -0.669
 -0.652  -0.609  -0.600  -0.593  -0.557  -0.554  -0.548  -0.544
 -0.521  -0.513  -0.489  -0.479  -0.466  -0.463  -0.453  -0.445
 -0.440  -0.439  -0.426  -0.420  -0.417  -0.410  -0.405  -0.401
 -0.397  -0.394  -0.382  -0.369  -0.362  -0.358  -0.356  -0.349
 -0.343  -0.341  -0.339  -0.333  -0.331  -0.325  -0.318  -0.316
 -0.314  -0.313  -0.308  -0.299  -0.296  -0.285  -0.284  -0.276
 -0.275  -0.263  -0.249  -0.244  -0.243  -0.235  -0.220  -0.187
 -0.178  -0.168  -0.163  -0.161  -0.153  -0.149  -0.145  -0.139
 -0.134

          Ground-State Mulliken Net Atomic Charges

     Atom                 Charge (a.u.)
  ----------------------------------------
      1 O                    -0.215874
      2 C                     0.214337
      3 C                    -0.081353
      4 C                    -0.079715
      5 C                     0.209308
      6 O                    -0.165944
      7 C                    -0.048829
      8 C                    -0.072609
      9 O                    -0.172430
     10 C                     0.206651
     11 C                    -0.085688
     12 C                    -0.079694
     13 C                     0.203441
     14 O                    -0.203467
     15 O                    -0.170675
     16 O                    -0.170759
     17 O                    -0.194708
     18 C                    -0.129053
     19 C                     0.018292
     20 C                    -0.142444
     21 C                    -0.144385
     22 C                     0.021553
     23 O                    -0.199198
     24 H                     0.088371
     25 H                     0.088816
     26 H                     0.083771
     27 H                     0.078802
     28 H                     0.076694
     29 H                     0.078439
     30 H                     0.075085
     31 H                     0.092543
     32 O                    -0.200159
     33 C                    -0.128103
     34 C                     0.025827
     35 C                    -0.140581
     36 C                    -0.144360
     37 C                     0.019048
     38 O                    -0.188711
     39 H                     0.086317
     40 H                     0.084823
     41 H                     0.092690
     42 H                     0.096085
     43 H                     0.080076
     44 H                     0.077297
     45 H                     0.078554
     46 H                     0.076099
     47 H                     0.081928
     48 H                     0.087720
     49 H                     0.086162
     50 H                     0.090877
     51 H                     0.091313
     52 H                     0.092266
     53 H                     0.119687
     54 H                     0.076526
     55 H                     0.099484
     56 H                     0.079858
  ----------------------------------------
  Sum of atomic charges =    -0.000000

                    Cartesian Multipole Moments
 -----------------------------------------------------------------
    Charge (ESU x 10^10)
                -0.0000
    Dipole Moment (Debye)
         X       1.7869      Y      -3.4779      Z      -4.7160
       Tot       6.1262
    Quadrupole Moments (Debye-Ang)
        XX    -139.8854     XY       8.3771     YY    -152.5176
        XZ      -0.6505     YZ       1.7579     ZZ    -173.2617

 Total job time:  71.41s(wall), 3402.62s(cpu)
        *  Thank you very much for using Q-Chem.  Have a nice day.  *
