 Q-Chem 5.0, Q-Chem, Inc., Pleasanton, CA (2017)
 Q-Chem 5.0.1 for Intel X86 EM64T Linux

User input:
--------------------------------------------------------------
$molecule
0  1
O -4.3480405041 0.8982667787 1.6710890939
C -4.534700435 0.6343089737 0.4634272472
C -3.9463066153 -0.5752453441 -0.3487615721
C -2.7464471008 -0.2520299593 -1.3387379218
C -2.2557026394 1.2679288363 -1.1179247665
O -0.9307057849 1.7990075 -1.146284425
C 0.2553514845 0.9197356712 -1.1974301652
C 0.4377306462 0.0588157788 0.1169138359
O 0.7521710189 0.8577985474 1.3332271163
C 2.1130574288 0.839222486 1.8043409225
C 3.4089907537 1.0463654462 0.8967602393
C 4.1981778126 -0.3037622359 0.5904131356
C 3.3418596042 -1.5855065635 0.9021838953
O 2.6778083074 -1.8024868375 1.9402960529
O -5.5789695166 1.212021467 -0.3367896997
O 3.4251443654 -2.5145342283 -0.184604097
O 2.2532227801 0.9044753921 3.0485948102
C 2.6180645905 -3.7191369237 0.1199153328
C 3.3702447087 1.7059608735 -0.536184817
C 4.8096106441 2.2795327055 -0.8496536225
C 5.611102745 0.9594690002 -1.1439340039
C 4.4831235849 -0.1276331942 -0.9603613078
O 3.2580846576 0.5479537048 -1.4573290995
H 4.0429247118 1.6693093029 1.5537466433
H 5.130852892 -0.3628124425 1.1802380534
H 2.5586643792 2.4398305235 -0.6905269611
H 4.7708285967 2.9342217502 -1.7347985364
H 5.2228074868 2.852166156 -0.0042781678
H 6.0008945759 0.9433134335 -2.1741675155
H 6.4500129953 0.8063033855 -0.4465937112
H 4.6409764884 -1.0805755633 -1.5000326079
O -3.1388577749 2.1359088214 -0.907373982
C -6.1649586542 2.3725999602 0.3678072209
C -3.3240327749 -1.7494013119 0.5226885893
C -3.5785119844 -3.0787104942 -0.2822446808
C -2.6495366077 -2.830224969 -1.5293443255
C -1.8541847165 -1.5320259338 -1.0900984599
O -1.8480967624 -1.6092404883 0.3905231706
H -4.7922605521 -0.9677780976 -0.9403132638
H -3.1215866772 -0.2616504765 -2.3812287108
H -5.4381101162 3.2082782736 0.4303972572
H -3.6159924531 -1.7467530681 1.5907852097
H -3.2429390808 -3.9526800181 0.2989884043
H -4.6372108605 -3.2142605175 -0.5545489741
H -1.9521781702 -3.6668838708 -1.6921382191
H -3.2227452553 -2.665392101 -2.4559652908
H -0.8277181851 -1.4955640552 -1.4920303189
H -6.4899585432 2.1064187152 1.3944811831
H -7.0387122372 2.6881720795 -0.2315258685
H 2.7081954333 -4.376380616 -0.7644568613
H 1.5518324057 -3.4630612224 0.288446175
H 2.9974291008 -4.2487882159 1.0173474313
H -0.5122761835 -0.4634346087 0.3856207222
H 1.2228423591 -0.6956346772 -0.0920459664
H 1.0938512627 1.6168289928 -1.3492780073
H 0.2218255947 0.2360160667 -2.0739004194
$end

$rem
JOBTYPE                   OPT
METHOD                    B3LYP
DFT_D                     d3_op
BASIS                     STO-3G
GEOM_OPT_MAX_CYCLES       100
GEOM_OPT_TOL_GRADIENT     300
GEOM_OPT_TOL_DISPLACEMENT 1200
GEOM_OPT_TOL_ENERGY       100
SYMMETRY                  False
THRESH                    12
SCF_CONVERGENCE           8
MAX_SUB_FILE_NUM          128
MEM_STATIC                400
MEM_TOTAL                 4000
$end
--------------------------------------------------------------

   16   -1510.2294895057      6.67E-09 Convergence criterion met
 Total energy in the final basis set = -1510.22948951
   14   -1510.2334146946      3.86E-09 Convergence criterion met
 Total energy in the final basis set = -1510.23341469
   14   -1510.2401704878      3.10E-09 Convergence criterion met
 Total energy in the final basis set = -1510.24017049
   14   -1510.2460530982      7.74E-09 Convergence criterion met
 Total energy in the final basis set = -1510.24605310
   13   -1510.2526251498      9.01E-09 Convergence criterion met
 Total energy in the final basis set = -1510.25262515
   13   -1510.2538839833      8.66E-09 Convergence criterion met
 Total energy in the final basis set = -1510.25388398
   14   -1510.2570907802      5.61E-09 Convergence criterion met
 Total energy in the final basis set = -1510.25709078
   14   -1510.2276139823      6.50E-09 Convergence criterion met
   13   -1510.2709125049      1.53E-09 Convergence criterion met
 Total energy in the final basis set = -1510.27091250
   12   -1510.2709299925      6.25E-09 Convergence criterion met
 Total energy in the final basis set = -1510.27092999
   12   -1510.2709479275      5.42E-09 Convergence criterion met
 Total energy in the final basis set = -1510.27094793
   12   -1510.2709408282      2.82E-09 Convergence criterion met
 Total energy in the final basis set = -1510.27094083
   11   -1510.2709545955      6.91E-09 Convergence criterion met
 Total energy in the final basis set = -1510.27095460
   10   -1510.2709606278      8.60E-09 Convergence criterion met
 Total energy in the final basis set = -1510.27096063

             Standard Nuclear Orientation (Angstroms)
    I     Atom           X                Y                Z
 ----------------------------------------------------------------
    1      O      -4.8876216974    -1.5886452117     1.0408416391
    2      C      -4.4978948501    -0.7921248418     0.1608254160
    3      C      -3.3118980837    -1.0122518377    -0.8538170315
    4      C      -2.0951161690    -0.0025479659    -0.7137842609
    5      C      -2.2986349378     0.9397673553     0.5412402512
    6      O      -1.6548059925     2.2175300665     0.6226393926
    7      C      -0.4382047936     2.3905055517    -0.2004214801
    8      C       0.8122495718     1.6733341103     0.4376296935
    9      O       1.7119337932     2.7127556812     0.9910653197
   10      C       3.0866483554     2.3278209194     1.1382632929
   11      C       3.7854021968     1.2783768950     0.1561842751
   12      C       3.5613291599    -0.2705206481     0.4287870971
   13      C       2.5248145537    -0.5698566245     1.5727096486
   14      O       2.3775046276     0.0999028592     2.6197434649
   15      O      -5.1970458736     0.3997389221    -0.2333297962
   16      O       1.7566029425    -1.7185150279     1.2197839963
   17      O       3.7756475150     2.9817559200     1.9536638568
   18      C       0.7640937998    -2.0579426814     2.2734762823
   19      C       3.3891164763     1.3735721323    -1.3804336701
   20      C       4.5559593964     0.7564969777    -2.2402335704
   21      C       4.3684118566    -0.7821590754    -1.9566402372
   22      C       3.1125411261    -0.7739864062    -1.0039403399
   23      O       2.3085610469     0.3602228634    -1.5327367911
   24      H       4.8588430931     1.5111064065     0.2702088656
   25      H       4.5159513066    -0.7463938035     0.7200190233
   26      H       3.0282202962     2.3679241424    -1.7082268732
   27      H       4.4101348732     0.9895310742    -3.3072178536
   28      H       5.5435768520     1.1316290445    -1.9280350892
   29      H       4.1482961337    -1.3382756538    -2.8817662284
   30      H       5.2474337354    -1.2352424482    -1.4713371760
   31      H       2.5077235326    -1.7005086098    -0.9872646831
   32      O      -3.0964989031     0.6585178125     1.4677889210
   33      C      -6.3029243781     0.6636710291     0.7127683138
   34      C      -2.6038965145    -2.4052534225    -0.5956283404
   35      C      -1.8324263659    -2.8192350923    -1.9053062691
   36      C      -0.6403004389    -1.7911101951    -1.8825192355
   37      C      -0.9018740286    -1.0370726754    -0.5187721024
   38      O      -1.5091541636    -2.0680134509     0.3470805103
   39      H      -3.7286465480    -0.9589724352    -1.8758621154
   40      H      -1.9710606945     0.5992452335    -1.6304040518
   41      H      -5.9180744715     0.8631999768     1.7339086837
   42      H      -3.2704181512    -3.1709692155    -0.1529761720
   43      H      -1.4702986010    -3.8570802183    -1.8310410069
   44      H      -2.4602996470    -2.7253315935    -2.8055211275
   45      H       0.3354241608    -2.3010825413    -1.8512442875
   46      H      -0.6491647077    -1.1042290113    -2.7437845034
   47      H       0.0109235959    -0.6406943432    -0.0430974494
   48      H      -7.0129815025    -0.1872752825     0.7626794409
   49      H      -6.8256381064     1.5607558633     0.3328149179
   50      H       1.1094544868    -2.9549592764     2.8242367032
   51      H      -0.1988956631    -2.2700704705     1.7564876208
   52      H       0.6585342684    -1.2113100719     2.9801425651
   53      H       0.4536715881     1.0394876524     1.2769573842
   54      H       1.3227623554     1.0408044087    -0.3381293744
   55      H      -0.2573066176     3.4855916318    -0.2141247102
   56      H      -0.5886434654     2.0495706247    -1.2456185080
 ----------------------------------------------------------------

    9   -1510.2709606213      7.94E-09 Convergence criterion met
 Total energy in the final basis set = -1510.27096062
 Final energy is   -1510.27096062127
 **  OPTIMIZATION CONVERGED  **

                    Orbital Energies (a.u.)
 --------------------------------------------------------------

 Alpha MOs
 -- Occupied --
-18.943 -18.939 -18.928 -18.923 -18.916 -18.899 -18.887 -18.884
-18.870 -18.857 -10.111 -10.106 -10.098 -10.089 -10.082 -10.082
-10.077 -10.068 -10.063 -10.054 -10.051 -10.051 -10.050 -10.046
-10.045 -10.040 -10.039 -10.035 -10.028 -10.026  -1.022  -1.013
 -1.004  -0.997  -0.994  -0.980  -0.946  -0.942  -0.929  -0.922
 -0.781  -0.767  -0.738  -0.726  -0.724  -0.711  -0.706  -0.663
 -0.652  -0.609  -0.605  -0.596  -0.565  -0.557  -0.552  -0.544
 -0.529  -0.512  -0.488  -0.482  -0.479  -0.462  -0.461  -0.457
 -0.450  -0.437  -0.424  -0.419  -0.418  -0.407  -0.405  -0.400
 -0.396  -0.390  -0.386  -0.380  -0.364  -0.360  -0.357  -0.353
 -0.352  -0.347  -0.342  -0.336  -0.330  -0.329  -0.328  -0.322
 -0.319  -0.312  -0.309  -0.308  -0.302  -0.293  -0.286  -0.281
 -0.275  -0.268  -0.257  -0.246  -0.244  -0.241  -0.239  -0.185
 -0.183  -0.173  -0.168  -0.162  -0.157  -0.156  -0.152  -0.143
 -0.139

          Ground-State Mulliken Net Atomic Charges

     Atom                 Charge (a.u.)
  ----------------------------------------
      1 O                    -0.219149
      2 C                     0.217413
      3 C                    -0.079931
      4 C                    -0.082837
      5 C                     0.212512
      6 O                    -0.164387
      7 C                    -0.049857
      8 C                    -0.081695
      9 O                    -0.174510
     10 C                     0.209733
     11 C                    -0.087070
     12 C                    -0.081910
     13 C                     0.206525
     14 O                    -0.207083
     15 O                    -0.179052
     16 O                    -0.175822
     17 O                    -0.198459
     18 C                    -0.148399
     19 C                     0.021537
     20 C                    -0.142150
     21 C                    -0.142751
     22 C                     0.022848
     23 O                    -0.189004
     24 H                     0.090080
     25 H                     0.090313
     26 H                     0.088456
     27 H                     0.081827
     28 H                     0.080474
     29 H                     0.081639
     30 H                     0.079124
     31 H                     0.097268
     32 O                    -0.192006
     33 C                    -0.128518
     34 C                     0.026277
     35 C                    -0.143780
     36 C                    -0.143251
     37 C                     0.021216
     38 O                    -0.193222
     39 H                     0.082990
     40 H                     0.080574
     41 H                     0.093166
     42 H                     0.093829
     43 H                     0.078461
     44 H                     0.075042
     45 H                     0.076422
     46 H                     0.074493
     47 H                     0.086767
     48 H                     0.085994
     49 H                     0.086183
     50 H                     0.083468
     51 H                     0.114856
     52 H                     0.097894
     53 H                     0.078566
     54 H                     0.108682
     55 H                     0.100323
     56 H                     0.079893
  ----------------------------------------
  Sum of atomic charges =     0.000000

                    Cartesian Multipole Moments
 -----------------------------------------------------------------
    Charge (ESU x 10^10)
                 0.0000
    Dipole Moment (Debye)
         X       2.3810      Y      -2.4170      Z      -6.1790
       Tot       7.0492
    Quadrupole Moments (Debye-Ang)
        XX    -155.1511     XY     -10.0869     YY    -167.1173
        XZ      -3.6109     YZ      -7.9515     ZZ    -166.4244

 Total job time:  156.83s(wall), 7477.92s(cpu)
        *  Thank you very much for using Q-Chem.  Have a nice day.  *
