 Q-Chem 5.0, Q-Chem, Inc., Pleasanton, CA (2017)
 Q-Chem 5.0.1 for Intel X86 EM64T Linux

User input:
--------------------------------------------------------------
$molecule
0  1
O -3.94934 -3.66094 2.70899
C -3.26408 -4.56952 2.26188
C -3.36658 -6.02376 2.66595
C -2.97353 -6.38153 4.10864
C -2.69204 -5.22192 5.03825
O -2.77315 -5.63783 6.33665
C -2.94976 -4.5608 7.26297
C -3.49189 -5.08965 8.58681
O -4.88967 -4.78007 8.7019
C -5.23023 -3.50166 8.40386
C -6.26553 -3.40872 7.30833
C -6.56628 -4.73121 6.58803
C -6.07679 -5.9871 7.28072
O -5.93225 -6.12058 8.48731
O -2.38201 -4.28921 1.26639
O -6.30098 -7.12385 6.57105
O -4.78749 -2.53516 9.00739
C -6.23007 -8.4007 7.09445
C -7.66448 -3.01121 7.80254
C -8.45651 -2.39813 6.6489
C -8.70361 -3.62404 5.79127
C -8.10406 -4.71409 6.68764
O -8.32393 -4.23845 7.99532
H -5.88236 -2.65192 6.5868
H -6.18788 -4.73904 5.5452
H -7.64326 -2.32073 8.67372
H -9.42985 -2.05589 7.06812
H -7.96265 -1.54859 6.12991
H -9.80266 -3.76194 5.6862
H -8.22257 -3.60924 4.78914
H -8.55506 -5.7024 6.44808
O -2.39203 -4.08075 4.7122
C -2.1725 -3.02952 0.74541
C -4.81186 -6.54302 2.60749
C -4.81072 -8.05496 2.40392
C -4.29814 -8.51441 3.75083
C -4.22581 -7.17179 4.49387
O -5.26811 -6.41606 3.93026
H -2.7344 -6.59657 1.94877
H -2.08548 -7.0491 4.17274
H -1.81456 -2.34141 1.54092
H -5.4279 -6.0473 1.82526
H -5.87369 -8.37055 2.29937
H -4.23142 -8.41707 1.52745
H -5.06411 -9.179 4.20717
H -3.31381 -9.03042 3.7327
H -4.2361 -7.3625 5.57676
H -3.11316 -2.63656 0.30365
H -1.40166 -3.08836 -0.05009
H -6.45482 -9.13529 6.29496
H -6.97623 -8.52286 7.90824
H -5.21045 -8.59841 7.4893
H -3.2625 -6.1619 8.76659
H -2.99108 -4.51722 9.40077
H -3.4027 -3.63463 6.8482
H -1.90671 -4.2441 7.48906
$end

$opt
CONSTRAINT
tors           1           2           3           4     -66.316
tors           3           4           5           6    +161.053
tors           4           5           6           7    -161.053
tors           5           6           7           8    +161.053
tors           6           7           8           9    -104.211
tors           7           8           9          10     -47.368
tors           8           9          10          11    +123.158
tors           9          10          11          12      -9.474
tors          11          12          13          14     +28.421
ENDCONSTRAINT
$end

$rem
JOBTYPE                   OPT
METHOD                    B3LYP
DFT_D                     d3_op
BASIS                     STO-3G
GEOM_OPT_MAX_CYCLES       100
GEOM_OPT_TOL_GRADIENT     300
GEOM_OPT_TOL_DISPLACEMENT 1200
GEOM_OPT_TOL_ENERGY       100
SYMMETRY                  False
THRESH                    12
SCF_CONVERGENCE           8
MAX_SUB_FILE_NUM          128
MEM_STATIC                400
MEM_TOTAL                 4000
$end
--------------------------------------------------------------

   16   -1510.0167270383      4.31E-09 Convergence criterion met
 Total energy in the final basis set = -1510.01672704
   14   -1510.1075428676      5.63E-09 Convergence criterion met
 Total energy in the final basis set = -1510.10754287
   14   -1510.1668836022      6.78E-09 Convergence criterion met
 Total energy in the final basis set = -1510.16688360
   14   -1510.2039375512      8.48E-09 Convergence criterion met
 Total energy in the final basis set = -1510.20393755
   14   -1510.2247150791      5.46E-09 Convergence criterion met
 Total energy in the final basis set = -1510.22471508
   13   -1510.2373552182      8.70E-09 Convergence criterion met
 Total energy in the final basis set = -1510.23735522
   13   -1510.2447990781      3.53E-09 Convergence criterion met
 Total energy in the final basis set = -1510.24479908
   12   -1510.2494724602      9.65E-09 Convergence criterion met
   11   -1510.2572174475      6.00E-09 Convergence criterion met
 Total energy in the final basis set = -1510.25721745
    9   -1510.2572237241      9.64E-09 Convergence criterion met
 Total energy in the final basis set = -1510.25722372
    9   -1510.2572277443      6.39E-09 Convergence criterion met
 Total energy in the final basis set = -1510.25722774
    9   -1510.2572303391      5.13E-09 Convergence criterion met
 Total energy in the final basis set = -1510.25723034
    9   -1510.2572320942      2.57E-09 Convergence criterion met
 Total energy in the final basis set = -1510.25723209
    9   -1510.2572331778      3.07E-09 Convergence criterion met
 Total energy in the final basis set = -1510.25723318

             Standard Nuclear Orientation (Angstroms)
    I     Atom           X                Y                Z
 ----------------------------------------------------------------
    1      O       2.0996440396    -1.3671232409     1.3402981603
    2      C       3.1774878300    -1.0333373837     0.8017565100
    3      C       3.5694629935     0.3887257906     0.2544169491
    4      C       2.7048063434     0.8363428453    -0.9959645934
    5      C       1.8855394838    -0.3412413957    -1.6209221804
    6      O       0.8266209633     0.1919558112    -2.4232024526
    7      C      -0.2018770192    -0.8549707769    -2.6360970118
    8      C      -1.5270487507    -0.1177443727    -3.0729132320
    9      O      -2.5301954270    -0.0443876121    -1.9886417039
   10      C      -2.7110370493    -1.3181215480    -1.3330137171
   11      C      -2.4501882084    -1.2458627073     0.2208740519
   12      C      -1.8247867472     0.0666817870     0.8400774620
   13      C      -2.2998208916     1.4206927082     0.1963743212
   14      O      -3.3823257259     1.6907283281    -0.3622086662
   15      O       4.2965097904    -1.9102232225     0.6216869011
   16      O      -1.2252299307     2.3666678063     0.3436126934
   17      O      -2.9831502631    -2.3751145416    -1.9439843654
   18      C      -1.6312148622     3.6771228293    -0.2125650566
   19      C      -3.6645875549    -1.5330899726     1.2185604542
   20      C      -3.0601032108    -2.3665308399     2.4131283658
   21      C      -2.1198041226    -1.2817751694     3.0623465828
   22      C      -2.5399915070     0.0190680781     2.2648950460
   23      O      -3.9469265473    -0.2305116000     1.8607856259
   24      H      -1.7113690915    -2.0557185381     0.3752239757
   25      H      -0.7211342876     0.0428626812     0.8979743387
   26      H      -4.5757947963    -1.9490244773     0.7466611118
   27      H      -3.8600792650    -2.6709062918     3.1075238356
   28      H      -2.5173978342    -3.2647466912     2.0781797682
   29      H      -2.3176995382    -1.1597896060     4.1387972142
   30      H      -1.0506874138    -1.5120846621     2.9235798104
   31      H      -2.4635437399     0.9627085088     2.8393338976
   32      O       2.0609689800    -1.5656521491    -1.4286688229
   33      C       3.9321694495    -3.2790944600     1.0525360345
   34      C       3.1098061254     1.4781092753     1.3139589930
   35      C       3.6517703174     2.8993648828     0.8818758691
   36      C       2.6387212395     3.2839119440    -0.2606149915
   37      C       1.7816334130     1.9644572757    -0.3493158994
   38      O       1.6513331224     1.5545317519     1.0661116287
   39      H       4.6521392028     0.4114865447     0.0425476443
   40      H       3.3481951656     1.2711269642    -1.7831241860
   41      H       3.1002683122    -3.6834096720     0.4401380689
   42      H       3.3082408861     1.1989426718     2.3667620235
   43      H       3.6021253366     3.6065357177     1.7247476523
   44      H       4.6925764301     2.8482534049     0.5238964030
   45      H       2.0012393197     4.1322440554     0.0360050390
   46      H       3.1366560775     3.5297602889    -1.2121648304
   47      H       0.7761976180     2.0606938447    -0.8043783342
   48      H       3.6312527600    -3.3074467728     2.1198629018
   49      H       4.8360471606    -3.8985169049     0.9055484466
   50      H      -0.7523301697     4.3391952998    -0.1052320334
   51      H      -2.4902174429     4.1103708851     0.3394107629
   52      H      -1.9095487115     3.5972596955    -1.2833795387
   53      H      -1.2933538980     0.9352192356    -3.3334075593
   54      H      -1.9463317885    -0.6219588164    -3.9733968090
   55      H      -0.3473294201    -1.4496889345    -1.7109358472
   56      H       0.1238518316    -1.5575237831    -3.4349756036
 ----------------------------------------------------------------

    9   -1510.2572337626      3.29E-09 Convergence criterion met
 Total energy in the final basis set = -1510.25723376
 Final energy is   -1510.25723376264
 **  OPTIMIZATION CONVERGED  **

                    Orbital Energies (a.u.)
 --------------------------------------------------------------

 Alpha MOs
 -- Occupied --
-18.941 -18.927 -18.924 -18.914 -18.890 -18.888 -18.888 -18.883
-18.865 -18.861 -10.108 -10.106 -10.093 -10.088 -10.080 -10.079
-10.060 -10.058 -10.058 -10.057 -10.056 -10.054 -10.041 -10.036
-10.033 -10.030 -10.022 -10.021 -10.015 -10.014  -1.023  -1.009
 -1.002  -0.999  -0.970  -0.966  -0.948  -0.938  -0.927  -0.923
 -0.764  -0.757  -0.727  -0.719  -0.715  -0.701  -0.695  -0.659
 -0.657  -0.618  -0.597  -0.585  -0.546  -0.540  -0.538  -0.532
 -0.518  -0.507  -0.481  -0.474  -0.463  -0.456  -0.455  -0.441
 -0.434  -0.433  -0.424  -0.412  -0.408  -0.406  -0.404  -0.402
 -0.399  -0.379  -0.372  -0.364  -0.360  -0.358  -0.352  -0.349
 -0.348  -0.336  -0.331  -0.331  -0.327  -0.325  -0.320  -0.314
 -0.310  -0.306  -0.302  -0.300  -0.296  -0.283  -0.279  -0.276
 -0.270  -0.263  -0.248  -0.245  -0.234  -0.232  -0.228  -0.187
 -0.171  -0.170  -0.165  -0.160  -0.154  -0.147  -0.143  -0.141
 -0.137

          Ground-State Mulliken Net Atomic Charges

     Atom                 Charge (a.u.)
  ----------------------------------------
      1 O                    -0.222759
      2 C                     0.213013
      3 C                    -0.080453
      4 C                    -0.080376
      5 C                     0.211953
      6 O                    -0.174330
      7 C                    -0.051144
      8 C                    -0.046365
      9 O                    -0.181422
     10 C                     0.214389
     11 C                    -0.082753
     12 C                    -0.079970
     13 C                     0.214522
     14 O                    -0.204027
     15 O                    -0.170496
     16 O                    -0.172038
     17 O                    -0.196528
     18 C                    -0.129598
     19 C                     0.026634
     20 C                    -0.141033
     21 C                    -0.146413
     22 C                     0.025453
     23 O                    -0.188285
     24 H                     0.085211
     25 H                     0.097968
     26 H                     0.086300
     27 H                     0.077076
     28 H                     0.074404
     29 H                     0.077098
     30 H                     0.080761
     31 H                     0.082648
     32 O                    -0.208459
     33 C                    -0.128149
     34 C                     0.025233
     35 C                    -0.144994
     36 C                    -0.142692
     37 C                     0.022973
     38 O                    -0.186356
     39 H                     0.085563
     40 H                     0.085754
     41 H                     0.091846
     42 H                     0.082424
     43 H                     0.077884
     44 H                     0.073357
     45 H                     0.076292
     46 H                     0.072635
     47 H                     0.096151
     48 H                     0.086348
     49 H                     0.088018
     50 H                     0.085827
     51 H                     0.087651
     52 H                     0.087209
     53 H                     0.097945
     54 H                     0.086696
     55 H                     0.092479
     56 H                     0.088924
  ----------------------------------------
  Sum of atomic charges =    -0.000000

                    Cartesian Multipole Moments
 -----------------------------------------------------------------
    Charge (ESU x 10^10)
                -0.0000
    Dipole Moment (Debye)
         X       3.7049      Y       1.0699      Z      -0.2155
       Tot       3.8623
    Quadrupole Moments (Debye-Ang)
        XX    -168.6169     XY       4.5035     YY    -151.9365
        XZ      -1.9681     YZ      -5.1787     ZZ    -154.3618

 Total job time:  72.54s(wall), 3457.01s(cpu)
        *  Thank you very much for using Q-Chem.  Have a nice day.  *
