 Q-Chem 5.0, Q-Chem, Inc., Pleasanton, CA (2017)
 Q-Chem 5.0.1 for Intel X86 EM64T Linux

User input:
--------------------------------------------------------------
$molecule
0  1
O 2.0996440396 -1.3671232409 1.3402981603
C 3.17748783 -1.0333373837 0.80175651
C 3.5694629935 0.3887257906 0.2544169491
C 2.7048063434 0.8363428453 -0.9959645934
C 1.8855394838 -0.3412413957 -1.6209221804
O 0.8266209633 0.1919558112 -2.4232024526
C -0.2018770192 -0.8549707769 -2.6360970118
C -1.5270487507 -0.1177443727 -3.072913232
O -2.530195427 -0.0443876121 -1.9886417039
C -2.7110370493 -1.318121548 -1.3330137171
C -2.4501882084 -1.2458627073 0.2208740519
C -1.8247867472 0.066681787 0.840077462
C -2.2998208916 1.4206927082 0.1963743212
O -3.3823257259 1.6907283281 -0.3622086662
O 4.2965097904 -1.9102232225 0.6216869011
O -1.2252299307 2.3666678063 0.3436126934
O -2.9831502631 -2.3751145416 -1.9439843654
C -1.6312148622 3.6771228293 -0.2125650566
C -3.6645875549 -1.5330899726 1.2185604542
C -3.0601032108 -2.3665308399 2.4131283658
C -2.1198041226 -1.2817751694 3.0623465828
C -2.539991507 0.0190680781 2.264895046
O -3.9469265473 -0.2305116 1.8607856259
H -1.7113690915 -2.0557185381 0.3752239757
H -0.7211342876 0.0428626812 0.8979743387
H -4.5757947963 -1.9490244773 0.7466611118
H -3.860079265 -2.6709062918 3.1075238356
H -2.5173978342 -3.2647466912 2.0781797682
H -2.3176995382 -1.159789606 4.1387972142
H -1.0506874138 -1.5120846621 2.9235798104
H -2.4635437399 0.9627085088 2.8393338976
O 2.06096898 -1.5656521491 -1.4286688229
C 3.9321694495 -3.27909446 1.0525360345
C 3.1098061254 1.4781092753 1.313958993
C 3.6517703174 2.8993648828 0.8818758691
C 2.6387212395 3.283911944 -0.2606149915
C 1.781633413 1.9644572757 -0.3493158994
O 1.6513331224 1.5545317519 1.0661116287
H 4.6521392028 0.4114865447 0.0425476443
H 3.3481951656 1.2711269642 -1.783124186
H 3.1002683122 -3.683409672 0.4401380689
H 3.3082408861 1.1989426718 2.3667620235
H 3.6021253366 3.6065357177 1.7247476523
H 4.6925764301 2.8482534049 0.523896403
H 2.0012393197 4.1322440554 0.036005039
H 3.1366560775 3.5297602889 -1.2121648304
H 0.776197618 2.0606938447 -0.8043783342
H 3.63125276 -3.3074467728 2.1198629018
H 4.8360471606 -3.8985169049 0.9055484466
H -0.7523301697 4.3391952998 -0.1052320334
H -2.4902174429 4.1103708851 0.3394107629
H -1.9095487115 3.5972596955 -1.2833795387
H -1.293353898 0.9352192356 -3.3334075593
H -1.9463317885 -0.6219588164 -3.973396809
H -0.3473294201 -1.4496889345 -1.7109358472
H 0.1238518316 -1.5575237831 -3.4349756036
$end

$rem
JOBTYPE                   OPT
METHOD                    B3LYP
DFT_D                     d3_op
BASIS                     STO-3G
GEOM_OPT_MAX_CYCLES       100
GEOM_OPT_TOL_GRADIENT     300
GEOM_OPT_TOL_DISPLACEMENT 1200
GEOM_OPT_TOL_ENERGY       100
SYMMETRY                  False
THRESH                    12
SCF_CONVERGENCE           8
MAX_SUB_FILE_NUM          128
MEM_STATIC                400
MEM_TOTAL                 4000
$end
--------------------------------------------------------------

   16   -1510.2571647640      4.28E-09 Convergence criterion met
 Total energy in the final basis set = -1510.25716476
   14   -1510.2599745266      2.80E-09 Convergence criterion met
 Total energy in the final basis set = -1510.25997453
   13   -1510.2648327206      8.58E-09 Convergence criterion met
 Total energy in the final basis set = -1510.26483272
   14   -1510.2674601161      2.35E-09 Convergence criterion met
 Total energy in the final basis set = -1510.26746012
   14   -1510.2697340953      2.15E-09 Convergence criterion met
 Total energy in the final basis set = -1510.26973410
   13   -1510.2742512322      8.72E-09 Convergence criterion met
 Total energy in the final basis set = -1510.27425123
   14   -1510.2781030615      1.75E-09 Convergence criterion met
 Total energy in the final basis set = -1510.27810306
   13   -1510.2828560117      9.54E-09 Convergence criterion met
   11   -1510.3085808800      6.16E-09 Convergence criterion met
 Total energy in the final basis set = -1510.30858088
   11   -1510.3085842497      5.08E-09 Convergence criterion met
 Total energy in the final basis set = -1510.30858425
   11   -1510.3085988748      4.02E-09 Convergence criterion met
 Total energy in the final basis set = -1510.30859887
   11   -1510.3086053579      5.51E-09 Convergence criterion met
 Total energy in the final basis set = -1510.30860536
   11   -1510.3086043662      4.25E-09 Convergence criterion met
 Total energy in the final basis set = -1510.30860437
    9   -1510.3086059374      7.78E-09 Convergence criterion met
 Total energy in the final basis set = -1510.30860594

             Standard Nuclear Orientation (Angstroms)
    I     Atom           X                Y                Z
 ----------------------------------------------------------------
    1      O      -1.1854961489    -2.1227229869    -0.9276284330
    2      C      -2.2173241548    -1.8115870963    -0.2848244823
    3      C      -2.9726067727    -0.4296039637    -0.3142747990
    4      C      -2.3662763681     0.6298933703     0.6944421547
    5      C      -1.4045116597    -0.0163763599     1.7407059515
    6      O      -1.1057789066     0.9356553333     2.7639669951
    7      C      -0.0562388346     0.3876034229     3.6614142199
    8      C       1.3657265566     0.6866758922     3.0460408235
    9      O       1.2778573933     0.5489626101     1.5779948694
   10      C       1.7458217840    -0.7438869147     1.1403732112
   11      C       1.4308175362    -0.8782599305    -0.3799491874
   12      C       1.5527410400     0.4543532055    -1.2318449589
   13      C       2.1269192083     1.6762807359    -0.4381953943
   14      O       3.3018766127     1.8743828218    -0.0652852104
   15      O      -2.9909934839    -2.7387339647     0.4798325212
   16      O       1.0751503602     2.6533151703    -0.2458609609
   17      O       2.2657317346    -1.5819759725     1.9054275711
   18      C       1.5878845423     3.8003893375     0.5327360142
   19      C       2.4477580134    -1.8294520648    -1.1328365916
   20      C       1.7379738145    -2.3178927078    -2.4552292663
   21      C       1.8005301752    -1.0082826713    -3.3263753999
   22      C       2.5676810306    -0.0246561336    -2.3540579107
   23      O       3.5018665693    -0.9096904667    -1.6203260096
   24      H       0.3936759574    -1.2806275049    -0.4780871663
   25      H       0.5506044178     0.7147291613    -1.6300079881
   26      H       2.8825931616    -2.6233323114    -0.4948974302
   27      H       2.3014992362    -3.1420249652    -2.9209067432
   28      H       0.7036062193    -2.6453990761    -2.2611855114
   29      H       2.3743875336    -1.1625096831    -4.2542715779
   30      H       0.7998173583    -0.6271224525    -3.5850598691
   31      H       3.1242697380     0.7929736258    -2.8518663231
   32      O      -0.9950085527    -1.2022633776     1.7365274492
   33      C      -2.2732900083    -4.0315697680     0.5686790606
   34      C      -2.6942395532     0.2896416702    -1.6966395388
   35      C      -3.5870325688     1.5893876001    -1.8053455910
   36      C      -2.7994375627     2.5891786991    -0.8754662159
   37      C      -1.6634680818     1.6503763831    -0.3155946622
   38      O      -1.3294841230     0.8211024467    -1.4939809391
   39      H      -4.0452166991    -0.6069621995    -0.1221544478
   40      H      -3.1660454791     1.1473769868     1.2541664987
   41      H      -1.3013235744    -3.9106100228     1.0892975039
   42      H      -2.7234991759    -0.3827840159    -2.5756714154
   43      H      -3.6239552837     1.9464456097    -2.8467490231
   44      H      -4.6171888746     1.4094324785    -1.4578260854
   45      H      -2.3593200822     3.4141331965    -1.4582687009
   46      H      -3.4276322242     3.0143666916    -0.0768081065
   47      H      -0.7242080348     2.1409961552     0.0342657375
   48      H      -2.0874736335    -4.4652638601    -0.4350477495
   49      H      -2.9272320648    -4.7062772314     1.1509924051
   50      H       0.7282502679     4.4791421468     0.6835273398
   51      H       2.3927715847     4.3369366786    -0.0101911374
   52      H       1.9847959764     3.4795514633     1.5170724662
   53      H       1.6704650071     1.7314112052     3.2550520287
   54      H       2.1159811537    -0.0256217869     3.4522877378
   55      H      -0.1951387759    -0.7083472178     3.7737549150
   56      H      -0.1775896018     0.8924731969     4.6401194840
 ----------------------------------------------------------------

    9   -1510.3086064961      3.34E-09 Convergence criterion met
 Total energy in the final basis set = -1510.30860650
 Final energy is   -1510.30860649610
 **  OPTIMIZATION CONVERGED  **

                    Orbital Energies (a.u.)
 --------------------------------------------------------------

 Alpha MOs
 -- Occupied --
-18.946 -18.934 -18.929 -18.924 -18.895 -18.887 -18.874 -18.870
-18.867 -18.859 -10.112 -10.103 -10.095 -10.086 -10.078 -10.073
-10.065 -10.061 -10.059 -10.051 -10.043 -10.041 -10.040 -10.038
-10.023 -10.020 -10.009 -10.008 -10.001  -9.997  -1.027  -1.010
 -1.006  -0.996  -0.976  -0.951  -0.949  -0.934  -0.933  -0.923
 -0.767  -0.745  -0.727  -0.718  -0.705  -0.697  -0.685  -0.662
 -0.654  -0.619  -0.593  -0.574  -0.548  -0.542  -0.529  -0.520
 -0.514  -0.496  -0.487  -0.470  -0.466  -0.457  -0.447  -0.443
 -0.432  -0.426  -0.418  -0.412  -0.411  -0.408  -0.405  -0.401
 -0.391  -0.382  -0.376  -0.364  -0.357  -0.356  -0.351  -0.344
 -0.339  -0.338  -0.336  -0.331  -0.326  -0.316  -0.312  -0.309
 -0.308  -0.306  -0.296  -0.290  -0.285  -0.281  -0.276  -0.268
 -0.260  -0.259  -0.251  -0.240  -0.239  -0.233  -0.213  -0.193
 -0.175  -0.171  -0.167  -0.163  -0.155  -0.152  -0.149  -0.137
 -0.125

          Ground-State Mulliken Net Atomic Charges

     Atom                 Charge (a.u.)
  ----------------------------------------
      1 O                    -0.225868
      2 C                     0.223445
      3 C                    -0.080900
      4 C                    -0.081074
      5 C                     0.218323
      6 O                    -0.167239
      7 C                    -0.053650
      8 C                    -0.053208
      9 O                    -0.179689
     10 C                     0.216411
     11 C                    -0.093054
     12 C                    -0.093753
     13 C                     0.214497
     14 O                    -0.217487
     15 O                    -0.168820
     16 O                    -0.174908
     17 O                    -0.211648
     18 C                    -0.127435
     19 C                     0.023409
     20 C                    -0.146472
     21 C                    -0.143716
     22 C                     0.024576
     23 O                    -0.192512
     24 H                     0.113605
     25 H                     0.109314
     26 H                     0.083878
     27 H                     0.070997
     28 H                     0.085354
     29 H                     0.072081
     30 H                     0.074619
     31 H                     0.078153
     32 O                    -0.215531
     33 C                    -0.128122
     34 C                     0.027649
     35 C                    -0.144902
     36 C                    -0.143186
     37 C                     0.013963
     38 O                    -0.192553
     39 H                     0.086301
     40 H                     0.087031
     41 H                     0.095762
     42 H                     0.084881
     43 H                     0.078277
     44 H                     0.073499
     45 H                     0.078588
     46 H                     0.072808
     47 H                     0.113799
     48 H                     0.088478
     49 H                     0.089187
     50 H                     0.085619
     51 H                     0.087860
     52 H                     0.085205
     53 H                     0.085869
     54 H                     0.102867
     55 H                     0.098577
     56 H                     0.090845
  ----------------------------------------
  Sum of atomic charges =    -0.000000

                    Cartesian Multipole Moments
 -----------------------------------------------------------------
    Charge (ESU x 10^10)
                -0.0000
    Dipole Moment (Debye)
         X      -4.6356      Y       1.5687      Z       1.1268
       Tot       5.0219
    Quadrupole Moments (Debye-Ang)
        XX    -167.9733     XY       2.3267     YY    -151.3406
        XZ       3.0866     YZ       3.2370     ZZ    -150.2012

 Total job time:  118.60s(wall), 5660.17s(cpu)
        *  Thank you very much for using Q-Chem.  Have a nice day.  *
