 Q-Chem 5.0, Q-Chem, Inc., Pleasanton, CA (2017)
 Q-Chem 5.0.1 for Intel X86 EM64T Linux

User input:
--------------------------------------------------------------
$molecule
0  1
O -3.94934 -3.66094 2.70899
C -3.26408 -4.56952 2.26188
C -3.36658 -6.02376 2.66595
C -3.41669 -6.33291 4.1712
C -3.53792 -5.14515 5.09996
O -4.81525 -5.0563 5.57531
C -5.78968 -5.59496 4.67555
C -6.88156 -6.31975 5.45569
O -6.49991 -6.43979 6.83511
C -7.1634 -7.38703 7.54339
C -6.86105 -8.7908 7.07579
C -6.9312 -8.99588 5.55549
C -6.93503 -7.73294 4.71785
O -5.94129 -7.12193 4.35217
O -2.41046 -4.27094 1.23779
O -8.0192 -7.78895 3.84171
O -7.96417 -7.10794 8.42188
C -8.1748 -7.08696 2.66011
C -5.52304 -9.39822 7.4593
C -5.63636 -10.92382 7.49901
C -5.81016 -11.23423 6.02201
C -5.64371 -9.83036 5.42067
O -4.75845 -9.20572 6.32492
H -7.63104 -9.40836 7.59429
H -7.81263 -9.61454 5.26758
H -5.11255 -8.99694 8.41104
H -4.64908 -11.31625 7.83321
H -6.43094 -11.32794 8.1626
H -4.97257 -11.89516 5.70611
H -6.7822 -11.69423 5.74151
H -5.31785 -9.91561 4.36414
O -2.66575 -4.3313 5.37865
C -2.22634 -3.00673 0.71783
C -3.7044 -7.32781 1.9198
C -2.45368 -8.1882 1.74274
C -2.15032 -8.48636 3.21662
C -3.41612 -7.89202 3.92268
O -4.36648 -8.08222 2.89822
H -2.25168 -6.03258 2.58593
H -2.38256 -6.43745 4.58147
H -1.85145 -2.32007 1.50667
H -4.29506 -7.16043 0.9948
H -2.7727 -9.12437 1.23067
H -1.61958 -7.72234 1.17463
H -2.10886 -9.59266 3.33074
H -1.20563 -8.0465 3.60257
H -3.48305 -8.42483 4.84089
H -3.18237 -2.61941 0.30522
H -1.47799 -3.05502 -0.09955
H -9.07754 -6.4465 2.73391
H -8.31346 -7.80698 1.82798
H -7.30193 -6.44841 2.42119
H -7.97079 -5.90172 5.32868
H -7.53736 -5.43548 5.70738
H -5.69614 -5.23404 3.57821
H -6.3071 -4.62107 4.45791
$end

$opt
CONSTRAINT
tors           1           2           3           4     -47.368
tors           3           4           5           6    +104.211
tors           4           5           6           7     -28.421
tors           5           6           7           8    +142.105
tors           6           7           8           9      -9.474
tors           7           8           9          10    -161.053
tors           8           9          10          11     +66.316
tors           9          10          11          12     -47.368
tors          11          12          13          14     +85.263
ENDCONSTRAINT
$end

$rem
JOBTYPE                   OPT
METHOD                    B3LYP
DFT_D                     d3_op
BASIS                     STO-3G
GEOM_OPT_MAX_CYCLES       100
GEOM_OPT_TOL_GRADIENT     300
GEOM_OPT_TOL_DISPLACEMENT 1200
GEOM_OPT_TOL_ENERGY       100
SYMMETRY                  False
THRESH                    12
SCF_CONVERGENCE           8
MAX_SUB_FILE_NUM          128
MEM_STATIC                400
MEM_TOTAL                 4000
$end
--------------------------------------------------------------

   16   -1509.3052045588      8.18E-09 Convergence criterion met
 Total energy in the final basis set = -1509.30520456
   14   -1509.4436801002      8.77E-09 Convergence criterion met
 Total energy in the final basis set = -1509.44368010
   14   -1509.5495718464      8.44E-09 Convergence criterion met
 Total energy in the final basis set = -1509.54957185
   14   -1509.6378144433      6.43E-09 Convergence criterion met
 Total energy in the final basis set = -1509.63781444
   14   -1509.7065444451      6.65E-09 Convergence criterion met
 Total energy in the final basis set = -1509.70654445
   14   -1509.7623177336      7.02E-09 Convergence criterion met
 Total energy in the final basis set = -1509.76231773
   14   -1509.8086004396      5.93E-09 Convergence criterion met
 Total energy in the final basis set = -1509.80860044
   14   -1509.8480256705      3.44E-09 Convergence criterion met
   11   -1510.1146558589      2.95E-09 Convergence criterion met
 Total energy in the final basis set = -1510.11465586
   10   -1510.1146605741      8.29E-09 Convergence criterion met
 Total energy in the final basis set = -1510.11466057
   10   -1510.1146648966      6.68E-09 Convergence criterion met
 Total energy in the final basis set = -1510.11466490
   10   -1510.1146705789      7.47E-09 Convergence criterion met
 Total energy in the final basis set = -1510.11467058
   10   -1510.1146733631      8.22E-09 Convergence criterion met
 Total energy in the final basis set = -1510.11467336
   11   -1510.1146753936      2.47E-09 Convergence criterion met
 Total energy in the final basis set = -1510.11467539

             Standard Nuclear Orientation (Angstroms)
    I     Atom           X                Y                Z
 ----------------------------------------------------------------
    1      O       3.8240393795    -1.3492858491    -0.0063390205
    2      C       4.2256320790    -0.2445628597    -0.4336143433
    3      C       3.4027558743     1.0776798356    -0.5819251902
    4      C       1.9950410886     0.8746425683    -1.2824329067
    5      C       1.7881690762    -0.5960684494    -1.8710649353
    6      O       0.9700674784    -1.5768132800    -1.2470147465
    7      C       0.8019577036    -1.5116917276     0.2336408321
    8      C      -0.6693907951    -1.8855180768     0.6747102483
    9      O      -1.3174818699    -1.9251644509    -0.5410769788
   10      C      -2.7785926240    -1.8327752442    -0.6570371604
   11      C      -3.4740795237    -0.4821591779    -0.2498827965
   12      C      -3.1993152496     0.3460162390     1.0815575087
   13      C      -1.9857897910    -0.0299661614     2.0031855538
   14      O      -0.8062813140     0.3725055173     1.8592212221
   15      O       5.5675524176     0.0077667408    -0.8621754795
   16      O      -2.4500982958    -0.8408741923     3.0754783067
   17      O      -3.3757507118    -2.7356217722    -1.2753004693
   18      C      -1.2965852174    -1.2815748326     3.8969084950
   19      C      -3.1162685514     0.6226274797    -1.3625409231
   20      C      -4.3370512060     1.6116110963    -1.4794751500
   21      C      -4.1993950098     2.4126607285    -0.1327909415
   22      C      -2.8861107696     1.7804403601     0.4696355683
   23      O      -2.0675929654     1.4422009136    -0.7194332069
   24      H      -4.5515580944    -0.7206474194    -0.2994942689
   25      H      -4.1124082973     0.3427388104     1.7027493191
   26      H      -2.7502980945     0.2061249750    -2.3214618444
   27      H      -4.2122907697     2.2677300919    -2.3557609405
   28      H      -5.2971419357     1.0787645791    -1.5680870274
   29      H      -4.0629412528     3.4906509371    -0.3134576088
   30      H      -5.0641335237     2.2723727120     0.5351546174
   31      H      -2.3119330457     2.4374812290     1.1507030230
   32      O       2.2614963652    -0.8778934871    -2.9978212507
   33      C       6.3750003390    -1.2296597970    -0.7469581876
   34      C       2.9311512449     1.6618479575     0.8256793116
   35      C       2.5712514391     3.1808599340     0.6147168876
   36      C       1.2215977856     3.0622399382    -0.1885835010
   37      C       1.0020099210     1.5002411654    -0.2263125918
   38      O       1.5934159788     1.0542481085     1.0651708039
   39      H       4.0245294245     1.8112937252    -1.1222573476
   40      H       1.9764524825     1.4973314317    -2.1959901884
   41      H       5.9516235542    -2.0490178550    -1.3629205404
   42      H       3.6069141415     1.4439935397     1.6753906178
   43      H       2.4189806120     3.6766810767     1.5868281061
   44      H       3.3551591967     3.7204349023     0.0597033658
   45      H       0.3897281322     3.5483926039     0.3450902468
   46      H       1.2906657072     3.4932674074    -1.1999466568
   47      H      -0.0664539611     1.1959231584    -0.3120587825
   48      H       6.4406964263    -1.5776566462     0.3043078785
   49      H       7.3845102390    -0.9707289924    -1.1155006591
   50      H      -0.5593098776    -1.8098058727     3.2583222819
   51      H      -1.7082477721    -1.9691911533     4.6577449957
   52      H      -0.8021746325    -0.4218980979     4.3937292094
   53      H      -1.9993272374    -3.4008084611     1.7936772665
   54      H      -2.3772704568    -3.9567733452     2.0858909483
   55      H       1.1226000418    -0.5346779228     0.6978390157
   56      H       1.4757612518    -2.2881942562     0.6663880560
 ----------------------------------------------------------------

   10   -1510.1146751695      5.37E-09 Convergence criterion met
 Total energy in the final basis set = -1510.11467517
 Final energy is   -1510.11467516953
 **  OPTIMIZATION CONVERGED  **

                    Orbital Energies (a.u.)
 --------------------------------------------------------------

 Alpha MOs
 -- Occupied --
-18.982 -18.940 -18.935 -18.922 -18.912 -18.908 -18.906 -18.874
-18.873 -18.848 -10.133 -10.107 -10.098 -10.083 -10.078 -10.075
-10.067 -10.062 -10.059 -10.056 -10.053 -10.051 -10.037 -10.035
-10.034 -10.028 -10.024 -10.021 -10.017  -9.970  -1.038  -1.013
 -1.011  -0.991  -0.987  -0.979  -0.973  -0.938  -0.935  -0.911
 -0.777  -0.764  -0.735  -0.722  -0.721  -0.705  -0.670  -0.662
 -0.661  -0.615  -0.594  -0.570  -0.557  -0.552  -0.549  -0.537
 -0.518  -0.510  -0.476  -0.472  -0.461  -0.455  -0.446  -0.444
 -0.437  -0.427  -0.418  -0.415  -0.410  -0.408  -0.399  -0.395
 -0.383  -0.382  -0.374  -0.372  -0.364  -0.360  -0.358  -0.352
 -0.348  -0.344  -0.341  -0.338  -0.330  -0.326  -0.322  -0.318
 -0.311  -0.309  -0.307  -0.305  -0.292  -0.290  -0.280  -0.276
 -0.266  -0.260  -0.255  -0.252  -0.250  -0.241  -0.219  -0.187
 -0.178  -0.177  -0.167  -0.156  -0.155  -0.154  -0.144  -0.131
 -0.106

          Ground-State Mulliken Net Atomic Charges

     Atom                 Charge (a.u.)
  ----------------------------------------
      1 O                    -0.213584
      2 C                     0.207060
      3 C                    -0.082817
      4 C                    -0.087008
      5 C                     0.206106
      6 O                    -0.173996
      7 C                    -0.115931
      8 C                     0.024143
      9 O                    -0.149224
     10 C                     0.236760
     11 C                    -0.080902
     12 C                    -0.081043
     13 C                     0.218064
     14 O                    -0.209660
     15 O                    -0.167949
     16 O                    -0.163156
     17 O                    -0.166704
     18 C                    -0.127914
     19 C                     0.026276
     20 C                    -0.142212
     21 C                    -0.144922
     22 C                     0.026567
     23 O                    -0.188300
     24 H                     0.094714
     25 H                     0.090312
     26 H                     0.089977
     27 H                     0.082211
     28 H                     0.078701
     29 H                     0.080944
     30 H                     0.077487
     31 H                     0.088346
     32 O                    -0.215588
     33 C                    -0.128792
     34 C                     0.026152
     35 C                    -0.141933
     36 C                    -0.142187
     37 C                     0.014768
     38 O                    -0.177416
     39 H                     0.088929
     40 H                     0.084543
     41 H                     0.093673
     42 H                     0.084823
     43 H                     0.078580
     44 H                     0.075590
     45 H                     0.077640
     46 H                     0.075247
     47 H                     0.109765
     48 H                     0.088010
     49 H                     0.090732
     50 H                     0.108278
     51 H                     0.089987
     52 H                     0.085595
     53 H                     0.010900
     54 H                    -0.029014
     55 H                     0.131751
     56 H                     0.087622
  ----------------------------------------
  Sum of atomic charges =    -0.000000

                    Cartesian Multipole Moments
 -----------------------------------------------------------------
    Charge (ESU x 10^10)
                -0.0000
    Dipole Moment (Debye)
         X      -1.2712      Y       4.8334      Z       2.2467
       Tot       5.4795
    Quadrupole Moments (Debye-Ang)
        XX    -139.0490     XY      -6.2812     YY    -163.6314
        XZ       4.6130     YZ      -5.4913     ZZ    -164.7361

 Total job time:  262.79s(wall), 12549.06s(cpu)
        *  Thank you very much for using Q-Chem.  Have a nice day.  *
