 Q-Chem 5.0, Q-Chem, Inc., Pleasanton, CA (2017)
 Q-Chem 5.0.1 for Intel X86 EM64T Linux

User input:
--------------------------------------------------------------
$molecule
0  1
O 3.8240393795 -1.3492858491 -0.0063390205
C 4.225632079 -0.2445628597 -0.4336143433
C 3.4027558743 1.0776798356 -0.5819251902
C 1.9950410886 0.8746425683 -1.2824329067
C 1.7881690762 -0.5960684494 -1.8710649353
O 0.9700674784 -1.57681328 -1.2470147465
C 0.8019577036 -1.5116917276 0.2336408321
C -0.6693907951 -1.8855180768 0.6747102483
O -1.3174818699 -1.9251644509 -0.5410769788
C -2.778592624 -1.8327752442 -0.6570371604
C -3.4740795237 -0.4821591779 -0.2498827965
C -3.1993152496 0.346016239 1.0815575087
C -1.985789791 -0.0299661614 2.0031855538
O -0.806281314 0.3725055173 1.8592212221
O 5.5675524176 0.0077667408 -0.8621754795
O -2.4500982958 -0.8408741923 3.0754783067
O -3.3757507118 -2.7356217722 -1.2753004693
C -1.2965852174 -1.2815748326 3.896908495
C -3.1162685514 0.6226274797 -1.3625409231
C -4.337051206 1.6116110963 -1.47947515
C -4.1993950098 2.4126607285 -0.1327909415
C -2.8861107696 1.7804403601 0.4696355683
O -2.0675929654 1.4422009136 -0.7194332069
H -4.5515580944 -0.7206474194 -0.2994942689
H -4.1124082973 0.3427388104 1.7027493191
H -2.7502980945 0.206124975 -2.3214618444
H -4.2122907697 2.2677300919 -2.3557609405
H -5.2971419357 1.0787645791 -1.5680870274
H -4.0629412528 3.4906509371 -0.3134576088
H -5.0641335237 2.272372712 0.5351546174
H -2.3119330457 2.437481229 1.150703023
O 2.2614963652 -0.8778934871 -2.9978212507
C 6.375000339 -1.229659797 -0.7469581876
C 2.9311512449 1.6618479575 0.8256793116
C 2.5712514391 3.180859934 0.6147168876
C 1.2215977856 3.0622399382 -0.188583501
C 1.002009921 1.5002411654 -0.2263125918
O 1.5934159788 1.0542481085 1.0651708039
H 4.0245294245 1.8112937252 -1.1222573476
H 1.9764524825 1.4973314317 -2.1959901884
H 5.9516235542 -2.049017855 -1.3629205404
H 3.6069141415 1.4439935397 1.6753906178
H 2.418980612 3.6766810767 1.5868281061
H 3.3551591967 3.7204349023 0.0597033658
H 0.3897281322 3.5483926039 0.3450902468
H 1.2906657072 3.4932674074 -1.1999466568
H -0.0664539611 1.1959231584 -0.3120587825
H 6.4406964263 -1.5776566462 0.3043078785
H 7.384510239 -0.9707289924 -1.1155006591
H -0.5593098776 -1.8098058727 3.2583222819
H -1.7082477721 -1.9691911533 4.6577449957
H -0.8021746325 -0.4218980979 4.3937292094
H -1.9993272374 -3.4008084611 1.7936772665
H -2.3772704568 -3.9567733452 2.0858909483
H 1.1226000418 -0.5346779228 0.6978390157
H 1.4757612518 -2.2881942562 0.666388056
$end

$rem
JOBTYPE                   OPT
METHOD                    B3LYP
DFT_D                     d3_op
BASIS                     STO-3G
GEOM_OPT_MAX_CYCLES       100
GEOM_OPT_TOL_GRADIENT     300
GEOM_OPT_TOL_DISPLACEMENT 1200
GEOM_OPT_TOL_ENERGY       100
SYMMETRY                  False
THRESH                    12
SCF_CONVERGENCE           8
MAX_SUB_FILE_NUM          128
MEM_STATIC                400
MEM_TOTAL                 4000
$end
--------------------------------------------------------------

   17   -1510.1148207646      3.92E-09 Convergence criterion met
 Total energy in the final basis set = -1510.11482076
   15   -1510.1079137892      5.46E-09 Convergence criterion met
 Total energy in the final basis set = -1510.10791379
   14   -1510.1093401118      9.73E-09 Convergence criterion met
 Total energy in the final basis set = -1510.10934011
   15   -1510.1197105227      4.13E-09 Convergence criterion met
 Total energy in the final basis set = -1510.11971052
   14   -1510.1137250760      9.01E-09 Convergence criterion met
 Total energy in the final basis set = -1510.11372508
   14   -1510.1217106720      8.50E-09 Convergence criterion met
 Total energy in the final basis set = -1510.12171067
   15   -1510.1196410340      3.81E-09 Convergence criterion met
 Total energy in the final basis set = -1510.11964103
   14   -1510.1238805567      6.66E-09 Convergence criterion met
   11   -1510.1487316310      7.05E-09 Convergence criterion met
 Total energy in the final basis set = -1510.14873163
   11   -1510.1487372021      2.82E-09 Convergence criterion met
 Total energy in the final basis set = -1510.14873720
   11   -1510.1487408280      1.94E-09 Convergence criterion met
 Total energy in the final basis set = -1510.14874083
   10   -1510.1487439236      6.55E-09 Convergence criterion met
 Total energy in the final basis set = -1510.14874392
   11   -1510.1487518659      5.95E-09 Convergence criterion met
 Total energy in the final basis set = -1510.14875187
   11   -1510.1487603695      7.78E-09 Convergence criterion met
 Total energy in the final basis set = -1510.14876037

             Standard Nuclear Orientation (Angstroms)
    I     Atom           X                Y                Z
 ----------------------------------------------------------------
    1      O       3.7844991744    -0.9423039423    -1.5035529298
    2      C       3.8498111419    -0.2858711815    -0.4405899264
    3      C       3.0425782730     1.0163297965    -0.1037200638
    4      C       1.7124039289     1.1483241366    -0.9563307141
    5      C       1.4714839276     0.0688817018    -2.1123910471
    6      O       0.9213633247    -1.2284271555    -1.8656113576
    7      C       1.0285432552    -1.8072222112    -0.4987599139
    8      C      -0.3372763362    -2.3192348517     0.0994846235
    9      O      -1.2325755543    -1.3974409284    -0.4010227690
   10      C      -2.6426677649    -1.6342391257     0.0739342403
   11      C      -3.5002999628    -0.3780864219    -0.3070361209
   12      C      -3.4061427063     0.8621900956     0.6797000380
   13      C      -2.3423853139     0.7365994059     1.8306336365
   14      O      -1.7759553490     1.6899456980     2.4125034930
   15      O       4.6999786295    -0.6167625832     0.6584276687
   16      O      -2.0965266595    -0.6340903121     2.1111587441
   17      O      -3.0360000214    -2.7433675654     0.4642436914
   18      C      -0.9038765220    -0.7904100624     2.9860300237
   19      C      -2.9896747532     0.2847786585    -1.6628566844
   20      C      -4.1536643847     1.1693708523    -2.2515231876
   21      C      -4.1358072587     2.3956616292    -1.2649851648
   22      C      -2.9416772402     2.0068072250    -0.3126960377
   23      O      -1.9976067570     1.2863559073    -1.2025138635
   24      H      -4.5469622046    -0.7208792234    -0.3914155455
   25      H      -4.3912497671     1.0841436029     1.1302004273
   26      H      -2.5205810128    -0.4217630171    -2.3743823520
   27      H      -3.9135660743     1.4769900554    -3.2817187018
   28      H      -5.1183011531     0.6376044982    -2.2558365045
   29      H      -3.9179616867     3.3376815901    -1.7926668732
   30      H      -5.0812669548     2.5099287057    -0.7110311913
   31      H      -2.4328975711     2.8497436780     0.1941599324
   32      O       1.6007208137     0.4008708325    -3.3138177011
   33      C       5.4595569208    -1.8525350792     0.3540754324
   34      C       2.4705580833     1.0478684566     1.3725995948
   35      C       1.9966523379     2.5119454174     1.7111491624
   36      C       0.6567153091     2.6034387548     0.8892560378
   37      C       0.6150768956     1.2022858447     0.1797040487
   38      O       1.1848352195     0.3111843202     1.2374366442
   39      H       3.7097409610     1.8807498270    -0.2780998070
   40      H       1.7244755186     2.1064560907    -1.5045922023
   41      H       6.1080067770    -1.7231080340    -0.5362703279
   42      H       3.1186301899     0.5561311025     2.1239544410
   43      H       1.8149405386     2.6180876811     2.7926023867
   44      H       2.7411309052     3.2628040262     1.4015811275
   45      H      -0.2178564221     2.6835580028     1.5598343850
   46      H       0.6487863446     3.4357883416     0.1684778112
   47      H      -0.3969352430     0.8768305583    -0.1631802048
   48      H       4.7807401283    -2.7111957601     0.1743693845
   49      H       6.0843220096    -2.0528210336     1.2438311652
   50      H      -0.7713841152    -1.8802445974     3.1090506390
   51      H      -1.0762811207    -0.3138995562     3.9714772220
   52      H      -0.0092555553    -0.3396782662     2.4866818311
   53      H      -0.6093488940    -3.9685733703     1.6098620849
   54      H      -0.6632581723    -4.4909810211     2.1261488794
   55      H       1.3538135849    -1.0513471640     0.2780190756
   56      H       1.7515703732    -2.6484863888    -0.5392945668
 ----------------------------------------------------------------

   10   -1510.1487606703      9.98E-09 Convergence criterion met
 Total energy in the final basis set = -1510.14876067
 Final energy is   -1510.14876067034
 **  OPTIMIZATION CONVERGED  **

                    Orbital Energies (a.u.)
 --------------------------------------------------------------

 Alpha MOs
 -- Occupied --
-18.972 -18.957 -18.946 -18.930 -18.921 -18.912 -18.905 -18.893
-18.888 -18.846 -10.127 -10.118 -10.109 -10.082 -10.079 -10.076
-10.076 -10.072 -10.060 -10.057 -10.056 -10.054 -10.048 -10.034
-10.033 -10.032 -10.030 -10.020 -10.019  -9.958  -1.036  -1.025
 -1.022  -0.999  -0.991  -0.981  -0.970  -0.953  -0.946  -0.909
 -0.780  -0.772  -0.738  -0.729  -0.723  -0.714  -0.670  -0.667
 -0.664  -0.618  -0.601  -0.565  -0.559  -0.555  -0.549  -0.543
 -0.520  -0.508  -0.484  -0.483  -0.472  -0.458  -0.451  -0.449
 -0.442  -0.425  -0.420  -0.418  -0.415  -0.413  -0.404  -0.398
 -0.394  -0.384  -0.379  -0.374  -0.369  -0.361  -0.360  -0.358
 -0.351  -0.346  -0.346  -0.339  -0.331  -0.329  -0.322  -0.321
 -0.319  -0.318  -0.314  -0.309  -0.304  -0.300  -0.287  -0.280
 -0.274  -0.270  -0.264  -0.253  -0.249  -0.242  -0.224  -0.192
 -0.188  -0.181  -0.170  -0.169  -0.165  -0.161  -0.149  -0.131
 -0.101

          Ground-State Mulliken Net Atomic Charges

     Atom                 Charge (a.u.)
  ----------------------------------------
      1 O                    -0.200835
      2 C                     0.209056
      3 C                    -0.081619
      4 C                    -0.087036
      5 C                     0.211693
      6 O                    -0.175690
      7 C                    -0.120765
      8 C                     0.025243
      9 O                    -0.157244
     10 C                     0.245054
     11 C                    -0.081368
     12 C                    -0.079147
     13 C                     0.214285
     14 O                    -0.212566
     15 O                    -0.170551
     16 O                    -0.164819
     17 O                    -0.162882
     18 C                    -0.145123
     19 C                     0.027916
     20 C                    -0.143037
     21 C                    -0.143665
     22 C                     0.023879
     23 O                    -0.187055
     24 H                     0.090934
     25 H                     0.090667
     26 H                     0.097153
     27 H                     0.084005
     28 H                     0.077556
     29 H                     0.082279
     30 H                     0.076827
     31 H                     0.091623
     32 O                    -0.212973
     33 C                    -0.128045
     34 C                     0.026060
     35 C                    -0.143241
     36 C                    -0.151746
     37 C                     0.008436
     38 O                    -0.188754
     39 H                     0.089894
     40 H                     0.088927
     41 H                     0.092534
     42 H                     0.095941
     43 H                     0.081666
     44 H                     0.077060
     45 H                     0.093856
     46 H                     0.075598
     47 H                     0.110215
     48 H                     0.093121
     49 H                     0.092805
     50 H                     0.102086
     51 H                     0.085814
     52 H                     0.112886
     53 H                     0.024611
     54 H                    -0.053001
     55 H                     0.113969
     56 H                     0.077514
  ----------------------------------------
  Sum of atomic charges =    -0.000000

                    Cartesian Multipole Moments
 -----------------------------------------------------------------
    Charge (ESU x 10^10)
                -0.0000
    Dipole Moment (Debye)
         X      -0.7795      Y       4.0240      Z       2.5236
       Tot       4.8134
    Quadrupole Moments (Debye-Ang)
        XX    -135.1302     XY      -8.2086     YY    -167.9923
        XZ      13.5209     YZ       0.1627     ZZ    -172.5920

 Total job time:  191.41s(wall), 9125.47s(cpu)
        *  Thank you very much for using Q-Chem.  Have a nice day.  *
