 Q-Chem 5.0, Q-Chem, Inc., Pleasanton, CA (2017)
 Q-Chem 5.0.1 for Intel X86 EM64T Linux

User input:
--------------------------------------------------------------
$molecule
0  1
O -4.0369855423 1.9139163845 0.6473220372
C -4.8710242179 1.5547686695 -0.2141167388
C -5.2557474821 0.0933207704 -0.6090856433
C -4.0726244002 -0.9332006789 -0.3832768724
C -2.8922998902 -0.3827257581 0.5143776484
O -1.774722851 -0.0505691782 -0.3420323318
C -0.5037754193 -0.412435237 0.3288410075
C 0.6524740876 -0.0244341728 -0.6558361621
O 1.7702661502 0.5099634447 0.1618061642
C 2.9964067465 0.4737421232 -0.5846047265
C 4.128936959 1.0490398219 0.3332008772
C 5.1155552329 -0.0324863784 0.9602633117
C 4.7995373613 -1.528770569 0.621901652
O 4.5925089184 -2.4518156942 1.4411890738
O -5.6745895436 2.4581451878 -0.9779099672
O 4.8589902938 -1.7142066761 -0.7938059437
O 3.0748717367 0.0922896455 -1.7715303833
C 4.574836494 -3.1258873008 -1.1373238892
C 5.1507645077 1.9220890893 -0.5153191423
C 5.9927467234 2.811050313 0.4832974299
C 6.9727531304 1.7390467247 1.089821491
C 6.5023790879 0.4348548392 0.3315986541
O 6.1274368124 0.9278437136 -1.0109704294
H 3.6472498583 1.6392712295 1.1325995028
H 5.1264369507 0.0512200757 2.0613311814
H 4.6908886818 2.4659758015 -1.3629415384
H 6.5391072629 3.5954568857 -0.0640694141
H 5.3584757822 3.2878504027 1.2475929584
H 8.022566467 1.9672031016 0.845766129
H 6.8771237492 1.642114488 2.1831456487
H 7.2629538008 -0.3658747248 0.2518988511
O -2.8105264079 -0.4606674976 1.758253893
C -5.3729251631 3.8564383344 -0.5903690023
C -6.4077980131 -0.5545108764 0.2839644208
C -7.0350249651 -1.7335046176 -0.5586418022
C -5.8692266098 -2.7895348418 -0.5009526204
C -4.831790351 -2.0574548911 0.4410804577
O -5.679329077 -1.2608819331 1.3589963156
H -5.5691352505 0.1091419572 -1.6682475179
H -3.6547732051 -1.293679699 -1.3391432127
H -4.3105483291 4.1115469454 -0.7812393486
H -7.1324869517 0.1670156601 0.7088889513
H -7.9456804675 -2.11209587 -0.0672020641
H -7.2878350856 -1.4276511333 -1.5863420767
H -6.2015136247 -3.7367652032 -0.0477620213
H -5.4431080816 -3.0047558594 -1.4941055578
H -4.1655545455 -2.7259483234 1.0194592649
H -5.591309305 4.0384651022 0.4817033348
H -6.0254109004 4.4934389083 -1.2154096244
H 4.6472239811 -3.1886408495 -2.2385566699
H 3.5572038283 -3.4283938986 -0.8154261611
H 5.3094744213 -3.8164359406 -0.6747816496
H 0.9902920397 -0.8906065683 -1.2628345414
H 0.2824475526 0.7578839609 -1.3561384194
H -0.4809556563 -1.4979617127 0.5672319855
H -0.3746228699 0.1488226311 1.2818906722
$end

$rem
JOBTYPE                   OPT
METHOD                    B3LYP
DFT_D                     d3_op
BASIS                     STO-3G
GEOM_OPT_MAX_CYCLES       100
GEOM_OPT_TOL_GRADIENT     300
GEOM_OPT_TOL_DISPLACEMENT 1200
GEOM_OPT_TOL_ENERGY       100
SYMMETRY                  False
THRESH                    12
SCF_CONVERGENCE           8
MAX_SUB_FILE_NUM          128
MEM_STATIC                400
MEM_TOTAL                 4000
$end
--------------------------------------------------------------

   16   -1510.2677922215      4.76E-09 Convergence criterion met
 Total energy in the final basis set = -1510.26779222
   14   -1510.2724337132      1.83E-09 Convergence criterion met
 Total energy in the final basis set = -1510.27243371
   14   -1510.2758108397      2.05E-09 Convergence criterion met
 Total energy in the final basis set = -1510.27581084
   14   -1510.2782587537      1.63E-09 Convergence criterion met
 Total energy in the final basis set = -1510.27825875
   13   -1510.2796803270      4.21E-09 Convergence criterion met
 Total energy in the final basis set = -1510.27968033
   13   -1510.2807391870      8.83E-09 Convergence criterion met
 Total energy in the final basis set = -1510.28073919
   14   -1510.2817115149      1.43E-09 Convergence criterion met
 Total energy in the final basis set = -1510.28171151
   13   -1510.2827874699      9.14E-09 Convergence criterion met
   13   -1510.2876135374      7.72E-09 Convergence criterion met
 Total energy in the final basis set = -1510.28761354
   13   -1510.2876557852      3.13E-09 Convergence criterion met
 Total energy in the final basis set = -1510.28765579
   13   -1510.2877897737      2.62E-09 Convergence criterion met
 Total energy in the final basis set = -1510.28778977
   13   -1510.2877869568      2.29E-09 Convergence criterion met
 Total energy in the final basis set = -1510.28778696
   11   -1510.2878130915      8.43E-09 Convergence criterion met
 Total energy in the final basis set = -1510.28781309
   10   -1510.2878091225      6.21E-09 Convergence criterion met
 Total energy in the final basis set = -1510.28780912

             Standard Nuclear Orientation (Angstroms)
    I     Atom           X                Y                Z
 ----------------------------------------------------------------
    1      O      -3.2533859450     1.2471946486     0.9537940450
    2      C      -4.2162227691     1.1576460957     0.1586771835
    3      C      -4.7225769008    -0.1275013853    -0.5785996075
    4      C      -3.7742765458    -1.3763302608    -0.3641615703
    5      C      -2.4633697449    -1.0646220389     0.4497450881
    6      O      -1.5471592110    -0.4009252900    -0.4370613801
    7      C      -0.3374059674     0.0079395631     0.3149664539
    8      C       0.6356511230     0.6468991741    -0.7263630667
    9      O       1.8804348920     0.9707658290     0.0121032356
   10      C       2.9390979608     1.2866247294    -0.9031309003
   11      C       4.2361918313     1.5311159526    -0.0547798423
   12      C       4.6015916869     0.3171758597     0.9010093059
   13      C       3.6154409777    -0.8946308786     0.7918527274
   14      O       3.0254896066    -1.4826660297     1.7232488333
   15      O      -5.0664154591     2.2498078910    -0.1939505078
   16      O       3.5180370471    -1.2727463733    -0.5893178813
   17      O       2.8013351716     1.3705499746    -2.1407663853
   18      C       2.6244645702    -2.4429946374    -0.7371599447
   19      C       5.5224579451     1.6027043048    -0.9744516522
   20      C       6.6962300032     2.2474561353    -0.1389940386
   21      C       7.0603720398     1.0635479479     0.8325182444
   22      C       6.0488953672    -0.0515791135     0.3510050219
   23      O       5.9318624382     0.1843403516    -1.1046448056
   24      H       4.0977063517     2.4586208983     0.5309980195
   25      H       4.6333386085     0.6289708077     1.9594161050
   26      H       5.3357767232     2.0441428197    -1.9727716821
   27      H       7.5418966198     2.5037895001    -0.7967713464
   28      H       6.3767821220     3.1559572387     0.3961989280
   29      H       8.0999833534     0.7282286921     0.6903296429
   30      H       6.9142526614     1.3227941020     1.8933191710
   31      H       6.3659783102    -1.0934659447     0.5513293814
   32      O      -2.1867144364    -1.4236159566     1.6130019710
   33      C      -4.6454012845     3.4742341065     0.5269666450
   34      C      -6.0667456247    -0.6588965817     0.0875461154
   35      C      -6.7026758078    -1.7504981661    -0.8623801857
   36      C      -5.7613220516    -2.9816704281    -0.5866666095
   37      C      -4.7347678539    -2.3534552407     0.4345912425
   38      O      -5.5738346371    -1.4378507819     1.2443209340
   39      H      -4.8674187306     0.1078785541    -1.6482292844
   40      H      -3.4764884679    -1.8043871126    -1.3381635571
   41      H      -3.6169893530     3.7794434082     0.2447288069
   42      H      -6.7567699545     0.1423683091     0.4166641724
   43      H      -7.7425959151    -1.9598680138    -0.5653976040
   44      H      -6.6930879475    -1.4350144407    -1.9180141507
   45      H      -6.3119565361    -3.8127783898    -0.1178831589
   46      H      -5.2676642006    -3.3534969313    -1.4986963214
   47      H      -4.2051706314    -3.0699126620     1.0920378321
   48      H      -4.6818907110     3.3319099511     1.6262499830
   49      H      -5.3603636201     4.2632894149     0.2298386105
   50      H       2.4849409879    -2.5859491164    -1.8245400578
   51      H       1.6419448495    -2.2758543776    -0.2518267112
   52      H       3.0781661116    -3.3564949959    -0.3005830533
   53      H       0.8429745045    -0.0636851731    -1.5552006403
   54      H       0.1863933705     1.5639792245    -1.1667301381
   55      H       0.1451465583    -0.8641064941     0.8094026619
   56      H      -0.6025124248     0.7446314692     1.1045374790
 ----------------------------------------------------------------

   10   -1510.2878084085      4.61E-09 Convergence criterion met
 Total energy in the final basis set = -1510.28780841
 Final energy is   -1510.28780840854
 **  OPTIMIZATION CONVERGED  **

                    Orbital Energies (a.u.)
 --------------------------------------------------------------

 Alpha MOs
 -- Occupied --
-18.943 -18.931 -18.930 -18.920 -18.887 -18.886 -18.886 -18.876
-18.871 -18.864 -10.107 -10.100 -10.096 -10.092 -10.071 -10.070
-10.066 -10.062 -10.062 -10.059 -10.057 -10.056 -10.041 -10.037
-10.035 -10.034 -10.021 -10.020 -10.019 -10.018  -1.020  -1.014
 -1.004  -1.000  -0.970  -0.968  -0.944  -0.937  -0.932  -0.927
 -0.764  -0.762  -0.727  -0.723  -0.711  -0.705  -0.696  -0.667
 -0.659  -0.611  -0.596  -0.578  -0.545  -0.545  -0.538  -0.536
 -0.514  -0.510  -0.484  -0.474  -0.465  -0.454  -0.453  -0.447
 -0.437  -0.432  -0.429  -0.417  -0.414  -0.410  -0.408  -0.400
 -0.390  -0.378  -0.374  -0.367  -0.362  -0.357  -0.351  -0.347
 -0.341  -0.337  -0.336  -0.330  -0.329  -0.325  -0.323  -0.312
 -0.308  -0.306  -0.304  -0.301  -0.291  -0.290  -0.277  -0.275
 -0.272  -0.259  -0.254  -0.248  -0.246  -0.235  -0.232  -0.186
 -0.177  -0.174  -0.166  -0.160  -0.156  -0.147  -0.145  -0.143
 -0.142

          Ground-State Mulliken Net Atomic Charges

     Atom                 Charge (a.u.)
  ----------------------------------------
      1 O                    -0.207305
      2 C                     0.214918
      3 C                    -0.077959
      4 C                    -0.081356
      5 C                     0.216295
      6 O                    -0.181653
      7 C                    -0.046892
      8 C                    -0.046498
      9 O                    -0.177549
     10 C                     0.216457
     11 C                    -0.078172
     12 C                    -0.078698
     13 C                     0.211537
     14 O                    -0.213416
     15 O                    -0.168929
     16 O                    -0.169207
     17 O                    -0.210275
     18 C                    -0.128706
     19 C                     0.024571
     20 C                    -0.143942
     21 C                    -0.143935
     22 C                     0.025924
     23 O                    -0.185899
     24 H                     0.084556
     25 H                     0.085476
     26 H                     0.090074
     27 H                     0.077987
     28 H                     0.072928
     29 H                     0.077812
     30 H                     0.073815
     31 H                     0.082440
     32 O                    -0.212781
     33 C                    -0.128200
     34 C                     0.025185
     35 C                    -0.143837
     36 C                    -0.143891
     37 C                     0.024771
     38 O                    -0.188939
     39 H                     0.087105
     40 H                     0.083405
     41 H                     0.089820
     42 H                     0.084948
     43 H                     0.078391
     44 H                     0.073610
     45 H                     0.078327
     46 H                     0.073192
     47 H                     0.089922
     48 H                     0.092321
     49 H                     0.092259
     50 H                     0.091421
     51 H                     0.087782
     52 H                     0.087210
     53 H                     0.091416
     54 H                     0.086486
     55 H                     0.090346
     56 H                     0.095333
  ----------------------------------------
  Sum of atomic charges =     0.000000

                    Cartesian Multipole Moments
 -----------------------------------------------------------------
    Charge (ESU x 10^10)
                 0.0000
    Dipole Moment (Debye)
         X      -0.9370      Y       1.5284      Z      -1.4255
       Tot       2.2904
    Quadrupole Moments (Debye-Ang)
        XX    -143.2456     XY       1.9802     YY    -146.6781
        XZ      16.5684     YZ       9.0302     ZZ    -171.3788

 Total job time:  75.21s(wall), 3571.25s(cpu)
        *  Thank you very much for using Q-Chem.  Have a nice day.  *
