 Q-Chem 5.0, Q-Chem, Inc., Pleasanton, CA (2017)
 Q-Chem 5.0.1 for Intel X86 EM64T Linux

User input:
--------------------------------------------------------------
$molecule
0  1
O -3.94934 -3.66094 2.70899
C -3.26408 -4.56952 2.26188
C -3.36658 -6.02376 2.66595
C -3.85957 -6.32399 4.09097
C -4.36389 -5.14454 4.89263
O -3.42981 -4.78052 5.82021
C -4.00317 -4.37553 7.06781
C -2.90331 -3.98508 8.04964
O -3.32335 -2.85573 8.8313
C -2.638 -2.65749 9.98462
C -3.12594 -1.45698 10.76007
C -3.9817 -1.78622 11.99196
C -3.92832 -3.22383 12.46854
O -4.89264 -3.96417 12.59724
O -2.2357 -4.2589 1.42945
O -2.70713 -3.7078 12.82544
O -1.74882 -3.39915 10.38461
C -2.47787 -4.98454 13.29423
C -2.01981 -0.5947 11.39508
C -2.54165 0.82473 11.61725
C -3.52935 0.59213 12.74609
C -3.27861 -0.8938 13.0319
O -1.91649 -1.07227 12.71493
H -3.71401 -0.82671 10.05256
H -5.05354 -1.52898 11.83899
H -1.08057 -0.57908 10.80043
H -1.68885 1.42405 12.00967
H -2.95858 1.32986 10.71955
H -3.22429 1.21929 13.61295
H -4.59472 0.78259 12.49241
H -3.57655 -1.15177 14.07221
O -5.55046 -4.84009 4.97376
C -1.95083 -2.98377 0.98774
C -4.47258 -6.72267 1.8459
C -4.22105 -8.2292 1.80589
C -4.56334 -8.60685 3.23023
C -5.04744 -7.25374 3.76397
O -5.62439 -6.63068 2.64481
H -2.39924 -6.51666 2.41688
H -3.10167 -6.86994 4.69812
H -1.72335 -2.32125 1.85011
H -4.56549 -6.32682 0.81014
H -4.98721 -8.67075 1.12872
H -3.20962 -8.53527 1.46214
H -5.40013 -9.34004 3.20751
H -3.72018 -9.01062 3.83145
H -5.71757 -7.40783 4.63879
H -2.81236 -2.57563 0.41707
H -1.06508 -3.01912 0.32089
H -1.39552 -5.10519 13.50478
H -2.77908 -5.732 12.52943
H -3.04668 -5.15563 14.23305
H -2.61112 -4.8828 8.64031
H -2.0153 -3.63804 7.47584
H -4.6835 -5.13315 7.51836
H -4.59222 -3.45287 6.85618
$end

$opt
CONSTRAINT
tors           1           2           3           4     -28.421
tors           3           4           5           6    -104.211
tors           4           5           6           7    -142.105
tors           5           6           7           8    -180.000
tors           6           7           8           9    +142.105
tors           7           8           9          10    +161.053
tors           8           9          10          11    -180.000
tors           9          10          11          12    +104.211
tors          11          12          13          14    -123.158
ENDCONSTRAINT
$end

$rem
JOBTYPE                   OPT
METHOD                    B3LYP
DFT_D                     d3_op
BASIS                     STO-3G
GEOM_OPT_MAX_CYCLES       100
GEOM_OPT_TOL_GRADIENT     300
GEOM_OPT_TOL_DISPLACEMENT 1200
GEOM_OPT_TOL_ENERGY       100
SYMMETRY                  False
THRESH                    12
SCF_CONVERGENCE           8
MAX_SUB_FILE_NUM          128
MEM_STATIC                400
MEM_TOTAL                 4000
$end
--------------------------------------------------------------

   15   -1510.1391691888      5.76E-09 Convergence criterion met
 Total energy in the final basis set = -1510.13916919
   13   -1510.2087636599      7.05E-09 Convergence criterion met
 Total energy in the final basis set = -1510.20876366
   13   -1510.2459418019      7.74E-09 Convergence criterion met
 Total energy in the final basis set = -1510.24594180
   13   -1510.2614100226      6.96E-09 Convergence criterion met
 Total energy in the final basis set = -1510.26141002
   13   -1510.2656561937      5.60E-09 Convergence criterion met
 Total energy in the final basis set = -1510.26565619
   12   -1510.2667789658      6.86E-09 Convergence criterion met
 Total energy in the final basis set = -1510.26677897
   13   -1510.2672231864      1.89E-09 Convergence criterion met
 Total energy in the final basis set = -1510.26722319
   12   -1510.2673473858      4.78E-09 Convergence criterion met
   11   -1510.2678317980      5.91E-09 Convergence criterion met
 Total energy in the final basis set = -1510.26783180
   11   -1510.2678483105      7.01E-09 Convergence criterion met
 Total energy in the final basis set = -1510.26784831
   11   -1510.2678562088      3.46E-09 Convergence criterion met
 Total energy in the final basis set = -1510.26785621
    9   -1510.2678603951      6.83E-09 Convergence criterion met
 Total energy in the final basis set = -1510.26786040
    9   -1510.2678624048      7.46E-09 Convergence criterion met
 Total energy in the final basis set = -1510.26786240
    9   -1510.2678640258      6.93E-09 Convergence criterion met
 Total energy in the final basis set = -1510.26786403

             Standard Nuclear Orientation (Angstroms)
    I     Atom           X                Y                Z
 ----------------------------------------------------------------
    1      O      -4.0369855423     1.9139163845     0.6473220372
    2      C      -4.8710242179     1.5547686695    -0.2141167388
    3      C      -5.2557474821     0.0933207704    -0.6090856433
    4      C      -4.0726244002    -0.9332006789    -0.3832768724
    5      C      -2.8922998902    -0.3827257581     0.5143776484
    6      O      -1.7747228510    -0.0505691782    -0.3420323318
    7      C      -0.5037754193    -0.4124352370     0.3288410075
    8      C       0.6524740876    -0.0244341728    -0.6558361621
    9      O       1.7702661502     0.5099634447     0.1618061642
   10      C       2.9964067465     0.4737421232    -0.5846047265
   11      C       4.1289369590     1.0490398219     0.3332008772
   12      C       5.1155552329    -0.0324863784     0.9602633117
   13      C       4.7995373613    -1.5287705690     0.6219016520
   14      O       4.5925089184    -2.4518156942     1.4411890738
   15      O      -5.6745895436     2.4581451878    -0.9779099672
   16      O       4.8589902938    -1.7142066761    -0.7938059437
   17      O       3.0748717367     0.0922896455    -1.7715303833
   18      C       4.5748364940    -3.1258873008    -1.1373238892
   19      C       5.1507645077     1.9220890893    -0.5153191423
   20      C       5.9927467234     2.8110503130     0.4832974299
   21      C       6.9727531304     1.7390467247     1.0898214910
   22      C       6.5023790879     0.4348548392     0.3315986541
   23      O       6.1274368124     0.9278437136    -1.0109704294
   24      H       3.6472498583     1.6392712295     1.1325995028
   25      H       5.1264369507     0.0512200757     2.0613311814
   26      H       4.6908886818     2.4659758015    -1.3629415384
   27      H       6.5391072629     3.5954568857    -0.0640694141
   28      H       5.3584757822     3.2878504027     1.2475929584
   29      H       8.0225664670     1.9672031016     0.8457661290
   30      H       6.8771237492     1.6421144880     2.1831456487
   31      H       7.2629538008    -0.3658747248     0.2518988511
   32      O      -2.8105264079    -0.4606674976     1.7582538930
   33      C      -5.3729251631     3.8564383344    -0.5903690023
   34      C      -6.4077980131    -0.5545108764     0.2839644208
   35      C      -7.0350249651    -1.7335046176    -0.5586418022
   36      C      -5.8692266098    -2.7895348418    -0.5009526204
   37      C      -4.8317903510    -2.0574548911     0.4410804577
   38      O      -5.6793290770    -1.2608819331     1.3589963156
   39      H      -5.5691352505     0.1091419572    -1.6682475179
   40      H      -3.6547732051    -1.2936796990    -1.3391432127
   41      H      -4.3105483291     4.1115469454    -0.7812393486
   42      H      -7.1324869517     0.1670156601     0.7088889513
   43      H      -7.9456804675    -2.1120958700    -0.0672020641
   44      H      -7.2878350856    -1.4276511333    -1.5863420767
   45      H      -6.2015136247    -3.7367652032    -0.0477620213
   46      H      -5.4431080816    -3.0047558594    -1.4941055578
   47      H      -4.1655545455    -2.7259483234     1.0194592649
   48      H      -5.5913093050     4.0384651022     0.4817033348
   49      H      -6.0254109004     4.4934389083    -1.2154096244
   50      H       4.6472239811    -3.1886408495    -2.2385566699
   51      H       3.5572038283    -3.4283938986    -0.8154261611
   52      H       5.3094744213    -3.8164359406    -0.6747816496
   53      H       0.9902920397    -0.8906065683    -1.2628345414
   54      H       0.2824475526     0.7578839609    -1.3561384194
   55      H      -0.4809556563    -1.4979617127     0.5672319855
   56      H      -0.3746228699     0.1488226311     1.2818906722
 ----------------------------------------------------------------

    9   -1510.2678645017      3.76E-09 Convergence criterion met
 Total energy in the final basis set = -1510.26786450
 Final energy is   -1510.26786450172
 **  OPTIMIZATION CONVERGED  **

                    Orbital Energies (a.u.)
 --------------------------------------------------------------

 Alpha MOs
 -- Occupied --
-18.940 -18.933 -18.930 -18.913 -18.890 -18.888 -18.882 -18.874
-18.870 -18.870 -10.103 -10.096 -10.095 -10.092 -10.070 -10.068
-10.068 -10.063 -10.061 -10.060 -10.060 -10.059 -10.039 -10.037
-10.036 -10.035 -10.022 -10.021 -10.020 -10.019  -1.016  -1.011
 -1.006  -0.999  -0.972  -0.969  -0.941  -0.936  -0.931  -0.925
 -0.764  -0.762  -0.726  -0.722  -0.712  -0.706  -0.696  -0.666
 -0.658  -0.612  -0.596  -0.577  -0.547  -0.545  -0.539  -0.537
 -0.515  -0.512  -0.482  -0.473  -0.464  -0.460  -0.451  -0.440
 -0.435  -0.431  -0.424  -0.415  -0.411  -0.411  -0.408  -0.399
 -0.391  -0.377  -0.375  -0.367  -0.360  -0.358  -0.349  -0.348
 -0.343  -0.340  -0.334  -0.332  -0.330  -0.328  -0.325  -0.312
 -0.307  -0.305  -0.305  -0.303  -0.297  -0.282  -0.280  -0.276
 -0.271  -0.258  -0.253  -0.245  -0.240  -0.235  -0.234  -0.182
 -0.179  -0.170  -0.166  -0.156  -0.152  -0.147  -0.146  -0.143
 -0.141

          Ground-State Mulliken Net Atomic Charges

     Atom                 Charge (a.u.)
  ----------------------------------------
      1 O                    -0.204483
      2 C                     0.209976
      3 C                    -0.080361
      4 C                    -0.079984
      5 C                     0.214026
      6 O                    -0.185533
      7 C                    -0.047334
      8 C                    -0.049384
      9 O                    -0.174190
     10 C                     0.205978
     11 C                    -0.078911
     12 C                    -0.079131
     13 C                     0.202662
     14 O                    -0.215858
     15 O                    -0.168914
     16 O                    -0.160899
     17 O                    -0.204949
     18 C                    -0.126893
     19 C                     0.026935
     20 C                    -0.144205
     21 C                    -0.143815
     22 C                     0.027017
     23 O                    -0.182580
     24 H                     0.086756
     25 H                     0.085309
     26 H                     0.085013
     27 H                     0.078016
     28 H                     0.073883
     29 H                     0.077966
     30 H                     0.074136
     31 H                     0.083439
     32 O                    -0.201870
     33 C                    -0.128711
     34 C                     0.026201
     35 C                    -0.142239
     36 C                    -0.145246
     37 C                     0.026784
     38 O                    -0.183537
     39 H                     0.085535
     40 H                     0.084564
     41 H                     0.090889
     42 H                     0.084440
     43 H                     0.078570
     44 H                     0.074286
     45 H                     0.078661
     46 H                     0.073539
     47 H                     0.085509
     48 H                     0.090799
     49 H                     0.091355
     50 H                     0.093919
     51 H                     0.085945
     52 H                     0.087832
     53 H                     0.091391
     54 H                     0.090478
     55 H                     0.080474
     56 H                     0.096744
  ----------------------------------------
  Sum of atomic charges =    -0.000000

                    Cartesian Multipole Moments
 -----------------------------------------------------------------
    Charge (ESU x 10^10)
                 0.0000
    Dipole Moment (Debye)
         X      -1.1767      Y       0.6018      Z      -1.7030
       Tot       2.1557
    Quadrupole Moments (Debye-Ang)
        XX    -144.9033     XY       2.9399     YY    -145.8736
        XZ      18.3669     YZ       6.2363     ZZ    -170.3097

 Total job time:  53.85s(wall), 2552.95s(cpu)
        *  Thank you very much for using Q-Chem.  Have a nice day.  *
