 Q-Chem 5.0, Q-Chem, Inc., Pleasanton, CA (2017)
 Q-Chem 5.0.1 for Intel X86 EM64T Linux

User input:
--------------------------------------------------------------
$molecule
0  1
O -3.94934 -3.66094 2.70899
C -3.26408 -4.56952 2.26188
C -3.36658 -6.02376 2.66595
C -4.25419 -6.35572 3.87665
C -5.08044 -5.22016 4.4387
O -4.25913 -4.27103 4.97724
C -4.2296 -4.29818 6.4082
C -2.79811 -4.48294 6.90098
O -2.80446 -4.94632 8.26043
C -1.84923 -5.85773 8.57029
C -2.41903 -7.14263 9.12256
C -3.75845 -6.99308 9.85867
C -4.49485 -5.68805 9.6321
O -5.37697 -5.23822 10.3491
O -2.39995 -4.29792 1.24895
O -5.12371 -5.86243 8.45164
O -0.73161 -5.82709 8.07162
C -6.47295 -5.61525 8.1456
C -2.75466 -8.25234 8.10557
C -2.6444 -9.6103 8.79629
C -3.83463 -9.54653 9.73887
C -4.48486 -8.23564 9.27413
O -4.14381 -8.16123 7.90721
H -1.63602 -7.52426 9.81786
H -3.60481 -7.05992 10.9586
H -2.12411 -8.22058 7.19075
H -2.84768 -10.37874 8.01575
H -1.67023 -9.83652 9.28033
H -4.49044 -10.42093 9.53233
H -3.58252 -9.50207 10.82025
H -5.5707 -8.22797 9.51216
O -6.30117 -5.16445 4.49115
C -2.20022 -3.04281 0.71351
C -4.02898 -6.88318 1.57679
C -3.61845 -8.34515 1.74662
C -4.409 -8.71863 2.98322
C -5.17241 -7.41362 3.23225
O -5.38828 -6.90016 1.93944
H -2.32141 -6.35905 2.85301
H -3.67476 -6.78758 4.72339
H -1.82883 -2.34759 1.49655
H -3.80061 -6.53622 0.54519
H -4.02873 -8.91183 0.88029
H -2.5223 -8.51546 1.81316
H -5.12211 -9.52878 2.71175
H -3.80232 -9.02756 3.86199
H -6.08239 -7.61862 3.83798
H -3.14863 -2.65411 0.28474
H -1.44332 -3.10836 -0.09475
H -6.70542 -4.53434 8.25983
H -7.13506 -6.2121 8.80846
H -6.69057 -5.92153 7.10301
H -2.29431 -5.22087 6.23083
H -2.25935 -3.51501 6.82277
H -4.61787 -5.25566 6.5998
H -4.76545 -3.44961 6.88335
$end

$opt
CONSTRAINT
tors           1           2           3           4      -9.474
tors           3           4           5           6     -66.316
tors           4           5           6           7    -104.211
tors           5           6           7           8    +123.158
tors           6           7           8           9    -161.053
tors           7           8           9          10    +142.105
tors           8           9          10          11    -123.158
tors           9          10          11          12     -28.421
tors          11          12          13          14    -161.053
ENDCONSTRAINT
$end

$rem
JOBTYPE                   OPT
METHOD                    B3LYP
DFT_D                     d3_op
BASIS                     STO-3G
GEOM_OPT_MAX_CYCLES       100
GEOM_OPT_TOL_GRADIENT     300
GEOM_OPT_TOL_DISPLACEMENT 1200
GEOM_OPT_TOL_ENERGY       100
SYMMETRY                  False
THRESH                    12
SCF_CONVERGENCE           8
MAX_SUB_FILE_NUM          128
MEM_STATIC                400
MEM_TOTAL                 4000
$end
--------------------------------------------------------------

   15   -1510.0244092426      8.70E-09 Convergence criterion met
 Total energy in the final basis set = -1510.02440924
   14   -1510.1089663069      8.86E-09 Convergence criterion met
 Total energy in the final basis set = -1510.10896631
   15   -1510.1536488441      2.49E-09 Convergence criterion met
 Total energy in the final basis set = -1510.15364884
   15   -1510.1894138616      2.63E-09 Convergence criterion met
 Total energy in the final basis set = -1510.18941386
   14   -1510.2071716615      6.66E-09 Convergence criterion met
 Total energy in the final basis set = -1510.20717166
   14   -1510.2183123815      4.23E-09 Convergence criterion met
 Total energy in the final basis set = -1510.21831238
   14   -1510.2256197288      4.71E-09 Convergence criterion met
 Total energy in the final basis set = -1510.22561973
   14   -1510.2302386069      3.13E-09 Convergence criterion met
   11   -1510.2359444649      8.99E-09 Convergence criterion met
 Total energy in the final basis set = -1510.23594446
   11   -1510.2359779420      7.15E-09 Convergence criterion met
 Total energy in the final basis set = -1510.23597794
   11   -1510.2360031758      6.89E-09 Convergence criterion met
 Total energy in the final basis set = -1510.23600318
   10   -1510.2360281312      6.99E-09 Convergence criterion met
 Total energy in the final basis set = -1510.23602813
    9   -1510.2360336713      8.56E-09 Convergence criterion met
 Total energy in the final basis set = -1510.23603367
    9   -1510.2360366293      5.05E-09 Convergence criterion met
 Total energy in the final basis set = -1510.23603663

             Standard Nuclear Orientation (Angstroms)
    I     Atom           X                Y                Z
 ----------------------------------------------------------------
    1      O       3.8504025523    -1.4765036236     0.6701503049
    2      C       4.0813252903    -0.7183719870    -0.3077533100
    3      C       3.1894985459     0.5012720189    -0.6982722547
    4      C       1.8744379591     0.4528288256     0.1641704970
    5      C       1.6591641176    -0.9063918822     0.9509672722
    6      O       1.4322632946    -2.0213387531     0.0143838526
    7      C      -0.0183731533    -2.3137396968     0.0645654942
    8      C      -0.6830962764    -2.2136246689    -1.3536849612
    9      O      -2.1282589430    -2.0632423535    -1.0163735024
   10      C      -2.7459225578    -1.1436780644    -1.9283911200
   11      C      -3.4539153260     0.0970658037    -1.2669076889
   12      C      -4.0873323556     0.1022516335     0.1837970282
   13      C      -3.5077740402    -0.7041073889     1.4097181122
   14      O      -4.1873634069    -0.9666548017     2.4289468711
   15      O       5.2012475281    -0.8374368838    -1.1701042905
   16      O      -2.0721795635    -0.7382413762     1.4298793591
   17      O      -2.6404952803    -1.2408481415    -3.1736823850
   18      C      -1.6058355646    -1.0956109051     2.7981335762
   19      C      -2.5422458927     1.4164433589    -1.2369318003
   20      C      -3.4855297367     2.6074753467    -1.6554680206
   21      C      -4.4538360598     2.6381604473    -0.4138622283
   22      C      -3.7424554383     1.6225396036     0.5699113220
   23      O      -2.3091302558     1.6917697094     0.1960159537
   24      H      -4.2904727016     0.3087602444    -1.9585813852
   25      H      -5.1738440211    -0.0908960460     0.1467473950
   26      H      -1.5828871744     1.3427945465    -1.7851053333
   27      H      -2.9079359936     3.5427612737    -1.7370994284
   28      H      -4.0080485962     2.4259047002    -2.6082349503
   29      H      -4.5072920060     3.6406857843     0.0389228612
   30      H      -5.4755722815     2.3117115794    -0.6669945500
   31      H      -3.8727101159     1.8528170923     1.6453517208
   32      O       1.4115543941    -0.9781017487     2.1749190582
   33      C       6.0408411467    -1.9897057368    -0.7566316902
   34      C       3.8381431561     1.8504840310    -0.1597439657
   35      C       2.9665655012     3.0699516768    -0.6649406247
   36      C       1.7318671893     2.9954833789     0.3107467625
   37      C       2.0790668446     1.6919849109     1.1264510468
   38      O       3.5513992822     1.7789108552     1.2906340539
   39      H       3.0120252639     0.5173110093    -1.7880992268
   40      H       0.9801365228     0.5891636838    -0.4717119599
   41      H       5.4645742878    -2.9367842556    -0.7807474120
   42      H       4.9269715571     1.9381037439    -0.3428898281
   43      H       3.5218740092     4.0140568957    -0.5473091456
   44      H       2.6795832471     2.9595263658    -1.7230647140
   45      H       1.6939660334     3.8706455388     0.9788006175
   46      H       0.7687285578     2.9113380482    -0.2179918272
   47      H       1.5833998317     1.5812291894     2.1104971173
   48      H       6.4475950102    -1.8467596233     0.2650768861
   49      H       6.8701945009    -2.0367352505    -1.4858586419
   50      H      -1.9298606906    -2.1168492789     3.0820366662
   51      H      -1.9947431594    -0.3788771755     3.5480188751
   52      H      -0.4955691157    -1.0511090101     2.7595767788
   53      H      -0.2950197207    -1.3318769832    -1.9050987392
   54      H      -0.5079730095    -3.1191486545    -1.9751161526
   55      H      -0.6076563888    -1.6087539135     0.6862467696
   56      H      -0.1775474691    -3.3394950766     0.4629957312
 ----------------------------------------------------------------

    9   -1510.2360366907      3.29E-09 Convergence criterion met
 Total energy in the final basis set = -1510.23603669
 Final energy is   -1510.23603669066
 **  OPTIMIZATION CONVERGED  **

                    Orbital Energies (a.u.)
 --------------------------------------------------------------

 Alpha MOs
 -- Occupied --
-18.958 -18.936 -18.913 -18.900 -18.898 -18.888 -18.884 -18.882
-18.873 -18.871 -10.115 -10.104 -10.099 -10.096 -10.075 -10.070
-10.067 -10.065 -10.064 -10.056 -10.048 -10.045 -10.044 -10.042
-10.040 -10.032 -10.028 -10.027 -10.023 -10.019  -1.029  -1.010
 -1.006  -0.988  -0.980  -0.971  -0.952  -0.936  -0.931  -0.917
 -0.767  -0.765  -0.727  -0.725  -0.711  -0.706  -0.691  -0.673
 -0.654  -0.606  -0.601  -0.576  -0.549  -0.547  -0.544  -0.538
 -0.522  -0.512  -0.486  -0.485  -0.469  -0.460  -0.453  -0.442
 -0.435  -0.430  -0.426  -0.421  -0.418  -0.413  -0.404  -0.393
 -0.388  -0.383  -0.378  -0.372  -0.361  -0.359  -0.353  -0.348
 -0.347  -0.342  -0.338  -0.332  -0.327  -0.324  -0.319  -0.317
 -0.314  -0.314  -0.303  -0.301  -0.300  -0.292  -0.283  -0.273
 -0.271  -0.263  -0.247  -0.246  -0.239  -0.235  -0.230  -0.193
 -0.178  -0.167  -0.166  -0.156  -0.152  -0.150  -0.148  -0.141
 -0.138

          Ground-State Mulliken Net Atomic Charges

     Atom                 Charge (a.u.)
  ----------------------------------------
      1 O                    -0.189750
      2 C                     0.223277
      3 C                    -0.078440
      4 C                    -0.081842
      5 C                     0.230918
      6 O                    -0.201995
      7 C                    -0.068489
      8 C                    -0.045630
      9 O                    -0.185604
     10 C                     0.210292
     11 C                    -0.083031
     12 C                    -0.075754
     13 C                     0.211507
     14 O                    -0.214317
     15 O                    -0.161635
     16 O                    -0.164905
     17 O                    -0.202094
     18 C                    -0.138106
     19 C                     0.025425
     20 C                    -0.140561
     21 C                    -0.145653
     22 C                     0.024816
     23 O                    -0.188278
     24 H                     0.084522
     25 H                     0.087870
     26 H                     0.078753
     27 H                     0.077785
     28 H                     0.077249
     29 H                     0.079889
     30 H                     0.076195
     31 H                     0.084442
     32 O                    -0.210409
     33 C                    -0.127314
     34 C                     0.024959
     35 C                    -0.144226
     36 C                    -0.143029
     37 C                     0.023828
     38 O                    -0.190837
     39 H                     0.087660
     40 H                     0.079833
     41 H                     0.096409
     42 H                     0.084059
     43 H                     0.078473
     44 H                     0.072855
     45 H                     0.078482
     46 H                     0.075863
     47 H                     0.092208
     48 H                     0.094691
     49 H                     0.094837
     50 H                     0.087686
     51 H                     0.085462
     52 H                     0.107949
     53 H                     0.077552
     54 H                     0.082194
     55 H                     0.108951
     56 H                     0.075003
  ----------------------------------------
  Sum of atomic charges =     0.000000

                    Cartesian Multipole Moments
 -----------------------------------------------------------------
    Charge (ESU x 10^10)
                -0.0000
    Dipole Moment (Debye)
         X       0.6212      Y       2.5664      Z      -2.6616
       Tot       3.7492
    Quadrupole Moments (Debye-Ang)
        XX    -147.1837     XY     -10.2255     YY    -156.8725
        XZ      -5.7488     YZ      -1.0213     ZZ    -170.6944

 Total job time:  67.84s(wall), 3231.82s(cpu)
        *  Thank you very much for using Q-Chem.  Have a nice day.  *
