 Q-Chem 5.0, Q-Chem, Inc., Pleasanton, CA (2017)
 Q-Chem 5.0.1 for Intel X86 EM64T Linux

User input:
--------------------------------------------------------------
$molecule
0  1
O 3.8504025523 -1.4765036236 0.6701503049
C 4.0813252903 -0.718371987 -0.30775331
C 3.1894985459 0.5012720189 -0.6982722547
C 1.8744379591 0.4528288256 0.164170497
C 1.6591641176 -0.9063918822 0.9509672722
O 1.4322632946 -2.0213387531 0.0143838526
C -0.0183731533 -2.3137396968 0.0645654942
C -0.6830962764 -2.2136246689 -1.3536849612
O -2.128258943 -2.0632423535 -1.0163735024
C -2.7459225578 -1.1436780644 -1.92839112
C -3.453915326 0.0970658037 -1.2669076889
C -4.0873323556 0.1022516335 0.1837970282
C -3.5077740402 -0.7041073889 1.4097181122
O -4.1873634069 -0.9666548017 2.4289468711
O 5.2012475281 -0.8374368838 -1.1701042905
O -2.0721795635 -0.7382413762 1.4298793591
O -2.6404952803 -1.2408481415 -3.173682385
C -1.6058355646 -1.0956109051 2.7981335762
C -2.5422458927 1.4164433589 -1.2369318003
C -3.4855297367 2.6074753467 -1.6554680206
C -4.4538360598 2.6381604473 -0.4138622283
C -3.7424554383 1.6225396036 0.569911322
O -2.3091302558 1.6917697094 0.1960159537
H -4.2904727016 0.3087602444 -1.9585813852
H -5.1738440211 -0.090896046 0.146747395
H -1.5828871744 1.3427945465 -1.7851053333
H -2.9079359936 3.5427612737 -1.7370994284
H -4.0080485962 2.4259047002 -2.6082349503
H -4.507292006 3.6406857843 0.0389228612
H -5.4755722815 2.3117115794 -0.66699455
H -3.8727101159 1.8528170923 1.6453517208
O 1.4115543941 -0.9781017487 2.1749190582
C 6.0408411467 -1.9897057368 -0.7566316902
C 3.8381431561 1.850484031 -0.1597439657
C 2.9665655012 3.0699516768 -0.6649406247
C 1.7318671893 2.9954833789 0.3107467625
C 2.0790668446 1.6919849109 1.1264510468
O 3.5513992822 1.7789108552 1.2906340539
H 3.0120252639 0.5173110093 -1.7880992268
H 0.9801365228 0.5891636838 -0.4717119599
H 5.4645742878 -2.9367842556 -0.780747412
H 4.9269715571 1.9381037439 -0.3428898281
H 3.5218740092 4.0140568957 -0.5473091456
H 2.6795832471 2.9595263658 -1.723064714
H 1.6939660334 3.8706455388 0.9788006175
H 0.7687285578 2.9113380482 -0.2179918272
H 1.5833998317 1.5812291894 2.1104971173
H 6.4475950102 -1.8467596233 0.2650768861
H 6.8701945009 -2.0367352505 -1.4858586419
H -1.9298606906 -2.1168492789 3.0820366662
H -1.9947431594 -0.3788771755 3.5480188751
H -0.4955691157 -1.0511090101 2.7595767788
H -0.2950197207 -1.3318769832 -1.9050987392
H -0.5079730095 -3.1191486545 -1.9751161526
H -0.6076563888 -1.6087539135 0.6862467696
H -0.1775474691 -3.3394950766 0.4629957312
$end

$rem
JOBTYPE                   OPT
METHOD                    B3LYP
DFT_D                     d3_op
BASIS                     STO-3G
GEOM_OPT_MAX_CYCLES       100
GEOM_OPT_TOL_GRADIENT     300
GEOM_OPT_TOL_DISPLACEMENT 1200
GEOM_OPT_TOL_ENERGY       100
SYMMETRY                  False
THRESH                    12
SCF_CONVERGENCE           8
MAX_SUB_FILE_NUM          128
MEM_STATIC                400
MEM_TOTAL                 4000
$end
--------------------------------------------------------------

   16   -1510.2362185695      6.39E-09 Convergence criterion met
 Total energy in the final basis set = -1510.23621857
   14   -1510.2408448328      5.79E-09 Convergence criterion met
 Total energy in the final basis set = -1510.24084483
   14   -1510.2436989313      4.27E-09 Convergence criterion met
 Total energy in the final basis set = -1510.24369893
   14   -1510.2470014856      8.26E-09 Convergence criterion met
 Total energy in the final basis set = -1510.24700149
   14   -1510.2535224073      6.10E-09 Convergence criterion met
 Total energy in the final basis set = -1510.25352241
   14   -1510.2591955655      2.84E-09 Convergence criterion met
 Total energy in the final basis set = -1510.25919557
   14   -1510.2648972054      3.75E-09 Convergence criterion met
 Total energy in the final basis set = -1510.26489721
   14   -1510.2696488463      2.41E-09 Convergence criterion met
   13   -1510.2943244194      2.50E-09 Convergence criterion met
 Total energy in the final basis set = -1510.29432442
   13   -1510.2941284536      3.55E-09 Convergence criterion met
 Total energy in the final basis set = -1510.29412845
   13   -1510.2943179029      3.45E-09 Convergence criterion met
 Total energy in the final basis set = -1510.29431790
   10   -1510.2943197930      6.21E-09 Convergence criterion met
 Total energy in the final basis set = -1510.29431979
    9   -1510.2943056666      5.17E-09 Convergence criterion met
 Total energy in the final basis set = -1510.29430567
    9   -1510.2943039664      5.14E-09 Convergence criterion met
 Total energy in the final basis set = -1510.29430397

             Standard Nuclear Orientation (Angstroms)
    I     Atom           X                Y                Z
 ----------------------------------------------------------------
    1      O      -2.2181707508     0.8276065047     0.4297072612
    2      C      -3.4624836201     0.8212111715     0.2793280822
    3      C      -4.3067658622    -0.2365995036    -0.5062181675
    4      C      -3.3998487056    -1.2981507793    -1.2541307949
    5      C      -1.8563749003    -1.0241373084    -1.1134656391
    6      O      -1.5067533756    -0.0410520382    -2.0960399008
    7      C      -0.1266976424     0.4643789034    -1.8994869944
    8      C       0.9930678761    -0.5932103130    -2.2169272509
    9      O       2.2724897896     0.0506033541    -1.8372479326
   10      C       3.1804888157    -0.8934835222    -1.2498085786
   11      C       4.4091879737    -0.0645680791    -0.7354637941
   12      C       3.9966459763     1.0561313023     0.3113218503
   13      C       2.4694546130     1.0453391785     0.6712428134
   14      O       1.6662556981     2.0031558781     0.5981775765
   15      O      -4.3372284373     1.8003418219     0.8339443618
   16      O       2.1383797705    -0.2611452785     1.1420278662
   17      O       2.9922266587    -2.1256405830    -1.1965199586
   18      C       0.7212337542    -0.3369564857     1.5777255744
   19      C       5.4087346420    -0.9424468791     0.1226436071
   20      C       6.7796679851    -0.1656019346     0.2251813663
   21      C       6.3979041212     0.9842788027     1.2304205979
   22      C       4.8919625097     0.6249808903     1.5529099688
   23      O       4.8632952745    -0.8531875589     1.4971319656
   24      H       4.9115191698     0.3866970999    -1.6109773385
   25      H       4.2529211837     2.0661913199    -0.0528172284
   26      H       5.4717938475    -1.9997505297    -0.2004961649
   27      H       7.5625176258    -0.8199691324     0.6404317310
   28      H       7.1180252982     0.2164468171    -0.7513138903
   29      H       7.0091437608     0.9405386246     2.1457867688
   30      H       6.4975062953     1.9878152335     0.7865484875
   31      H       4.5213593943     0.9829027944     2.5330731700
   32      O      -1.0536387202    -1.6576133789    -0.3893756874
   33      C      -3.5560722736     2.7974878972     1.6053355983
   34      C      -5.1113375224    -1.1843120171     0.4887639822
   35      C      -6.1675105346    -2.0044315249    -0.3533712050
   36      C      -5.2421458427    -3.0696348776    -1.0504520327
   37      C      -3.8235682468    -2.6353673041    -0.5136597229
   38      O      -4.1007040810    -2.1931333918     0.8736824083
   39      H      -4.9878163076     0.2906967683    -1.1980698854
   40      H      -3.6442103675    -1.3264855802    -2.3309623810
   41      H      -2.7861762007     3.2864951999     0.9746331296
   42      H      -5.5140492212    -0.6681783979     1.3820010532
   43      H      -6.9045289096    -2.4804098069     0.3126102658
   44      H      -6.7019331053    -1.3667048975    -1.0752808184
   45      H      -5.4830535902    -4.0919182022    -0.7179198755
   46      H      -5.3011220817    -3.0318611514    -2.1498503772
   47      H      -3.0434486898    -3.4212525185    -0.5165745158
   48      H      -3.0539479683     2.3309637377     2.4774075890
   49      H      -4.2859759801     3.5500927472     1.9557393988
   50      H       0.2984691540     0.6820645077     1.6792125327
   51      H       0.7041987197    -0.8577311752     2.5535158073
   52      H       0.1202642826    -0.9108346090     0.8329517876
   53      H       0.8332762617    -1.5181428375    -1.6234400478
   54      H       0.9973616397    -0.8522943976    -3.2976873437
   55      H       0.0068057636     0.8366028133    -0.8608280356
   56      H      -0.0346703971     1.3247628354    -2.5923753353
 ----------------------------------------------------------------

    9   -1510.2943048006      3.67E-09 Convergence criterion met
 Total energy in the final basis set = -1510.29430480
 Final energy is   -1510.29430480062
 **  OPTIMIZATION CONVERGED  **

                    Orbital Energies (a.u.)
 --------------------------------------------------------------

 Alpha MOs
 -- Occupied --
-18.949 -18.929 -18.923 -18.917 -18.891 -18.890 -18.881 -18.874
-18.872 -18.859 -10.111 -10.104 -10.094 -10.087 -10.072 -10.065
-10.064 -10.060 -10.060 -10.054 -10.052 -10.045 -10.038 -10.031
-10.029 -10.025 -10.023 -10.022 -10.015 -10.014  -1.025  -1.008
 -1.004  -0.993  -0.973  -0.963  -0.948  -0.936  -0.930  -0.920
 -0.767  -0.757  -0.727  -0.720  -0.711  -0.700  -0.692  -0.669
 -0.639  -0.613  -0.594  -0.580  -0.548  -0.540  -0.538  -0.531
 -0.515  -0.502  -0.484  -0.468  -0.463  -0.459  -0.457  -0.438
 -0.434  -0.429  -0.424  -0.418  -0.414  -0.400  -0.398  -0.394
 -0.384  -0.382  -0.371  -0.369  -0.357  -0.353  -0.350  -0.346
 -0.341  -0.339  -0.334  -0.330  -0.325  -0.324  -0.316  -0.315
 -0.309  -0.305  -0.302  -0.299  -0.291  -0.280  -0.278  -0.275
 -0.271  -0.262  -0.252  -0.240  -0.237  -0.230  -0.227  -0.190
 -0.178  -0.169  -0.165  -0.157  -0.151  -0.148  -0.146  -0.140
 -0.136

          Ground-State Mulliken Net Atomic Charges

     Atom                 Charge (a.u.)
  ----------------------------------------
      1 O                    -0.206855
      2 C                     0.216336
      3 C                    -0.077960
      4 C                    -0.081250
      5 C                     0.224992
      6 O                    -0.175598
      7 C                    -0.051570
      8 C                    -0.057699
      9 O                    -0.179979
     10 C                     0.217225
     11 C                    -0.077601
     12 C                    -0.077869
     13 C                     0.208748
     14 O                    -0.223632
     15 O                    -0.166787
     16 O                    -0.170871
     17 O                    -0.207073
     18 C                    -0.151346
     19 C                     0.024823
     20 C                    -0.143832
     21 C                    -0.144330
     22 C                     0.026185
     23 O                    -0.184276
     24 H                     0.083198
     25 H                     0.082943
     26 H                     0.089379
     27 H                     0.077260
     28 H                     0.071987
     29 H                     0.076853
     30 H                     0.072604
     31 H                     0.081991
     32 O                    -0.217947
     33 C                    -0.128246
     34 C                     0.025237
     35 C                    -0.143740
     36 C                    -0.143841
     37 C                     0.025125
     38 O                    -0.188514
     39 H                     0.088175
     40 H                     0.085500
     41 H                     0.094397
     42 H                     0.085734
     43 H                     0.079017
     44 H                     0.074026
     45 H                     0.079126
     46 H                     0.073893
     47 H                     0.090316
     48 H                     0.092273
     49 H                     0.093263
     50 H                     0.090792
     51 H                     0.080943
     52 H                     0.109458
     53 H                     0.107594
     54 H                     0.079570
     55 H                     0.103213
     56 H                     0.088641
  ----------------------------------------
  Sum of atomic charges =    -0.000000

                    Cartesian Multipole Moments
 -----------------------------------------------------------------
    Charge (ESU x 10^10)
                 0.0000
    Dipole Moment (Debye)
         X      -2.1791      Y       2.1665      Z      -1.6097
       Tot       3.4689
    Quadrupole Moments (Debye-Ang)
        XX    -134.3862     XY       6.8707     YY    -162.9197
        XZ      -0.1090     YZ       7.1784     ZZ    -155.3791

 Total job time:  221.24s(wall), 10537.91s(cpu)
        *  Thank you very much for using Q-Chem.  Have a nice day.  *
