 Q-Chem 5.0, Q-Chem, Inc., Pleasanton, CA (2017)
 Q-Chem 5.0.1 for Intel X86 EM64T Linux

User input:
--------------------------------------------------------------
$molecule
0  1
O 4.5546063892 -2.0726006964 -0.0130201501
C 5.1805810887 -0.9853451682 -0.0124106039
C 4.8493688555 0.2422714271 -0.9282868255
C 3.3044661402 0.2520058409 -1.2852233269
C 2.5396776395 -1.0747525456 -0.8743421087
O 2.0867053805 -1.0630284348 0.5113864438
C 0.6239103834 -1.274162555 0.5772653419
C -0.1394117149 0.0703698908 0.8827792101
O -1.5902122291 -0.2277300426 0.9315848271
C -2.3028823943 0.593315264 -0.0225261871
C -3.4558603776 -0.2519871988 -0.6737832208
C -4.3664239277 -1.0766677153 0.3180444401
C -4.4401810815 -0.4969036179 1.7787935305
O -5.091172698 -0.9707772392 2.7349419106
O 6.3286062451 -0.7230694409 0.7863719685
O -3.831422086 0.7982558138 1.8047524948
O -1.9188641219 1.7227707017 -0.3934314372
C -3.9326615857 1.4009275004 3.1510412662
C -4.5342236281 0.5828091181 -1.4864327692
C -5.0794587328 -0.3563793881 -2.6303641463
C -5.8782109192 -1.4121090791 -1.777872116
C -5.7919230955 -0.7789471501 -0.3315112119
O -5.698720621 0.6812158477 -0.574377425
H -2.9446307569 -0.9568907138 -1.3571531073
H -4.1161422277 -2.1514411378 0.3508121769
H -4.19072707 1.5883271967 -1.7992246164
H -5.7496641353 0.2067726487 -3.2995745713
H -4.2745841704 -0.8091004981 -3.2310659647
H -6.9272996532 -1.4914320197 -2.1039496382
H -5.4234063103 -2.4152799434 -1.8115551977
H -6.6457128472 -1.0096509372 0.3352800214
O 2.148352041 -1.9255193303 -1.7038274496
C 6.637912542 -1.9025470706 1.6306941014
C 4.9917771228 1.6115978827 -0.1447500158
C 4.8472215162 2.8033603069 -1.1702645223
C 3.2944846711 2.8036716626 -1.4229868828
C 2.8441839054 1.5748579396 -0.5381358357
O 3.735780845 1.6587547792 0.6408934346
H 5.4894084709 0.2023323164 -1.8289924882
H 3.1666884395 0.3474369422 -2.3770280134
H 6.8947008253 -2.787177376 1.012737001
H 5.8728131991 1.6573845498 0.5238309965
H 5.1848647809 3.7479754451 -0.7155220894
H 5.4266359915 2.6273043443 -2.0907416545
H 2.8254407355 3.7304071898 -1.0556798917
H 3.032958122 2.6716062522 -2.4850992982
H 1.7862444642 1.5919028314 -0.2224593863
H 5.7835717981 -2.1646857235 2.2871324989
H 7.508844737 -1.6143200927 2.2474028075
H -3.4991851501 2.4141329284 3.0636623115
H -3.3618883144 0.8154332744 3.9005752434
H -4.988522636 1.4712557796 3.4832104555
H 0.1944246804 0.4752610172 1.8623627951
H 0.0541881282 0.8390984136 0.1063479903
H 0.4202429113 -1.988910224 1.4029923918
H 0.2428438438 -1.7215232825 -0.3662717319
$end

$rem
JOBTYPE                   OPT
METHOD                    B3LYP
DFT_D                     d3_op
BASIS                     STO-3G
GEOM_OPT_MAX_CYCLES       100
GEOM_OPT_TOL_GRADIENT     300
GEOM_OPT_TOL_DISPLACEMENT 1200
GEOM_OPT_TOL_ENERGY       100
SYMMETRY                  False
THRESH                    12
SCF_CONVERGENCE           8
MAX_SUB_FILE_NUM          128
MEM_STATIC                400
MEM_TOTAL                 4000
$end
--------------------------------------------------------------

   16   -1510.2574894014      5.15E-09 Convergence criterion met
 Total energy in the final basis set = -1510.25748940
   14   -1510.2642842565      2.65E-09 Convergence criterion met
 Total energy in the final basis set = -1510.26428426
   14   -1510.2707008792      1.91E-09 Convergence criterion met
 Total energy in the final basis set = -1510.27070088
   14   -1510.2761218801      3.72E-09 Convergence criterion met
 Total energy in the final basis set = -1510.27612188
   14   -1510.2798335274      1.58E-09 Convergence criterion met
 Total energy in the final basis set = -1510.27983353
   14   -1510.2819668095      1.62E-09 Convergence criterion met
 Total energy in the final basis set = -1510.28196681
   14   -1510.2837545265      1.70E-09 Convergence criterion met
 Total energy in the final basis set = -1510.28375453
   13   -1510.2848348772      4.23E-09 Convergence criterion met
   13   -1510.2873857601      3.50E-09 Convergence criterion met
 Total energy in the final basis set = -1510.28738576
   13   -1510.2874815952      1.95E-09 Convergence criterion met
 Total energy in the final basis set = -1510.28748160
   12   -1510.2874738265      8.28E-09 Convergence criterion met
 Total energy in the final basis set = -1510.28747383
   12   -1510.2875406693      7.13E-09 Convergence criterion met
 Total energy in the final basis set = -1510.28754067
   12   -1510.2875381289      6.95E-09 Convergence criterion met
 Total energy in the final basis set = -1510.28753813
   11   -1510.2875471033      9.69E-09 Convergence criterion met
 Total energy in the final basis set = -1510.28754710

             Standard Nuclear Orientation (Angstroms)
    I     Atom           X                Y                Z
 ----------------------------------------------------------------
    1      O      -3.7466834083    -0.4505449474     1.6937789845
    2      C      -4.7632964184    -0.2775210746     0.9846582370
    3      C      -4.9798592735     0.8222696836    -0.1099270267
    4      C      -3.6448549272     1.5762797385    -0.5065944862
    5      C      -2.3581969451     1.0714277069     0.2437701732
    6      O      -1.9347299134    -0.1675989414    -0.3481267101
    7      C      -0.7103399349    -0.6602222734     0.3237538003
    8      C       0.5655566814    -0.0116771422    -0.3252330472
    9      O       1.7843397603    -0.5844530088     0.2942505763
   10      C       2.5699829875     0.4536244962     0.9044372496
   11      C       3.8459976181    -0.2111026926     1.5275286800
   12      C       4.6986031423    -1.0533965569     0.4881116284
   13      C       4.1187979597    -1.0415186739    -0.9662576673
   14      O       3.8978155830    -2.0247982646    -1.7048512385
   15      O      -5.9427392094    -1.0796307065     1.0680474310
   16      O       3.9117771982     0.3235032917    -1.3560213460
   17      O       2.2425519403     1.6583524297     0.9424346663
   18      C       3.3785554891     0.3862331523    -2.7346782575
   19      C       4.8984271981     0.8835096526     1.9777391551
   20      C       5.9385940288     0.2010641202     2.9497812233
   21      C       6.7865701895    -0.6510263976     1.9333882187
   22      C       6.0883873528    -0.2808446281     0.5647229855
   23      O       5.6850820443     1.1304912009     0.7465333474
   24      H       3.5277275937    -0.8452236853     2.3756202648
   25      H       4.7992730098    -2.1067793493     0.8022298661
   26      H       4.4385610635     1.8243599771     2.3378250667
   27      H       6.5556424112     0.9632752109     3.4514421199
   28      H       5.4464349211    -0.4174434611     3.7172880568
   29      H       7.8424586829    -0.3368695733     1.9239254427
   30      H       6.7413669467    -1.7319335493     2.1420838230
   31      H       6.7254013119    -0.3911247780    -0.3342998186
   32      O      -1.7313428854     1.6780908882     1.1388552377
   33      C      -5.7665975421    -2.1385135222     2.0893048885
   34      C      -5.4179657761     0.2114704525    -1.5105970254
   35      C      -6.0019783969     1.3796338125    -2.3975123008
   36      C      -4.6858885844     2.1498095222    -2.7877028942
   37      C      -3.5905930370     1.2681870627    -2.0652192905
   38      O      -4.1289376935    -0.1081804495    -2.1637564819
   39      H      -5.7428148297     1.5294673287     0.2655201652
   40      H      -3.7339366854     2.6584899348    -0.3068627239
   41      H      -5.6121561362    -1.7086213226     3.1000263044
   42      H      -6.0537732929    -0.6913702349    -1.4290003884
   43      H      -6.5083233305     0.9698215637    -3.2860708086
   44      H      -6.7167877371     2.0079515036    -1.8423422957
   45      H      -4.5244378426     2.1493614777    -3.8773339328
   46      H      -4.6803587725     3.1917489340    -2.4293212556
   47      H      -2.5767719522     1.3191045858    -2.5065011167
   48      H      -4.9053853379    -2.7950677864     1.8497467099
   49      H      -6.6998443003    -2.7310039654     2.0773553926
   50      H       3.1013731549     1.4423938201    -2.9076746074
   51      H       2.4873213725    -0.2610685185    -2.8603911355
   52      H       4.1421290461     0.0787345855    -3.4787410746
   53      H       0.5874928518    -0.2323977487    -1.4126432598
   54      H       0.5669175569     1.0879200332    -0.1613193581
   55      H      -0.6972407798    -1.7589063978     0.1758405169
   56      H      -0.7361941059    -0.4283271991     1.4094413219
 ----------------------------------------------------------------

    9   -1510.2875475059      6.72E-09 Convergence criterion met
 Total energy in the final basis set = -1510.28754751
 Final energy is   -1510.28754750585
 **  OPTIMIZATION CONVERGED  **

                    Orbital Energies (a.u.)
 --------------------------------------------------------------

 Alpha MOs
 -- Occupied --
-18.942 -18.930 -18.926 -18.921 -18.888 -18.885 -18.885 -18.876
-18.870 -18.862 -10.106 -10.098 -10.095 -10.091 -10.069 -10.062
-10.061 -10.060 -10.059 -10.059 -10.058 -10.055 -10.041 -10.036
-10.034 -10.034 -10.021 -10.020 -10.018 -10.017  -1.019  -1.012
 -1.002  -0.999  -0.970  -0.967  -0.943  -0.934  -0.931  -0.925
 -0.763  -0.761  -0.725  -0.722  -0.711  -0.704  -0.690  -0.666
 -0.657  -0.612  -0.596  -0.579  -0.545  -0.542  -0.537  -0.534
 -0.512  -0.509  -0.482  -0.478  -0.466  -0.464  -0.448  -0.438
 -0.434  -0.431  -0.422  -0.416  -0.412  -0.409  -0.406  -0.396
 -0.382  -0.379  -0.373  -0.366  -0.363  -0.355  -0.351  -0.347
 -0.341  -0.337  -0.331  -0.329  -0.328  -0.326  -0.321  -0.314
 -0.307  -0.305  -0.302  -0.298  -0.293  -0.290  -0.282  -0.275
 -0.270  -0.260  -0.248  -0.245  -0.239  -0.234  -0.231  -0.185
 -0.177  -0.172  -0.161  -0.158  -0.156  -0.146  -0.144  -0.142
 -0.141

          Ground-State Mulliken Net Atomic Charges

     Atom                 Charge (a.u.)
  ----------------------------------------
      1 O                    -0.207581
      2 C                     0.214760
      3 C                    -0.078184
      4 C                    -0.081288
      5 C                     0.213318
      6 O                    -0.172294
      7 C                    -0.048984
      8 C                    -0.058582
      9 O                    -0.178460
     10 C                     0.218209
     11 C                    -0.077550
     12 C                    -0.078731
     13 C                     0.212161
     14 O                    -0.214048
     15 O                    -0.169355
     16 O                    -0.168261
     17 O                    -0.207621
     18 C                    -0.127801
     19 C                     0.024827
     20 C                    -0.144023
     21 C                    -0.143905
     22 C                     0.025931
     23 O                    -0.185759
     24 H                     0.085036
     25 H                     0.085038
     26 H                     0.091165
     27 H                     0.078060
     28 H                     0.073037
     29 H                     0.077645
     30 H                     0.073495
     31 H                     0.082162
     32 O                    -0.216752
     33 C                    -0.127922
     34 C                     0.024703
     35 C                    -0.143655
     36 C                    -0.144422
     37 C                     0.026832
     38 O                    -0.186971
     39 H                     0.086277
     40 H                     0.083956
     41 H                     0.090301
     42 H                     0.088473
     43 H                     0.078063
     44 H                     0.073476
     45 H                     0.077747
     46 H                     0.073857
     47 H                     0.083932
     48 H                     0.091964
     49 H                     0.092036
     50 H                     0.091936
     51 H                     0.088186
     52 H                     0.086583
     53 H                     0.080513
     54 H                     0.103487
     55 H                     0.088526
     56 H                     0.096464
  ----------------------------------------
  Sum of atomic charges =     0.000000

                    Cartesian Multipole Moments
 -----------------------------------------------------------------
    Charge (ESU x 10^10)
                -0.0000
    Dipole Moment (Debye)
         X      -2.0088      Y      -0.7642      Z       0.3182
       Tot       2.1727
    Quadrupole Moments (Debye-Ang)
        XX    -136.9787     XY      -6.4443     YY    -163.1005
        XZ       4.1846     YZ     -12.2935     ZZ    -153.2805

 Total job time:  66.59s(wall), 3167.16s(cpu)
        *  Thank you very much for using Q-Chem.  Have a nice day.  *
