 Q-Chem 5.0, Q-Chem, Inc., Pleasanton, CA (2017)
 Q-Chem 5.0.1 for Intel X86 EM64T Linux

User input:
--------------------------------------------------------------
$molecule
0  1
O -3.94934 -3.66094 2.70899
C -3.26408 -4.56952 2.26188
C -3.36658 -6.02376 2.66595
C -4.73745 -6.52338 3.15068
C -5.89497 -5.55994 3.00924
O -6.42855 -5.65653 1.75569
C -7.82521 -5.97046 1.76082
C -8.03642 -7.43372 1.38612
O -9.43896 -7.7431 1.39283
C -9.80742 -8.76209 2.20834
C -11.13164 -8.51885 2.89239
C -12.25723 -8.03054 1.96887
C -12.0116 -8.19699 0.48271
O -12.78619 -7.86988 -0.40474
O -2.18884 -4.24216 1.4966
O -11.0755 -9.09812 0.06858
O -9.18048 -9.81051 2.29437
C -10.81614 -9.4479 -1.2422
C -11.79003 -9.76494 3.51477
C -12.75769 -9.33674 4.6174
C -13.86949 -8.71487 3.79554
C -13.36696 -9.01399 2.37887
O -12.66586 -10.22842 2.51578
H -10.92506 -7.76542 3.68574
H -12.5096 -6.96073 2.13865
H -11.06031 -10.50303 3.91233
H -13.1454 -10.26744 5.09059
H -12.32429 -8.68075 5.40273
H -14.81112 -9.27034 4.00255
H -14.02592 -7.62568 3.95334
H -14.21457 -9.01914 1.65833
O -6.4877 -5.09146 3.97356
C -1.88796 -2.96178 1.08124
C -3.1215 -6.99832 1.48111
C -2.4892 -8.27361 2.01767
C -3.6461 -8.82241 2.8178
C -4.77103 -7.86031 2.38158
O -4.39589 -7.45409 1.09445
H -2.54933 -6.17973 3.40719
H -4.67085 -6.72242 4.24404
H -1.71861 -2.30296 1.95956
H -2.49188 -6.58642 0.6632
H -2.31369 -8.93052 1.13484
H -1.53776 -8.16091 2.58069
H -3.8279 -9.86905 2.48559
H -3.51395 -8.7924 3.92131
H -5.67827 -8.43691 2.50036
H -2.71673 -2.55703 0.46167
H -0.96327 -2.98593 0.469
H -9.9956 -10.194 -1.26249
H -10.49987 -8.55283 -1.81923
H -11.71927 -9.89778 -1.70683
H -7.61027 -7.63763 0.38097
H -7.54476 -8.03709 2.1429
H -8.33753 -5.31344 1.02674
H -8.32954 -5.80635 2.74076
$end

$opt
CONSTRAINT
tors           1           2           3           4     +28.421
tors           3           4           5           6     +85.263
tors           4           5           6           7    +123.158
tors           5           6           7           8    -104.211
tors           6           7           8           9    -180.000
tors           7           8           9          10    -123.158
tors           8           9          10          11    +142.105
tors           9          10          11          12     +47.368
tors          11          12          13          14    -180.000
ENDCONSTRAINT
$end

$rem
JOBTYPE                   OPT
METHOD                    B3LYP
DFT_D                     d3_op
BASIS                     STO-3G
GEOM_OPT_MAX_CYCLES       100
GEOM_OPT_TOL_GRADIENT     300
GEOM_OPT_TOL_DISPLACEMENT 1200
GEOM_OPT_TOL_ENERGY       100
SYMMETRY                  False
THRESH                    12
SCF_CONVERGENCE           8
MAX_SUB_FILE_NUM          128
MEM_STATIC                400
MEM_TOTAL                 4000
$end
--------------------------------------------------------------

   15   -1510.1082235796      6.19E-09 Convergence criterion met
 Total energy in the final basis set = -1510.10822358
   14   -1510.1820247417      6.73E-09 Convergence criterion met
 Total energy in the final basis set = -1510.18202474
   14   -1510.2225272577      8.07E-09 Convergence criterion met
 Total energy in the final basis set = -1510.22252726
   14   -1510.2419434181      7.33E-09 Convergence criterion met
 Total energy in the final basis set = -1510.24194342
   13   -1510.2493015373      8.63E-09 Convergence criterion met
 Total energy in the final basis set = -1510.24930154
   14   -1510.2522767141      3.53E-09 Convergence criterion met
 Total energy in the final basis set = -1510.25227671
   13   -1510.2536664033      4.28E-09 Convergence criterion met
 Total energy in the final basis set = -1510.25366640
   13   -1510.2546749256      4.26E-09 Convergence criterion met
   11   -1510.2574103668      5.46E-09 Convergence criterion met
 Total energy in the final basis set = -1510.25741037
   11   -1510.2574882996      8.33E-09 Convergence criterion met
 Total energy in the final basis set = -1510.25748830
   11   -1510.2575235341      7.17E-09 Convergence criterion met
 Total energy in the final basis set = -1510.25752353
   11   -1510.2575429956      4.30E-09 Convergence criterion met
 Total energy in the final basis set = -1510.25754300
   10   -1510.2575458087      9.67E-09 Convergence criterion met
 Total energy in the final basis set = -1510.25754581
    9   -1510.2575476426      5.49E-09 Convergence criterion met
 Total energy in the final basis set = -1510.25754764

             Standard Nuclear Orientation (Angstroms)
    I     Atom           X                Y                Z
 ----------------------------------------------------------------
    1      O       4.5546063892    -2.0726006964    -0.0130201501
    2      C       5.1805810887    -0.9853451682    -0.0124106039
    3      C       4.8493688555     0.2422714271    -0.9282868255
    4      C       3.3044661402     0.2520058409    -1.2852233269
    5      C       2.5396776395    -1.0747525456    -0.8743421087
    6      O       2.0867053805    -1.0630284348     0.5113864438
    7      C       0.6239103834    -1.2741625550     0.5772653419
    8      C      -0.1394117149     0.0703698908     0.8827792101
    9      O      -1.5902122291    -0.2277300426     0.9315848271
   10      C      -2.3028823943     0.5933152640    -0.0225261871
   11      C      -3.4558603776    -0.2519871988    -0.6737832208
   12      C      -4.3664239277    -1.0766677153     0.3180444401
   13      C      -4.4401810815    -0.4969036179     1.7787935305
   14      O      -5.0911726980    -0.9707772392     2.7349419106
   15      O       6.3286062451    -0.7230694409     0.7863719685
   16      O      -3.8314220860     0.7982558138     1.8047524948
   17      O      -1.9188641219     1.7227707017    -0.3934314372
   18      C      -3.9326615857     1.4009275004     3.1510412662
   19      C      -4.5342236281     0.5828091181    -1.4864327692
   20      C      -5.0794587328    -0.3563793881    -2.6303641463
   21      C      -5.8782109192    -1.4121090791    -1.7778721160
   22      C      -5.7919230955    -0.7789471501    -0.3315112119
   23      O      -5.6987206210     0.6812158477    -0.5743774250
   24      H      -2.9446307569    -0.9568907138    -1.3571531073
   25      H      -4.1161422277    -2.1514411378     0.3508121769
   26      H      -4.1907270700     1.5883271967    -1.7992246164
   27      H      -5.7496641353     0.2067726487    -3.2995745713
   28      H      -4.2745841704    -0.8091004981    -3.2310659647
   29      H      -6.9272996532    -1.4914320197    -2.1039496382
   30      H      -5.4234063103    -2.4152799434    -1.8115551977
   31      H      -6.6457128472    -1.0096509372     0.3352800214
   32      O       2.1483520410    -1.9255193303    -1.7038274496
   33      C       6.6379125420    -1.9025470706     1.6306941014
   34      C       4.9917771228     1.6115978827    -0.1447500158
   35      C       4.8472215162     2.8033603069    -1.1702645223
   36      C       3.2944846711     2.8036716626    -1.4229868828
   37      C       2.8441839054     1.5748579396    -0.5381358357
   38      O       3.7357808450     1.6587547792     0.6408934346
   39      H       5.4894084709     0.2023323164    -1.8289924882
   40      H       3.1666884395     0.3474369422    -2.3770280134
   41      H       6.8947008253    -2.7871773760     1.0127370010
   42      H       5.8728131991     1.6573845498     0.5238309965
   43      H       5.1848647809     3.7479754451    -0.7155220894
   44      H       5.4266359915     2.6273043443    -2.0907416545
   45      H       2.8254407355     3.7304071898    -1.0556798917
   46      H       3.0329581220     2.6716062522    -2.4850992982
   47      H       1.7862444642     1.5919028314    -0.2224593863
   48      H       5.7835717981    -2.1646857235     2.2871324989
   49      H       7.5088447370    -1.6143200927     2.2474028075
   50      H      -3.4991851501     2.4141329284     3.0636623115
   51      H      -3.3618883144     0.8154332744     3.9005752434
   52      H      -4.9885226360     1.4712557796     3.4832104555
   53      H       0.1944246804     0.4752610172     1.8623627951
   54      H       0.0541881282     0.8390984136     0.1063479903
   55      H       0.4202429113    -1.9889102240     1.4029923918
   56      H       0.2428438438    -1.7215232825    -0.3662717319
 ----------------------------------------------------------------

    9   -1510.2575482870      4.09E-09 Convergence criterion met
 Total energy in the final basis set = -1510.25754829
 Final energy is   -1510.25754828700
 **  OPTIMIZATION CONVERGED  **

                    Orbital Energies (a.u.)
 --------------------------------------------------------------

 Alpha MOs
 -- Occupied --
-18.950 -18.940 -18.914 -18.900 -18.891 -18.888 -18.885 -18.873
-18.872 -18.870 -10.110 -10.100 -10.100 -10.094 -10.072 -10.065
-10.063 -10.062 -10.061 -10.060 -10.060 -10.057 -10.042 -10.039
-10.036 -10.034 -10.022 -10.021 -10.020 -10.019  -1.023  -1.014
 -1.001  -0.993  -0.971  -0.969  -0.947  -0.936  -0.932  -0.921
 -0.764  -0.763  -0.725  -0.724  -0.709  -0.704  -0.692  -0.668
 -0.661  -0.609  -0.598  -0.580  -0.548  -0.544  -0.539  -0.537
 -0.512  -0.509  -0.486  -0.483  -0.469  -0.462  -0.451  -0.443
 -0.435  -0.433  -0.421  -0.418  -0.412  -0.409  -0.407  -0.394
 -0.389  -0.382  -0.382  -0.371  -0.361  -0.358  -0.353  -0.350
 -0.341  -0.339  -0.335  -0.331  -0.329  -0.323  -0.318  -0.314
 -0.310  -0.306  -0.304  -0.301  -0.298  -0.294  -0.284  -0.273
 -0.267  -0.262  -0.251  -0.237  -0.235  -0.233  -0.229  -0.188
 -0.180  -0.170  -0.162  -0.157  -0.148  -0.147  -0.147  -0.143
 -0.142

          Ground-State Mulliken Net Atomic Charges

     Atom                 Charge (a.u.)
  ----------------------------------------
      1 O                    -0.199572
      2 C                     0.218251
      3 C                    -0.077671
      4 C                    -0.082078
      5 C                     0.217139
      6 O                    -0.189607
      7 C                    -0.050070
      8 C                    -0.053734
      9 O                    -0.185912
     10 C                     0.224631
     11 C                    -0.078800
     12 C                    -0.075983
     13 C                     0.215928
     14 O                    -0.214253
     15 O                    -0.164640
     16 O                    -0.163121
     17 O                    -0.216672
     18 C                    -0.124772
     19 C                     0.023694
     20 C                    -0.142130
     21 C                    -0.145286
     22 C                     0.024064
     23 O                    -0.191433
     24 H                     0.081874
     25 H                     0.087676
     26 H                     0.090371
     27 H                     0.078138
     28 H                     0.073363
     29 H                     0.078569
     30 H                     0.074099
     31 H                     0.085256
     32 O                    -0.208522
     33 C                    -0.127207
     34 C                     0.023331
     35 C                    -0.144630
     36 C                    -0.143308
     37 C                     0.024277
     38 O                    -0.189214
     39 H                     0.087066
     40 H                     0.083567
     41 H                     0.091579
     42 H                     0.090123
     43 H                     0.078435
     44 H                     0.073347
     45 H                     0.079191
     46 H                     0.073988
     47 H                     0.082963
     48 H                     0.095945
     49 H                     0.093486
     50 H                     0.094250
     51 H                     0.089862
     52 H                     0.093113
     53 H                     0.084649
     54 H                     0.084925
     55 H                     0.085259
     56 H                     0.086208
  ----------------------------------------
  Sum of atomic charges =     0.000000

                    Cartesian Multipole Moments
 -----------------------------------------------------------------
    Charge (ESU x 10^10)
                 0.0000
    Dipole Moment (Debye)
         X       2.2111      Y       0.4364      Z      -1.0620
       Tot       2.4914
    Quadrupole Moments (Debye-Ang)
        XX    -146.2179     XY       5.6277     YY    -163.5189
        XZ       5.6640     YZ      -0.9596     ZZ    -156.0465

 Total job time:  56.22s(wall), 2675.17s(cpu)
        *  Thank you very much for using Q-Chem.  Have a nice day.  *
