 Q-Chem 5.0, Q-Chem, Inc., Pleasanton, CA (2017)
 Q-Chem 5.0.1 for Intel X86 EM64T Linux

User input:
--------------------------------------------------------------
$molecule
0  1
O -3.94934 -3.66094 2.70899
C -3.26408 -4.56952 2.26188
C -3.36658 -6.02376 2.66595
C -4.77372 -6.64113 2.71769
C -5.90468 -5.78727 2.1886
O -6.56241 -6.45291 1.19375
C -7.8709 -5.93203 0.93723
C -8.70923 -6.96246 0.18785
O -9.18725 -6.40143 -1.04488
C -10.44703 -6.75824 -1.39813
C -10.73271 -6.53451 -2.86408
C -11.19137 -5.11401 -3.22476
C -10.95806 -4.05542 -2.16568
O -10.61745 -2.90108 -2.38026
O -2.42068 -4.2793 1.23488
O -11.46455 -4.32782 -0.93246
O -11.16849 -7.47736 -0.71733
C -11.4212 -3.46456 0.14262
C -9.52228 -6.69558 -3.80677
C -10.00844 -7.03684 -5.214
C -10.63186 -5.71816 -5.62533
C -10.25568 -4.84631 -4.42077
O -9.03406 -5.38662 -3.97503
H -11.50954 -7.27985 -3.15299
H -12.27377 -5.0774 -3.47786
H -8.78924 -7.45508 -3.45708
H -9.10006 -7.20962 -5.83495
H -10.67637 -7.9215 -5.2918
H -10.12227 -5.36342 -6.54862
H -11.73242 -5.74026 -5.78026
H -10.23613 -3.77517 -4.71833
O -6.30143 -4.75917 2.72406
C -2.24287 -3.02004 0.70075
C -2.63842 -7.02111 1.73892
C -2.26664 -8.27941 2.51979
C -3.62769 -8.91213 2.69788
C -4.49898 -7.93376 1.90123
O -3.6482 -7.48304 0.87531
H -2.90782 -6.05395 3.6799
H -5.06915 -6.89859 3.75925
H -1.86555 -2.3238 1.47997
H -1.7264 -6.61134 1.25474
H -1.66283 -8.92452 1.84169
H -1.69832 -8.10069 3.45789
H -3.61632 -9.90912 2.20311
H -3.97047 -9.01716 3.74991
H -5.41977 -8.46752 1.58154
H -3.20225 -2.63988 0.28907
H -1.49892 -3.07507 -0.12021
H -11.90075 -3.94972 1.01727
H -11.97024 -2.52806 -0.09314
H -10.36589 -3.22937 0.39894
H -8.02703 -7.78623 -0.11668
H -9.46088 -7.43476 0.85936
H -7.75505 -5.00551 0.33102
H -8.42735 -5.66875 1.86689
$end

$opt
CONSTRAINT
tors           1           2           3           4     +47.368
tors           3           4           5           6    +123.158
tors           4           5           6           7    +161.053
tors           5           6           7           8    -161.053
tors           6           7           8           9    -123.158
tors           7           8           9          10    -142.105
tors           8           9          10          11    -161.053
tors           9          10          11          12     -85.263
tors          11          12          13          14    +142.105
ENDCONSTRAINT
$end

$rem
JOBTYPE                   OPT
METHOD                    B3LYP
DFT_D                     d3_op
BASIS                     STO-3G
GEOM_OPT_MAX_CYCLES       100
GEOM_OPT_TOL_GRADIENT     300
GEOM_OPT_TOL_DISPLACEMENT 1200
GEOM_OPT_TOL_ENERGY       100
SYMMETRY                  False
THRESH                    12
SCF_CONVERGENCE           8
MAX_SUB_FILE_NUM          128
MEM_STATIC                400
MEM_TOTAL                 4000
$end
--------------------------------------------------------------

   15   -1510.1373721482      5.99E-09 Convergence criterion met
 Total energy in the final basis set = -1510.13737215
   13   -1510.2071890467      6.54E-09 Convergence criterion met
 Total energy in the final basis set = -1510.20718905
   14   -1510.2446328085      9.93E-09 Convergence criterion met
 Total energy in the final basis set = -1510.24463281
   14   -1510.2611265188      8.51E-09 Convergence criterion met
 Total energy in the final basis set = -1510.26112652
   13   -1510.2664038497      7.70E-09 Convergence criterion met
 Total energy in the final basis set = -1510.26640385
   12   -1510.2677300649      8.77E-09 Convergence criterion met
 Total energy in the final basis set = -1510.26773006
   13   -1510.2680693619      3.67E-09 Convergence criterion met
 Total energy in the final basis set = -1510.26806936
   12   -1510.2682707629      6.33E-09 Convergence criterion met
   12   -1510.2687961142      7.40E-09 Convergence criterion met
 Total energy in the final basis set = -1510.26879611
   11   -1510.2688660543      4.47E-09 Convergence criterion met
 Total energy in the final basis set = -1510.26886605
   12   -1510.2689448230      3.62E-09 Convergence criterion met
 Total energy in the final basis set = -1510.26894482
   11   -1510.2689773211      4.71E-09 Convergence criterion met
 Total energy in the final basis set = -1510.26897732
   11   -1510.2689914086      6.10E-09 Convergence criterion met
 Total energy in the final basis set = -1510.26899141
    9   -1510.2689972994      9.54E-09 Convergence criterion met
 Total energy in the final basis set = -1510.26899730

             Standard Nuclear Orientation (Angstroms)
    I     Atom           X                Y                Z
 ----------------------------------------------------------------
    1      O       3.7694649406    -2.3954538617     0.7189347345
    2      C       4.4902766075    -1.4051354389     0.9651470061
    3      C       5.0281007527    -0.3292302860    -0.0555722305
    4      C       3.9231128950     0.2436698843    -1.0466654110
    5      C       2.5695530341    -0.5545731038    -1.1301065009
    6      O       1.4742210437     0.3164630313    -0.8135540297
    7      C       0.1994790383    -0.2533581730    -1.3133266121
    8      C      -0.8364607808     0.9249474596    -1.3801398217
    9      O      -2.0157968900     0.5701270743    -0.5577866511
   10      C      -3.2206580628     1.0333200805    -1.1957437521
   11      C      -4.3784500099     1.0970414861    -0.1363878914
   12      C      -5.1670907719    -0.2607372859     0.1044165441
   13      C      -4.4908713811    -1.5370627139    -0.5167541536
   14      O      -4.4465433126    -2.6796620427    -0.0137880580
   15      O       4.9986924100    -1.1162286002     2.2737697851
   16      O      -3.9393421360    -1.2050584640    -1.7943693575
   17      O      -3.2626753348     1.4898478214    -2.3602415180
   18      C      -3.1870335299    -2.3509937248    -2.3533440046
   19      C      -3.8999165082     1.4272441871     1.3438030210
   20      C      -5.1356692487     2.0256542845     2.1251141538
   21      C      -6.0168360626     0.7373707866     2.3275961696
   22      C      -5.0954860680    -0.3700091549     1.6830713196
   23      O      -3.7177947810     0.0978156168     1.9691733917
   24      H      -5.0792859215     1.8679888638    -0.5042623063
   25      H      -6.2060708484    -0.1927603864    -0.2683904438
   26      H      -2.9650477701     2.0164042157     1.4053978629
   27      H      -4.8092333186     2.4459720899     3.0898140510
   28      H      -5.6534451068     2.8125343898     1.5537494840
   29      H      -6.1869487483     0.5256613218     3.3950922028
   30      H      -6.9933919527     0.8080477862     1.8223872614
   31      H      -5.2401874880    -1.4015501169     2.0595267568
   32      O       2.4178401300    -1.7119516952    -1.5773012559
   33      C       4.5191167363    -2.1351421487     3.2351803123
   34      C       5.4538617796     1.0043908905     0.6879641520
   35      C       6.2158408723     1.9547677835    -0.3195646417
   36      C       5.0203560593     2.5490818251    -1.1520400128
   37      C       3.8080512882     1.7460105669    -0.5408500661
   38      O       4.1476190351     1.6743474540     0.8986139815
   39      H       5.8638619571    -0.7837883463    -0.6197123141
   40      H       4.3273278151     0.2230241727    -2.0767208303
   41      H       4.8515642012    -3.1546249488     2.9512975394
   42      H       5.9603920264     0.8298977681     1.6557525445
   43      H       6.7604648418     2.7401950687     0.2277341774
   44      H       6.9333521525     1.4007934333    -0.9460920538
   45      H       4.8973399049     3.6279579559    -0.9650602440
   46      H       5.1298794597     2.3886167024    -2.2364322301
   47      H       2.8060293582     2.1919380115    -0.6854073029
   48      H       3.4125676981    -2.1349907759     3.3105430792
   49      H       4.9565720069    -1.8601604853     4.2125011563
   50      H      -2.8489642679    -2.0315127308    -3.3562983360
   51      H      -3.8254970100    -3.2531133258    -2.4421197969
   52      H      -2.3065549865    -2.5982614167    -1.7254288530
   53      H      -0.3629475683     1.8405587678    -0.9607846144
   54      H      -1.1709879648     1.1361739590    -2.4186117319
   55      H      -0.1821190884    -1.0329927463    -0.6156595216
   56      H       0.3512305960    -0.7304328508    -2.3049431515
 ----------------------------------------------------------------

    9   -1510.2689981096      6.33E-09 Convergence criterion met
 Total energy in the final basis set = -1510.26899811
 Final energy is   -1510.26899810961
 **  OPTIMIZATION CONVERGED  **

                    Orbital Energies (a.u.)
 --------------------------------------------------------------

 Alpha MOs
 -- Occupied --
-18.943 -18.932 -18.929 -18.923 -18.885 -18.883 -18.881 -18.873
-18.872 -18.867 -10.103 -10.097 -10.096 -10.096 -10.070 -10.068
-10.066 -10.061 -10.058 -10.057 -10.055 -10.054 -10.040 -10.037
-10.036 -10.035 -10.020 -10.019 -10.018 -10.017  -1.018  -1.011
 -1.007  -1.003  -0.968  -0.966  -0.941  -0.936  -0.931  -0.928
 -0.763  -0.760  -0.725  -0.721  -0.714  -0.704  -0.691  -0.665
 -0.658  -0.611  -0.596  -0.578  -0.544  -0.542  -0.536  -0.535
 -0.515  -0.512  -0.484  -0.478  -0.470  -0.466  -0.446  -0.440
 -0.432  -0.431  -0.419  -0.415  -0.410  -0.408  -0.404  -0.395
 -0.394  -0.386  -0.379  -0.372  -0.360  -0.353  -0.348  -0.345
 -0.341  -0.339  -0.331  -0.331  -0.329  -0.326  -0.321  -0.309
 -0.308  -0.305  -0.304  -0.299  -0.293  -0.288  -0.279  -0.276
 -0.275  -0.257  -0.250  -0.245  -0.241  -0.232  -0.230  -0.182
 -0.176  -0.173  -0.168  -0.159  -0.157  -0.149  -0.142  -0.141
 -0.140

          Ground-State Mulliken Net Atomic Charges

     Atom                 Charge (a.u.)
  ----------------------------------------
      1 O                    -0.208091
      2 C                     0.207639
      3 C                    -0.076555
      4 C                    -0.079655
      5 C                     0.208324
      6 O                    -0.174816
      7 C                    -0.048500
      8 C                    -0.054932
      9 O                    -0.177117
     10 C                     0.216240
     11 C                    -0.080460
     12 C                    -0.077587
     13 C                     0.214288
     14 O                    -0.208590
     15 O                    -0.170294
     16 O                    -0.166767
     17 O                    -0.219505
     18 C                    -0.127137
     19 C                     0.025985
     20 C                    -0.143423
     21 C                    -0.144863
     22 C                     0.023713
     23 O                    -0.188072
     24 H                     0.084155
     25 H                     0.085913
     26 H                     0.086289
     27 H                     0.078028
     28 H                     0.073162
     29 H                     0.078510
     30 H                     0.073130
     31 H                     0.090506
     32 O                    -0.204515
     33 C                    -0.127702
     34 C                     0.022350
     35 C                    -0.145587
     36 C                    -0.143395
     37 C                     0.022033
     38 O                    -0.191361
     39 H                     0.084845
     40 H                     0.083236
     41 H                     0.089062
     42 H                     0.093224
     43 H                     0.077434
     44 H                     0.072326
     45 H                     0.077098
     46 H                     0.071999
     47 H                     0.090565
     48 H                     0.091352
     49 H                     0.090145
     50 H                     0.093628
     51 H                     0.093193
     52 H                     0.091719
     53 H                     0.087278
     54 H                     0.099022
     55 H                     0.093879
     56 H                     0.088652
  ----------------------------------------
  Sum of atomic charges =     0.000000

                    Cartesian Multipole Moments
 -----------------------------------------------------------------
    Charge (ESU x 10^10)
                 0.0000
    Dipole Moment (Debye)
         X       0.3091      Y       1.7216      Z      -0.4899
       Tot       1.8165
    Quadrupole Moments (Debye-Ang)
        XX    -135.2854     XY      -1.0726     YY    -164.1303
        XZ      -3.7996     YZ       0.0037     ZZ    -156.9393

 Total job time:  59.20s(wall), 2816.15s(cpu)
        *  Thank you very much for using Q-Chem.  Have a nice day.  *
