 Q-Chem 5.0, Q-Chem, Inc., Pleasanton, CA (2017)
 Q-Chem 5.0.1 for Intel X86 EM64T Linux

User input:
--------------------------------------------------------------
$molecule
0  1
O 3.7694649406 -2.3954538617 0.7189347345
C 4.4902766075 -1.4051354389 0.9651470061
C 5.0281007527 -0.329230286 -0.0555722305
C 3.923112895 0.2436698843 -1.046665411
C 2.5695530341 -0.5545731038 -1.1301065009
O 1.4742210437 0.3164630313 -0.8135540297
C 0.1994790383 -0.253358173 -1.3133266121
C -0.8364607808 0.9249474596 -1.3801398217
O -2.01579689 0.5701270743 -0.5577866511
C -3.2206580628 1.0333200805 -1.1957437521
C -4.3784500099 1.0970414861 -0.1363878914
C -5.1670907719 -0.2607372859 0.1044165441
C -4.4908713811 -1.5370627139 -0.5167541536
O -4.4465433126 -2.6796620427 -0.013788058
O 4.99869241 -1.1162286002 2.2737697851
O -3.939342136 -1.205058464 -1.7943693575
O -3.2626753348 1.4898478214 -2.360241518
C -3.1870335299 -2.3509937248 -2.3533440046
C -3.8999165082 1.4272441871 1.343803021
C -5.1356692487 2.0256542845 2.1251141538
C -6.0168360626 0.7373707866 2.3275961696
C -5.095486068 -0.3700091549 1.6830713196
O -3.717794781 0.0978156168 1.9691733917
H -5.0792859215 1.8679888638 -0.5042623063
H -6.2060708484 -0.1927603864 -0.2683904438
H -2.9650477701 2.0164042157 1.4053978629
H -4.8092333186 2.4459720899 3.089814051
H -5.6534451068 2.8125343898 1.553749484
H -6.1869487483 0.5256613218 3.3950922028
H -6.9933919527 0.8080477862 1.8223872614
H -5.240187488 -1.4015501169 2.0595267568
O 2.41784013 -1.7119516952 -1.5773012559
C 4.5191167363 -2.1351421487 3.2351803123
C 5.4538617796 1.0043908905 0.687964152
C 6.2158408723 1.9547677835 -0.3195646417
C 5.0203560593 2.5490818251 -1.1520400128
C 3.8080512882 1.7460105669 -0.5408500661
O 4.1476190351 1.674347454 0.8986139815
H 5.8638619571 -0.7837883463 -0.6197123141
H 4.3273278151 0.2230241727 -2.0767208303
H 4.8515642012 -3.1546249488 2.9512975394
H 5.9603920264 0.8298977681 1.6557525445
H 6.7604648418 2.7401950687 0.2277341774
H 6.9333521525 1.4007934333 -0.9460920538
H 4.8973399049 3.6279579559 -0.965060244
H 5.1298794597 2.3886167024 -2.2364322301
H 2.8060293582 2.1919380115 -0.6854073029
H 3.4125676981 -2.1349907759 3.3105430792
H 4.9565720069 -1.8601604853 4.2125011563
H -2.8489642679 -2.0315127308 -3.356298336
H -3.82549701 -3.2531133258 -2.4421197969
H -2.3065549865 -2.5982614167 -1.725428853
H -0.3629475683 1.8405587678 -0.9607846144
H -1.1709879648 1.136173959 -2.4186117319
H -0.1821190884 -1.0329927463 -0.6156595216
H 0.351230596 -0.7304328508 -2.3049431515
$end

$rem
JOBTYPE                   OPT
METHOD                    B3LYP
DFT_D                     d3_op
BASIS                     STO-3G
GEOM_OPT_MAX_CYCLES       100
GEOM_OPT_TOL_GRADIENT     300
GEOM_OPT_TOL_DISPLACEMENT 1200
GEOM_OPT_TOL_ENERGY       100
SYMMETRY                  False
THRESH                    12
SCF_CONVERGENCE           8
MAX_SUB_FILE_NUM          128
MEM_STATIC                400
MEM_TOTAL                 4000
$end
--------------------------------------------------------------

   16   -1510.2687974161      5.90E-09 Convergence criterion met
 Total energy in the final basis set = -1510.26879742
   14   -1510.2723131255      7.33E-09 Convergence criterion met
 Total energy in the final basis set = -1510.27231313
   14   -1510.2743953738      5.01E-09 Convergence criterion met
 Total energy in the final basis set = -1510.27439537
   14   -1510.2758414428      4.32E-09 Convergence criterion met
 Total energy in the final basis set = -1510.27584144
   14   -1510.2774898240      2.76E-09 Convergence criterion met
 Total energy in the final basis set = -1510.27748982
   14   -1510.2791700537      3.30E-09 Convergence criterion met
 Total energy in the final basis set = -1510.27917005
   14   -1510.2698967037      5.24E-09 Convergence criterion met
 Total energy in the final basis set = -1510.26989670
   14   -1510.2798774000      6.94E-09 Convergence criterion met
   12   -1510.2989178740      9.69E-09 Convergence criterion met
 Total energy in the final basis set = -1510.29891787
   12   -1510.2992368340      6.74E-09 Convergence criterion met
 Total energy in the final basis set = -1510.29923683
   12   -1510.2992056278      2.93E-09 Convergence criterion met
 Total energy in the final basis set = -1510.29920563
   11   -1510.2992388583      9.16E-09 Convergence criterion met
 Total energy in the final basis set = -1510.29923886
   10   -1510.2992421500      7.10E-09 Convergence criterion met
 Total energy in the final basis set = -1510.29924215
    9   -1510.2992431277      5.20E-09 Convergence criterion met
 Total energy in the final basis set = -1510.29924313

             Standard Nuclear Orientation (Angstroms)
    I     Atom           X                Y                Z
 ----------------------------------------------------------------
    1      O      -0.7978098675    -0.3083017175     0.7488420557
    2      C      -1.8119057188    -0.8102350629     0.2091457193
    3      C      -3.2876342635    -0.2960994661     0.3339528539
    4      C      -3.3938384713     1.1240176928     1.0246503509
    5      C      -2.0044558283     1.7625240641     1.3974378399
    6      O      -1.4119391153     2.2924906877     0.2055088918
    7      C      -0.0872508206     2.8841001777     0.4965709267
    8      C       0.8423322820     2.6511468265    -0.7424257329
    9      O       1.4469573650     1.2967373932    -0.7887826078
   10      C       2.7962664551     1.3530377160    -0.3020797001
   11      C       3.5635223179     0.0376405620    -0.6824149713
   12      C       3.3253843876    -1.2481678134     0.2165085176
   13      C       2.1922692563    -1.1351372715     1.2999266187
   14      O       1.3706488111    -2.0273551523     1.6134013530
   15      O      -1.8026606707    -1.9715099605    -0.6044386094
   16      O       2.2794649996     0.1333852918     1.9355740338
   17      O       3.3107187125     2.3710321800     0.2131425015
   18      C       1.2032072953     0.2677693899     2.9504626814
   19      C       3.1611953692    -0.5263885956    -2.1167574694
   20      C       4.3594129449    -1.4051216144    -2.6483371894
   21      C       4.2319188366    -2.6752089282    -1.7263394439
   22      C       2.9444712646    -2.3186178508    -0.8844113977
   23      O       2.1155097351    -1.5345225522    -1.8306008550
   24      H       4.6351324097     0.3045489593    -0.6598069580
   25      H       4.2603122051    -1.5244375531     0.7393352754
   26      H       2.7783748846     0.2370489207    -2.8209708755
   27      H       4.2050341493    -1.6608476275    -3.7088177517
   28      H       5.3306271222    -0.8955897902    -2.5444527219
   29      H       4.0676290205    -3.5903500340    -2.3170260272
   30      H       5.1145512827    -2.8223090487    -1.0835909039
   31      H       2.3751747677    -3.1814710796    -0.4889322603
   32      O      -1.5261593848     1.8891639909     2.5465314168
   33      C      -0.4288176147    -2.5238165225    -0.7100456318
   34      C      -3.9574475302    -0.0069944828    -1.0786377557
   35      C      -5.5208298290     0.0776574373    -0.8741803936
   36      C      -5.6538802148     1.4699230112    -0.1529717442
   37      C      -4.1451491488     1.9411111326    -0.1113898473
   38      O      -3.5728170047     1.3935221988    -1.3632191863
   39      H      -3.8647071542    -1.0568648031     0.8915422691
   40      H      -3.9886226414     1.0674737373     1.9531702860
   41      H       0.0593123625    -2.5969363814     0.2874063356
   42      H      -3.6146953510    -0.6834990376    -1.8854905760
   43      H      -6.0360097026     0.0771792134    -1.8480267903
   44      H      -5.9085559795    -0.7573016607    -0.2691257204
   45      H      -6.2624310886     2.1742547580    -0.7420738315
   46      H      -6.0882666548     1.3855185648     0.8558905693
   47      H      -3.9959738687     3.0368503343    -0.0648300941
   48      H       0.2295642952    -1.8943807635    -1.3518442057
   49      H      -0.5433629543    -3.5255672286    -1.1618112646
   50      H       1.3244765790     1.2741632549     3.3900775910
   51      H       1.3026261634    -0.5007661591     3.7432488721
   52      H       0.2073088354     0.1774896674     2.4667757087
   53      H       0.2425172736     2.7577594417    -1.6702413341
   54      H       1.6548435049     3.4091648537    -0.7197385264
   55      H       0.3454205922     2.4423424360     1.4177573295
   56      H      -0.2007734912     3.9798092461     0.6572198652
 ----------------------------------------------------------------

    9   -1510.2992431408      4.98E-09 Convergence criterion met
 Total energy in the final basis set = -1510.29924314
 Final energy is   -1510.29924314085
 **  OPTIMIZATION CONVERGED  **

                    Orbital Energies (a.u.)
 --------------------------------------------------------------

 Alpha MOs
 -- Occupied --
-18.936 -18.930 -18.926 -18.917 -18.896 -18.883 -18.875 -18.873
-18.867 -18.856 -10.101 -10.098 -10.095 -10.089 -10.063 -10.063
-10.062 -10.060 -10.056 -10.055 -10.047 -10.040 -10.037 -10.033
-10.031 -10.030 -10.023 -10.022 -10.017 -10.016  -1.012  -1.007
 -1.004  -0.995  -0.976  -0.965  -0.935  -0.931  -0.930  -0.922
 -0.765  -0.758  -0.726  -0.720  -0.711  -0.705  -0.691  -0.654
 -0.646  -0.609  -0.593  -0.575  -0.546  -0.542  -0.539  -0.533
 -0.513  -0.507  -0.481  -0.474  -0.466  -0.456  -0.440  -0.439
 -0.435  -0.429  -0.415  -0.414  -0.408  -0.401  -0.398  -0.393
 -0.392  -0.373  -0.367  -0.365  -0.359  -0.352  -0.344  -0.343
 -0.340  -0.335  -0.333  -0.326  -0.325  -0.322  -0.319  -0.311
 -0.310  -0.307  -0.300  -0.297  -0.292  -0.286  -0.280  -0.273
 -0.270  -0.250  -0.244  -0.242  -0.237  -0.235  -0.230  -0.180
 -0.173  -0.165  -0.156  -0.155  -0.151  -0.150  -0.145  -0.140
 -0.139

          Ground-State Mulliken Net Atomic Charges

     Atom                 Charge (a.u.)
  ----------------------------------------
      1 O                    -0.214197
      2 C                     0.219429
      3 C                    -0.078674
      4 C                    -0.081477
      5 C                     0.214919
      6 O                    -0.173360
      7 C                    -0.049459
      8 C                    -0.050878
      9 O                    -0.169052
     10 C                     0.213317
     11 C                    -0.079367
     12 C                    -0.077568
     13 C                     0.221000
     14 O                    -0.215769
     15 O                    -0.170844
     16 O                    -0.166829
     17 O                    -0.217458
     18 C                    -0.135779
     19 C                     0.027769
     20 C                    -0.143347
     21 C                    -0.144310
     22 C                     0.024379
     23 O                    -0.189368
     24 H                     0.084938
     25 H                     0.085715
     26 H                     0.086896
     27 H                     0.078495
     28 H                     0.074725
     29 H                     0.078549
     30 H                     0.074287
     31 H                     0.089584
     32 O                    -0.226916
     33 C                    -0.152390
     34 C                     0.024986
     35 C                    -0.143641
     36 C                    -0.144660
     37 C                     0.026647
     38 O                    -0.187315
     39 H                     0.085095
     40 H                     0.082204
     41 H                     0.102608
     42 H                     0.089137
     43 H                     0.077304
     44 H                     0.073220
     45 H                     0.076815
     46 H                     0.072930
     47 H                     0.083412
     48 H                     0.105752
     49 H                     0.078759
     50 H                     0.090745
     51 H                     0.084902
     52 H                     0.115039
     53 H                     0.092849
     54 H                     0.094767
     55 H                     0.101162
     56 H                     0.080322
  ----------------------------------------
  Sum of atomic charges =    -0.000000

                    Cartesian Multipole Moments
 -----------------------------------------------------------------
    Charge (ESU x 10^10)
                -0.0000
    Dipole Moment (Debye)
         X       0.2845      Y      -0.9792      Z      -0.9748
       Tot       1.4107
    Quadrupole Moments (Debye-Ang)
        XX    -141.3067     XY      -7.2978     YY    -157.4194
        XZ      -6.8077     YZ      -0.9536     ZZ    -161.7655

 Total job time:  144.65s(wall), 6897.45s(cpu)
        *  Thank you very much for using Q-Chem.  Have a nice day.  *
