 Q-Chem 5.0, Q-Chem, Inc., Pleasanton, CA (2017)
 Q-Chem 5.0.1 for Intel X86 EM64T Linux

User input:
--------------------------------------------------------------
$molecule
0  1
O -3.94934 -3.66094 2.70899
C -3.26408 -4.56952 2.26188
C -3.36658 -6.02376 2.66595
C -4.66266 -6.76517 2.29943
C -5.63801 -6.02118 1.41441
O -6.44257 -5.22426 2.17796
C -5.71832 -4.44802 3.13824
C -6.23872 -4.73162 4.54355
O -6.76706 -6.06554 4.60985
C -7.26268 -6.43712 5.81626
C -6.33578 -6.104 6.96105
C -6.13057 -4.60294 7.21204
C -7.12831 -3.67873 6.54342
O -7.24385 -3.51352 5.33763
O -2.33386 -4.25173 1.32059
O -7.99621 -2.99795 7.34398
O -8.25086 -7.14718 5.91725
C -8.97449 -2.13844 6.8888
C -6.83326 -6.58971 8.33668
C -5.64529 -6.75881 9.28037
C -5.27603 -5.31311 9.5224
C -6.39692 -4.60761 8.74506
O -7.49508 -5.47594 8.87555
H -5.37281 -6.61127 6.72335
H -5.08307 -4.22936 7.13436
H -7.41656 -7.53497 8.29312
H -6.03559 -7.19091 10.22982
H -4.82368 -7.40056 8.89545
H -5.37239 -5.10725 10.61192
H -4.26558 -5.01337 9.17015
H -6.53068 -3.58564 9.16355
O -5.94132 -6.34194 0.27491
C -2.12126 -2.98061 0.82916
C -2.32233 -6.91679 1.95398
C -2.09691 -8.20779 2.74263
C -3.37373 -8.94977 2.4308
C -4.05644 -7.945 1.49885
O -2.98776 -7.35876 0.8008
H -3.13957 -6.06086 3.75727
H -5.20669 -7.22063 3.15545
H -1.82092 -2.29718 1.65191
H -1.34106 -6.41893 1.79587
H -1.24758 -8.75624 2.27578
H -1.88713 -8.05248 3.82285
H -3.11483 -9.8667 1.85499
H -3.99471 -9.22348 3.31091
H -4.80846 -8.48023 0.87784
H -3.0445 -2.60009 0.34204
H -1.30744 -3.01333 0.07611
H -9.5295 -1.7271 7.75663
H -9.6873 -2.68333 6.23356
H -8.51399 -1.29791 6.32693
H -5.31863 -4.36423 5.1935
H -7.28632 -4.73624 3.91548
H -6.0029 -3.34985 3.02428
H -5.06875 -5.09847 3.60412
$end

$opt
CONSTRAINT
tors           1           2           3           4     +66.316
tors           3           4           5           6     -85.263
tors           4           5           6           7     +47.368
tors           5           6           7           8    -123.158
tors           6           7           8           9     +28.421
tors           7           8           9          10    -180.000
tors           8           9          10          11     -47.368
tors           9          10          11          12     +66.316
tors          11          12          13          14     -66.316
ENDCONSTRAINT
$end

$rem
JOBTYPE                   OPT
METHOD                    B3LYP
DFT_D                     d3_op
BASIS                     STO-3G
GEOM_OPT_MAX_CYCLES       100
GEOM_OPT_TOL_GRADIENT     300
GEOM_OPT_TOL_DISPLACEMENT 1200
GEOM_OPT_TOL_ENERGY       100
SYMMETRY                  False
THRESH                    12
SCF_CONVERGENCE           8
MAX_SUB_FILE_NUM          128
MEM_STATIC                400
MEM_TOTAL                 4000
$end
--------------------------------------------------------------

   17   -1509.7079807956      3.03E-09 Convergence criterion met
 Total energy in the final basis set = -1509.70798080
   14   -1509.8228553280      6.30E-09 Convergence criterion met
 Total energy in the final basis set = -1509.82285533
   14   -1509.9141545385      5.17E-09 Convergence criterion met
 Total energy in the final basis set = -1509.91415454
   14   -1509.9839130067      9.75E-09 Convergence criterion met
 Total energy in the final basis set = -1509.98391301
   15   -1510.0370205889      3.57E-09 Convergence criterion met
 Total energy in the final basis set = -1510.03702059
   14   -1510.0775135105      8.07E-09 Convergence criterion met
 Total energy in the final basis set = -1510.07751351
   14   -1510.1089098025      5.86E-09 Convergence criterion met
 Total energy in the final basis set = -1510.10890980
   13   -1510.1339563773      9.42E-09 Convergence criterion met
    9   -1510.2356449506      6.81E-09 Convergence criterion met
 Total energy in the final basis set = -1510.23564495
    9   -1510.2356493846      6.17E-09 Convergence criterion met
 Total energy in the final basis set = -1510.23564938
    9   -1510.2356514006      5.65E-09 Convergence criterion met
 Total energy in the final basis set = -1510.23565140
    9   -1510.2356535540      5.62E-09 Convergence criterion met
 Total energy in the final basis set = -1510.23565355
    9   -1510.2356552994      5.39E-09 Convergence criterion met
 Total energy in the final basis set = -1510.23565530
    9   -1510.2356564582      4.35E-09 Convergence criterion met
 Total energy in the final basis set = -1510.23565646

             Standard Nuclear Orientation (Angstroms)
    I     Atom           X                Y                Z
 ----------------------------------------------------------------
    1      O       3.0899598778    -2.1696597011    -1.3046054393
    2      C       3.6719579666    -1.0611480068    -1.3788103274
    3      C       3.0625516713     0.3286473550    -0.9705254467
    4      C       2.7655507399     0.5066378502     0.5833483718
    5      C       2.7653072809    -0.7046447582     1.6193547466
    6      O       1.5484729603    -1.4488050213     1.7469133429
    7      C       0.8952098293    -1.8679065494     0.4880223931
    8      C      -0.5801144759    -1.3166042499     0.4452498073
    9      O      -0.5701107808    -0.0762815728     1.2522620616
   10      C      -1.8142840628     0.6274521423     1.3710494733
   11      C      -2.6717715396     0.8959440133     0.0652013776
   12      C      -3.3495220265    -0.2756210705    -0.7710506655
   13      C      -3.8345023176    -1.5138670385     0.1008287230
   14      O      -3.1506619740    -2.3392167456     0.7540269802
   15      O       5.0058962075    -0.9131202001    -1.8522040207
   16      O      -5.2526849433    -1.6292571216     0.0215578188
   17      O      -2.0510338470     1.2136908810     2.4521374914
   18      C      -5.7193685524    -2.7837895747     0.8251889075
   19      C      -3.8784862324     1.9178402780     0.2301619469
   20      C      -3.8592977749     2.8282134080    -1.0553404690
   21      C      -4.2332597847     1.7603995225    -2.1515019426
   22      C      -4.6389267589     0.5141815110    -1.2622195665
   23      O      -5.1018881836     1.1094171829     0.0174709354
   24      H      -1.9338713169     1.3560809025    -0.6215742502
   25      H      -2.6996796654    -0.6318188055    -1.5901685400
   26      H      -3.9057429361     2.4331512175     1.2102523896
   27      H      -4.6291521725     3.6135474865    -0.9824931929
   28      H      -2.8806265939     3.3030754881    -1.2305732158
   29      H      -5.0856519588     2.0872161815    -2.7671132847
   30      H      -3.3879780584     1.5285749367    -2.8199592562
   31      H      -5.4246591311    -0.1304571849    -1.6978199904
   32      O       3.6587776684    -0.8755035025     2.4775507826
   33      C       5.5704753592    -2.2378723005    -2.2050916906
   34      C       4.1032342263     1.5039769377    -1.1921186706
   35      C       3.3690986040     2.8963596185    -1.0255067604
   36      C       3.2707617319     3.0102454802     0.5413845965
   37      C       3.8472994199     1.6066520715     0.9714082733
   38      O       4.9561109021     1.3961365684     0.0128483188
   39      H       2.1345007431     0.4704786758    -1.5551174933
   40      H       1.7479708708     0.9348674820     0.6799144427
   41      H       5.0134000871    -2.7071203765    -3.0417463578
   42      H       4.7112669537     1.3983676107    -2.1103178018
   43      H       3.9777555654     3.7071075610    -1.4557926915
   44      H       2.3817938549     2.9010081403    -1.5147977838
   45      H       3.9093407894     3.8215771771     0.9259947084
   46      H       2.2406368752     3.1686582509     0.8981399262
   47      H       4.2140946701     1.5250131198     2.0129695053
   48      H       5.5558060925    -2.9284048526    -1.3378399132
   49      H       6.6146500807    -2.0473250580    -2.5136361649
   50      H      -6.8201396104    -2.7918281460     0.7241399369
   51      H      -5.4418864491    -2.6734871064     1.8928565584
   52      H      -5.3012843937    -3.7388182012     0.4466826154
   53      H      -0.8288313175    -1.0954359813    -0.6164498224
   54      H      -1.3594311176    -2.0198669700     0.8220556839
   55      H       0.8474896235    -2.9790669692     0.5203572828
   56      H       1.4972806678    -1.6167668417    -0.4102755029
 ----------------------------------------------------------------

    9   -1510.2356570983      3.57E-09 Convergence criterion met
 Total energy in the final basis set = -1510.23565710
 Final energy is   -1510.23565709829
 **  OPTIMIZATION CONVERGED  **

                    Orbital Energies (a.u.)
 --------------------------------------------------------------

 Alpha MOs
 -- Occupied --
-18.953 -18.952 -18.917 -18.912 -18.894 -18.890 -18.887 -18.885
-18.878 -18.872 -10.117 -10.112 -10.100 -10.093 -10.074 -10.072
-10.065 -10.062 -10.060 -10.054 -10.054 -10.053 -10.052 -10.046
-10.040 -10.030 -10.027 -10.025 -10.021 -10.017  -1.029  -1.026
 -1.002  -0.992  -0.974  -0.968  -0.950  -0.949  -0.936  -0.922
 -0.769  -0.762  -0.730  -0.723  -0.709  -0.704  -0.696  -0.670
 -0.668  -0.608  -0.602  -0.581  -0.552  -0.546  -0.543  -0.537
 -0.517  -0.512  -0.498  -0.488  -0.469  -0.460  -0.450  -0.445
 -0.439  -0.430  -0.425  -0.420  -0.420  -0.418  -0.412  -0.402
 -0.391  -0.389  -0.385  -0.381  -0.370  -0.360  -0.358  -0.351
 -0.346  -0.338  -0.335  -0.334  -0.330  -0.322  -0.317  -0.314
 -0.312  -0.307  -0.304  -0.301  -0.298  -0.297  -0.293  -0.277
 -0.271  -0.266  -0.262  -0.238  -0.233  -0.232  -0.221  -0.193
 -0.190  -0.178  -0.164  -0.157  -0.153  -0.149  -0.147  -0.143
 -0.140

          Ground-State Mulliken Net Atomic Charges

     Atom                 Charge (a.u.)
  ----------------------------------------
      1 O                    -0.217351
      2 C                     0.211368
      3 C                    -0.080500
      4 C                    -0.088808
      5 C                     0.213572
      6 O                    -0.174226
      7 C                    -0.058163
      8 C                    -0.064936
      9 O                    -0.182072
     10 C                     0.207443
     11 C                    -0.087426
     12 C                    -0.076275
     13 C                     0.214637
     14 O                    -0.212914
     15 O                    -0.159568
     16 O                    -0.159334
     17 O                    -0.195627
     18 C                    -0.126340
     19 C                     0.021901
     20 C                    -0.140895
     21 C                    -0.146690
     22 C                     0.024276
     23 O                    -0.188047
     24 H                     0.077017
     25 H                     0.083269
     26 H                     0.094279
     27 H                     0.079412
     28 H                     0.072559
     29 H                     0.079143
     30 H                     0.070775
     31 H                     0.091137
     32 O                    -0.196795
     33 C                    -0.126716
     34 C                     0.024612
     35 C                    -0.145526
     36 C                    -0.142978
     37 C                     0.023876
     38 O                    -0.188122
     39 H                     0.080410
     40 H                     0.086050
     41 H                     0.089514
     42 H                     0.088982
     43 H                     0.077696
     44 H                     0.069613
     45 H                     0.078407
     46 H                     0.074745
     47 H                     0.092801
     48 H                     0.095840
     49 H                     0.095302
     50 H                     0.095009
     51 H                     0.095894
     52 H                     0.091023
     53 H                     0.060527
     54 H                     0.114016
     55 H                     0.083934
     56 H                     0.100271
  ----------------------------------------
  Sum of atomic charges =     0.000000

                    Cartesian Multipole Moments
 -----------------------------------------------------------------
    Charge (ESU x 10^10)
                 0.0000
    Dipole Moment (Debye)
         X      -2.1544      Y       0.2149      Z      -6.3083
       Tot       6.6695
    Quadrupole Moments (Debye-Ang)
        XX    -161.3028     XY       6.0917     YY    -153.5035
        XZ      -6.5644     YZ       1.5673     ZZ    -166.3325

 Total job time:  134.47s(wall), 6415.77s(cpu)
        *  Thank you very much for using Q-Chem.  Have a nice day.  *
