 Q-Chem 5.0, Q-Chem, Inc., Pleasanton, CA (2017)
 Q-Chem 5.0.1 for Intel X86 EM64T Linux

User input:
--------------------------------------------------------------
$molecule
0  1
O 3.0899598778 -2.1696597011 -1.3046054393
C 3.6719579666 -1.0611480068 -1.3788103274
C 3.0625516713 0.328647355 -0.9705254467
C 2.7655507399 0.5066378502 0.5833483718
C 2.7653072809 -0.7046447582 1.6193547466
O 1.5484729603 -1.4488050213 1.7469133429
C 0.8952098293 -1.8679065494 0.4880223931
C -0.5801144759 -1.3166042499 0.4452498073
O -0.5701107808 -0.0762815728 1.2522620616
C -1.8142840628 0.6274521423 1.3710494733
C -2.6717715396 0.8959440133 0.0652013776
C -3.3495220265 -0.2756210705 -0.7710506655
C -3.8345023176 -1.5138670385 0.100828723
O -3.150661974 -2.3392167456 0.7540269802
O 5.0058962075 -0.9131202001 -1.8522040207
O -5.2526849433 -1.6292571216 0.0215578188
O -2.051033847 1.213690881 2.4521374914
C -5.7193685524 -2.7837895747 0.8251889075
C -3.8784862324 1.917840278 0.2301619469
C -3.8592977749 2.828213408 -1.055340469
C -4.2332597847 1.7603995225 -2.1515019426
C -4.6389267589 0.514181511 -1.2622195665
O -5.1018881836 1.1094171829 0.0174709354
H -1.9338713169 1.3560809025 -0.6215742502
H -2.6996796654 -0.6318188055 -1.59016854
H -3.9057429361 2.4331512175 1.2102523896
H -4.6291521725 3.6135474865 -0.9824931929
H -2.8806265939 3.3030754881 -1.2305732158
H -5.0856519588 2.0872161815 -2.7671132847
H -3.3879780584 1.5285749367 -2.8199592562
H -5.4246591311 -0.1304571849 -1.6978199904
O 3.6587776684 -0.8755035025 2.4775507826
C 5.5704753592 -2.2378723005 -2.2050916906
C 4.1032342263 1.5039769377 -1.1921186706
C 3.369098604 2.8963596185 -1.0255067604
C 3.2707617319 3.0102454802 0.5413845965
C 3.8472994199 1.6066520715 0.9714082733
O 4.9561109021 1.3961365684 0.0128483188
H 2.1345007431 0.4704786758 -1.5551174933
H 1.7479708708 0.934867482 0.6799144427
H 5.0134000871 -2.7071203765 -3.0417463578
H 4.7112669537 1.3983676107 -2.1103178018
H 3.9777555654 3.707107561 -1.4557926915
H 2.3817938549 2.9010081403 -1.5147977838
H 3.9093407894 3.8215771771 0.9259947084
H 2.2406368752 3.1686582509 0.8981399262
H 4.2140946701 1.5250131198 2.0129695053
H 5.5558060925 -2.9284048526 -1.3378399132
H 6.6146500807 -2.047325058 -2.5136361649
H -6.8201396104 -2.791828146 0.7241399369
H -5.4418864491 -2.6734871064 1.8928565584
H -5.3012843937 -3.7388182012 0.4466826154
H -0.8288313175 -1.0954359813 -0.6164498224
H -1.3594311176 -2.01986697 0.8220556839
H 0.8474896235 -2.9790669692 0.5203572828
H 1.4972806678 -1.6167668417 -0.4102755029
$end

$rem
JOBTYPE                   OPT
METHOD                    B3LYP
DFT_D                     d3_op
BASIS                     STO-3G
GEOM_OPT_MAX_CYCLES       100
GEOM_OPT_TOL_GRADIENT     300
GEOM_OPT_TOL_DISPLACEMENT 1200
GEOM_OPT_TOL_ENERGY       100
SYMMETRY                  False
THRESH                    12
SCF_CONVERGENCE           8
MAX_SUB_FILE_NUM          128
MEM_STATIC                400
MEM_TOTAL                 4000
$end
--------------------------------------------------------------

   16   -1510.2356316818      6.33E-09 Convergence criterion met
 Total energy in the final basis set = -1510.23563168
   15   -1510.2423083420      4.90E-09 Convergence criterion met
 Total energy in the final basis set = -1510.24230834
   14   -1510.2497319529      9.14E-09 Convergence criterion met
 Total energy in the final basis set = -1510.24973195
   14   -1510.2538371422      3.97E-09 Convergence criterion met
 Total energy in the final basis set = -1510.25383714
   13   -1510.2569342763      7.01E-09 Convergence criterion met
 Total energy in the final basis set = -1510.25693428
   14   -1510.2601037402      6.51E-09 Convergence criterion met
 Total energy in the final basis set = -1510.26010374
   14   -1510.2617902020      4.27E-09 Convergence criterion met
 Total energy in the final basis set = -1510.26179020
   13   -1510.2627204646      8.56E-09 Convergence criterion met
   10   -1510.2766132173      6.84E-09 Convergence criterion met
 Total energy in the final basis set = -1510.27661322
   10   -1510.2766102775      9.16E-09 Convergence criterion met
 Total energy in the final basis set = -1510.27661028
   10   -1510.2766072413      5.91E-09 Convergence criterion met
 Total energy in the final basis set = -1510.27660724
   10   -1510.2766055809      4.62E-09 Convergence criterion met
 Total energy in the final basis set = -1510.27660558
   10   -1510.2766015146      6.72E-09 Convergence criterion met
 Total energy in the final basis set = -1510.27660151
    9   -1510.2766026735      8.67E-09 Convergence criterion met
 Total energy in the final basis set = -1510.27660267

             Standard Nuclear Orientation (Angstroms)
    I     Atom           X                Y                Z
 ----------------------------------------------------------------
    1      O       4.9002768142    -0.3498004136    -1.9234160924
    2      C       4.2599782824    -0.4588572862    -0.8535306862
    3      C       3.2135948859     0.5517233388    -0.2815518881
    4      C       1.8293263087    -0.0985598397     0.1407458670
    5      C       1.7045139770    -1.6513717193    -0.0728643546
    6      O       1.5543758856    -2.1460883856    -1.4289270203
    7      C       1.1953346886    -1.1324438323    -2.4428466153
    8      C      -0.2523023103    -0.5261076358    -2.2495054514
    9      O      -0.0720418082     0.8573617316    -1.7239878797
   10      C      -1.2331074231     1.4359683003    -1.0962371156
   11      C      -2.6574792740     0.9799089764    -1.5944666599
   12      C      -3.3238469248    -0.1676054979    -0.7105770188
   13      C      -2.3778183081    -0.6608588569     0.4421864591
   14      O      -1.3243944507    -1.3279151817     0.2770439423
   15      O       4.3692088298    -1.5705368847     0.0380938738
   16      O      -2.8656092624    -0.2502422443     1.7078214529
   17      O      -1.0307434074     2.3278609756    -0.2406903596
   18      C      -1.9260742356    -0.6595028465     2.7813829909
   19      C      -3.7119104478     2.1526559125    -1.3921142051
   20      C      -4.9866750124     1.8195005925    -2.2629972593
   21      C      -5.6426886032     0.6706464420    -1.4109649893
   22      C      -4.6318972506     0.5694810445    -0.2015926077
   23      O      -4.1784555279     1.9645629279    -0.0007265935
   24      H      -2.5950468518     0.6729721367    -2.6523492249
   25      H      -3.5653671816    -1.0439364773    -1.3398106611
   26      H      -3.2928237415     3.1686146975    -1.5249340959
   27      H      -5.6453433601     2.6997249877    -2.3312235425
   28      H      -4.7212695511     1.4960483933    -3.2822631718
   29      H      -6.6444274946     0.9547531671    -1.0515893359
   30      H      -5.7213321525    -0.2785196958    -1.9647221090
   31      H      -5.0500457132     0.1582171287     0.7367752594
   32      O       1.7018696883    -2.5077724327     0.8357873011
   33      C       5.2805973734    -2.5925342975    -0.5240579890
   34      C       3.6535852025     1.2077354047     1.1022579041
   35      C       2.7355845974     2.4726534851     1.3531158377
   36      C       1.3792967182     1.7935694254     1.7786962519
   37      C       1.7727949576     0.2671785962     1.6757744347
   38      O       3.1893499008     0.2345453334     2.1110427849
   39      H       3.0624285625     1.3283936059    -1.0522102704
   40      H       1.0221682552     0.4063001096    -0.4279872458
   41      H       6.2915616804    -2.1790014542    -0.7163358250
   42      H       4.7420860522     1.3859362802     1.2030670206
   43      H       3.1522165828     3.0913743973     2.1638435393
   44      H       2.6332646252     3.0959980424     0.4503821501
   45      H       1.1057263355     2.0578298610     2.8126156005
   46      H       0.5414543611     2.0529349025     1.1026861676
   47      H       1.1745044938    -0.4379204567     2.2839714284
   48      H       4.8821863743    -3.0106234612    -1.4712802500
   49      H       5.3422539012    -3.3936288783     0.2350945046
   50      H      -2.4502732430    -0.4624854562     3.7342086059
   51      H      -0.9954752105    -0.0588821204     2.7371568542
   52      H      -1.6629374897    -1.7335878978     2.7049675440
   53      H      -0.7970240932    -0.5074740269    -3.2168883153
   54      H      -0.8017770263    -1.1291400807    -1.4810351030
   55      H       1.2280770149    -1.6870704950    -3.4026884695
   56      H       1.9324610605    -0.3023882422    -2.5026348893
 ----------------------------------------------------------------

    9   -1510.2766032022      8.14E-09 Convergence criterion met
 Total energy in the final basis set = -1510.27660320
 Final energy is   -1510.27660320215
 **  OPTIMIZATION CONVERGED  **

                    Orbital Energies (a.u.)
 --------------------------------------------------------------

 Alpha MOs
 -- Occupied --
-18.963 -18.950 -18.927 -18.912 -18.901 -18.900 -18.898 -18.873
-18.863 -18.859 -10.123 -10.120 -10.088 -10.083 -10.076 -10.073
-10.072 -10.071 -10.070 -10.057 -10.055 -10.054 -10.048 -10.041
-10.031 -10.030 -10.024 -10.006 -10.005  -9.997  -1.035  -1.024
 -1.003  -0.988  -0.982  -0.959  -0.956  -0.955  -0.927  -0.921
 -0.778  -0.748  -0.735  -0.720  -0.710  -0.706  -0.690  -0.674
 -0.650  -0.615  -0.603  -0.583  -0.563  -0.550  -0.537  -0.528
 -0.522  -0.503  -0.498  -0.479  -0.473  -0.468  -0.458  -0.444
 -0.437  -0.431  -0.425  -0.420  -0.416  -0.412  -0.404  -0.401
 -0.394  -0.389  -0.383  -0.380  -0.371  -0.358  -0.353  -0.353
 -0.344  -0.340  -0.334  -0.333  -0.326  -0.322  -0.318  -0.316
 -0.315  -0.308  -0.300  -0.295  -0.290  -0.286  -0.284  -0.279
 -0.273  -0.267  -0.251  -0.245  -0.243  -0.227  -0.221  -0.198
 -0.190  -0.171  -0.169  -0.167  -0.157  -0.156  -0.145  -0.131
 -0.129

          Ground-State Mulliken Net Atomic Charges

     Atom                 Charge (a.u.)
  ----------------------------------------
      1 O                    -0.220002
      2 C                     0.201857
      3 C                    -0.082846
      4 C                    -0.106950
      5 C                     0.212185
      6 O                    -0.178545
      7 C                    -0.050290
      8 C                    -0.068339
      9 O                    -0.174704
     10 C                     0.210440
     11 C                    -0.084018
     12 C                    -0.079701
     13 C                     0.212511
     14 O                    -0.213680
     15 O                    -0.161957
     16 O                    -0.156296
     17 O                    -0.191156
     18 C                    -0.128120
     19 C                     0.026940
     20 C                    -0.144014
     21 C                    -0.144343
     22 C                     0.025710
     23 O                    -0.183055
     24 H                     0.081992
     25 H                     0.086564
     26 H                     0.089722
     27 H                     0.081178
     28 H                     0.073464
     29 H                     0.080857
     30 H                     0.073787
     31 H                     0.092953
     32 O                    -0.200781
     33 C                    -0.126739
     34 C                     0.026322
     35 C                    -0.143369
     36 C                    -0.153809
     37 C                     0.022611
     38 O                    -0.188225
     39 H                     0.080177
     40 H                     0.104488
     41 H                     0.087625
     42 H                     0.079219
     43 H                     0.074087
     44 H                     0.072562
     45 H                     0.069347
     46 H                     0.087330
     47 H                     0.081551
     48 H                     0.088681
     49 H                     0.093987
     50 H                     0.097240
     51 H                     0.096518
     52 H                     0.099335
     53 H                     0.075884
     54 H                     0.113731
     55 H                     0.089799
     56 H                     0.090282
  ----------------------------------------
  Sum of atomic charges =    -0.000000

                    Cartesian Multipole Moments
 -----------------------------------------------------------------
    Charge (ESU x 10^10)
                -0.0000
    Dipole Moment (Debye)
         X      -4.5085      Y       0.4009      Z      -2.7893
       Tot       5.3167
    Quadrupole Moments (Debye-Ang)
        XX    -153.6226     XY       5.6872     YY    -167.9718
        XZ       6.2476     YZ      -0.2322     ZZ    -153.7342

 Total job time:  156.36s(wall), 7458.31s(cpu)
        *  Thank you very much for using Q-Chem.  Have a nice day.  *
