 Q-Chem 5.0, Q-Chem, Inc., Pleasanton, CA (2017)
 Q-Chem 5.0.1 for Intel X86 EM64T Linux

User input:
--------------------------------------------------------------
$molecule
0  1
O -2.061837115 -2.3259220896 1.3107353655
C -2.9534499319 -1.6837097925 0.7088343484
C -3.4556030593 -0.2464158764 1.0837641964
C -3.365470845 0.8696102943 -0.0496219082
C -2.9646924092 0.3501934694 -1.4870505656
O -1.8109096169 0.8946174064 -2.1687117905
C -0.7206347236 1.4002026721 -1.3152690549
C 0.2614609819 0.2323812427 -0.8937405505
O 1.2841411878 0.0173802769 -1.9364400899
C 2.6624356535 0.1236241437 -1.5221538736
C 3.0494368123 1.0611042847 -0.3075524789
C 3.8131263216 0.3277840293 0.8800580557
C 3.8930185128 -1.2300116007 0.7383310486
O 4.5066119345 -1.9013081316 -0.1175782226
O -3.746381257 -2.2166049295 -0.3488142124
O 3.0763023732 -1.8036563428 1.77019246
O 3.5076069518 -0.4225007012 -2.2625431027
C 3.0745763349 -3.2801878342 1.6523743954
C 4.1933378786 2.0520841356 -0.8125159485
C 4.3634604983 3.2089978533 0.2505330297
C 5.1421448257 2.4597313266 1.3939683091
C 5.2482591561 1.0069839176 0.7833065474
O 5.426112461 1.2505755303 -0.6641356892
H 2.1865785205 1.6311101021 0.0692829853
H 3.328938266 0.552908154 1.8467048126
H 4.07577277 2.387234309 -1.8611911676
H 4.9559023636 4.0362618521 -0.1713195241
H 3.393322409 3.6077073693 0.5886347531
H 6.1459042345 2.8866774783 1.5478811085
H 4.6016996019 2.4688118643 2.3538459988
H 6.0768716466 0.3869367431 1.1764015281
O -3.6976403255 -0.3927306848 -2.1753489934
C -3.2853443984 -3.5796040695 -0.7003646185
C -5.0138113582 -0.2173693732 1.414384729
C -5.3002282954 1.0698595549 2.284077051
C -5.1909535314 2.1984217664 1.1930915132
C -4.8888522592 1.344030987 -0.1017548256
O -5.6459808138 0.0935166562 0.1160519211
H -2.8648898573 0.0638960228 1.9641518053
H -2.7212666859 1.6963423207 0.2845608808
H -3.3546727272 -4.2709876801 0.164307663
H -5.4145105855 -1.1642206317 1.8249211339
H -6.311604095 1.0229642113 2.7183969083
H -4.5704572983 1.1908686221 3.1002489935
H -6.1393988968 2.7470444426 1.0793626759
H -4.3883044697 2.9215939825 1.4087777871
H -5.1875568522 1.8128686309 -1.0592466455
H -2.2380709081 -3.572782313 -1.0656824765
H -3.9555940179 -3.9235198626 -1.5091708598
H 2.3859483291 -3.648907431 2.4347629443
H 4.0860689814 -3.7042286834 1.8184480488
H 2.7161202995 -3.6092402943 0.6556362422
H 0.6914444374 0.4390505618 0.1052149111
H -0.330231254 -0.7073847403 -0.80959131
H -1.0728868849 1.9359146476 -0.411409333
H -0.1614892943 2.1220823027 -1.9472198726
$end

$rem
JOBTYPE                   OPT
METHOD                    B3LYP
DFT_D                     d3_op
BASIS                     STO-3G
GEOM_OPT_MAX_CYCLES       100
GEOM_OPT_TOL_GRADIENT     300
GEOM_OPT_TOL_DISPLACEMENT 1200
GEOM_OPT_TOL_ENERGY       100
SYMMETRY                  False
THRESH                    12
SCF_CONVERGENCE           8
MAX_SUB_FILE_NUM          128
MEM_STATIC                400
MEM_TOTAL                 4000
$end
--------------------------------------------------------------

   16   -1510.2421887077      6.15E-09 Convergence criterion met
 Total energy in the final basis set = -1510.24218871
   14   -1510.2457766752      7.43E-09 Convergence criterion met
 Total energy in the final basis set = -1510.24577668
   14   -1510.2491305451      3.63E-09 Convergence criterion met
 Total energy in the final basis set = -1510.24913055
   14   -1510.2500333713      6.50E-09 Convergence criterion met
 Total energy in the final basis set = -1510.25003337
   15   -1510.2534101722      4.22E-09 Convergence criterion met
 Total energy in the final basis set = -1510.25341017
   13   -1510.2557354824      9.28E-09 Convergence criterion met
 Total energy in the final basis set = -1510.25573548
   13   -1510.2578747370      7.21E-09 Convergence criterion met
 Total energy in the final basis set = -1510.25787474
   13   -1510.2596783209      5.84E-09 Convergence criterion met
   12   -1510.2736816412      5.58E-09 Convergence criterion met
 Total energy in the final basis set = -1510.27368164
   12   -1510.2736504190      6.72E-09 Convergence criterion met
 Total energy in the final basis set = -1510.27365042
   12   -1510.2736954528      6.72E-09 Convergence criterion met
 Total energy in the final basis set = -1510.27369545
   12   -1510.2737480781      3.34E-09 Convergence criterion met
 Total energy in the final basis set = -1510.27374808
   11   -1510.2737418559      3.84E-09 Convergence criterion met
 Total energy in the final basis set = -1510.27374186
    9   -1510.2737418356      7.60E-09 Convergence criterion met
 Total energy in the final basis set = -1510.27374184

             Standard Nuclear Orientation (Angstroms)
    I     Atom           X                Y                Z
 ----------------------------------------------------------------
    1      O      -1.7267531310    -2.8553121926    -0.4374218002
    2      C      -2.2736542519    -1.7324335811    -0.2909968349
    3      C      -1.7921237546    -0.5706972168     0.6321345217
    4      C      -1.7834877563     0.8695815051    -0.0447015192
    5      C      -2.4203314710     0.9195508617    -1.4955361833
    6      O      -1.6965914050     0.3309012029    -2.6063655837
    7      C      -0.2270032406     0.4992270314    -2.5604285073
    8      C       0.5229965999    -0.6687097685    -1.8027554478
    9      O       1.9426131642    -0.7659962746    -2.2011464220
   10      C       2.8818578108     0.0503674505    -1.4732646697
   11      C       2.3833771139     1.0464654594    -0.3393952779
   12      C       1.9875122599     0.3773260941     1.0446411839
   13      C       1.9786951893    -1.1832500591     0.9943804994
   14      O       2.8384874880    -1.9377495573     0.4916373035
   15      O      -3.4699113030    -1.3520457144    -0.9578779077
   16      O       0.7573989632    -1.6336777473     1.6031827932
   17      O       4.0769698444    -0.0333834389    -1.8272523482
   18      C       0.5586389982    -3.0950280624     1.4049709943
   19      C       3.6144221737     1.9403276742     0.1123475572
   20      C       3.0773784226     3.1602642280     0.9588681341
   21      C       2.7393463812     2.4598816463     2.3270746674
   22      C       3.1205351771     0.9626630866     1.9993301644
   23      O       4.2955163633     1.0871098081     1.1134658267
   24      H       1.5562234760     1.6664401357    -0.7256493415
   25      H       0.9901954977     0.7102968754     1.3801446210
   26      H       4.3090678214     2.1898493064    -0.7123890218
   27      H       3.8656089986     3.9200516125     1.0785336527
   28      H       2.1981057405     3.6357301043     0.4947780347
   29      H       3.3699237312     2.8445860085     3.1442767651
   30      H       1.6814810279     2.5686340936     2.6155219073
   31      H       3.3566466968     0.3294513084     2.8766349398
   32      O      -3.5447646144     1.4038224818    -1.7411445620
   33      C      -3.9030423825    -2.4066357620    -1.9042558877
   34      C      -2.7881594877    -0.3165986728     1.8492648891
   35      C      -1.9848234440     0.4778703806     2.9540045489
   36      C      -1.9192399216     1.9091805481     2.3026201463
   37      C      -2.7147171134     1.6719462889     0.9585425309
   38      O      -3.7475905219     0.6791720629     1.3294657926
   39      H      -0.7882280906    -0.8589559065     1.0190463791
   40      H      -0.7636677744     1.2907794718    -0.0639206100
   41      H      -4.0518537432    -3.3773983067    -1.3895782433
   42      H      -3.3181451790    -1.2198455432     2.2088285235
   43      H      -2.5437331058     0.4921140945     3.9030249892
   44      H      -0.9890071238     0.0411812811     3.1328837957
   45      H      -2.4297686333     2.6611920100     2.9248075282
   46      H      -0.8864399731     2.2481807317     2.1203066201
   47      H      -3.1878497039     2.5681362523     0.5128365915
   48      H      -3.1611991617    -2.5406483125    -2.7176165930
   49      H      -4.8605790645    -2.0542159580    -2.3291389249
   50      H       0.3311032796    -3.5474880173     2.3883074408
   51      H       1.4821382818    -3.5360534456     0.9828929502
   52      H      -0.3043751810    -3.2138340353     0.7014955947
   53      H       0.3997030600    -0.5699671762    -0.7120022860
   54      H       0.0657653943    -1.6319954502    -2.1102613672
   55      H       0.0622177170     1.4865005739    -2.1444985021
   56      H       0.0967719080     0.4717694455    -3.6223601603
 ----------------------------------------------------------------

    9   -1510.2737428220      9.89E-09 Convergence criterion met
 Total energy in the final basis set = -1510.27374282
 Final energy is   -1510.27374282201
 **  OPTIMIZATION CONVERGED  **

                    Orbital Energies (a.u.)
 --------------------------------------------------------------

 Alpha MOs
 -- Occupied --
-18.956 -18.950 -18.938 -18.930 -18.900 -18.897 -18.896 -18.892
-18.889 -18.881 -10.115 -10.115 -10.108 -10.105 -10.085 -10.081
-10.073 -10.073 -10.068 -10.068 -10.067 -10.054 -10.050 -10.048
-10.047 -10.036 -10.032 -10.030 -10.029 -10.027  -1.029  -1.026
 -1.011  -1.008  -0.981  -0.978  -0.953  -0.951  -0.945  -0.939
 -0.777  -0.771  -0.734  -0.731  -0.717  -0.717  -0.713  -0.671
 -0.665  -0.619  -0.610  -0.604  -0.563  -0.555  -0.548  -0.547
 -0.524  -0.521  -0.498  -0.489  -0.479  -0.473  -0.471  -0.454
 -0.443  -0.440  -0.431  -0.426  -0.422  -0.420  -0.418  -0.412
 -0.408  -0.396  -0.390  -0.381  -0.377  -0.370  -0.365  -0.356
 -0.350  -0.348  -0.345  -0.340  -0.338  -0.327  -0.323  -0.320
 -0.320  -0.314  -0.313  -0.310  -0.307  -0.304  -0.296  -0.290
 -0.283  -0.267  -0.262  -0.251  -0.245  -0.241  -0.238  -0.194
 -0.192  -0.189  -0.173  -0.168  -0.163  -0.155  -0.155  -0.153
 -0.151

          Ground-State Mulliken Net Atomic Charges

     Atom                 Charge (a.u.)
  ----------------------------------------
      1 O                    -0.217801
      2 C                     0.210091
      3 C                    -0.101401
      4 C                    -0.086428
      5 C                     0.213972
      6 O                    -0.178458
      7 C                    -0.053234
      8 C                    -0.059068
      9 O                    -0.166976
     10 C                     0.210630
     11 C                    -0.085260
     12 C                    -0.084140
     13 C                     0.206234
     14 O                    -0.195900
     15 O                    -0.157530
     16 O                    -0.178280
     17 O                    -0.191446
     18 C                    -0.155280
     19 C                     0.027255
     20 C                    -0.145231
     21 C                    -0.143388
     22 C                     0.027151
     23 O                    -0.181270
     24 H                     0.072637
     25 H                     0.079751
     26 H                     0.094638
     27 H                     0.081596
     28 H                     0.071572
     29 H                     0.081257
     30 H                     0.071416
     31 H                     0.086171
     32 O                    -0.187271
     33 C                    -0.125771
     34 C                     0.026488
     35 C                    -0.144741
     36 C                    -0.144745
     37 C                     0.026661
     38 O                    -0.183441
     39 H                     0.105281
     40 H                     0.069586
     41 H                     0.092609
     42 H                     0.083051
     43 H                     0.079051
     44 H                     0.076977
     45 H                     0.080010
     46 H                     0.066177
     47 H                     0.090573
     48 H                     0.093361
     49 H                     0.099546
     50 H                     0.081761
     51 H                     0.098597
     52 H                     0.112498
     53 H                     0.081283
     54 H                     0.097843
     55 H                     0.074051
     56 H                     0.097284
  ----------------------------------------
  Sum of atomic charges =     0.000000

                    Cartesian Multipole Moments
 -----------------------------------------------------------------
    Charge (ESU x 10^10)
                -0.0000
    Dipole Moment (Debye)
         X      -1.5778      Y       1.5936      Z       2.7243
       Tot       3.5285
    Quadrupole Moments (Debye-Ang)
        XX    -192.4001     XY      15.4858     YY    -154.2001
        XZ       3.8245     YZ       0.5474     ZZ    -158.9928

 Total job time:  214.43s(wall), 10235.90s(cpu)
        *  Thank you very much for using Q-Chem.  Have a nice day.  *
