 Q-Chem 5.0, Q-Chem, Inc., Pleasanton, CA (2017)
 Q-Chem 5.0.1 for Intel X86 EM64T Linux

User input:
--------------------------------------------------------------
$molecule
0  1
O -3.94934 -3.66094 2.70899
C -3.26408 -4.56952 2.26188
C -3.36658 -6.02376 2.66595
C -3.63629 -7.04588 1.54953
C -3.59671 -6.52161 0.1312
O -4.78269 -6.78345 -0.49354
C -5.89224 -6.84787 0.40868
C -6.44666 -5.44957 0.66069
O -7.38636 -5.10283 -0.36867
C -8.62788 -4.76951 0.06338
C -8.99893 -5.44271 1.3633
C -9.38835 -4.48597 2.49965
C -9.69436 -3.06013 2.08729
O -10.64137 -2.70925 1.39837
O -2.29042 -4.25028 1.36737
O -8.88291 -2.10555 2.61355
O -9.40301 -4.13112 -0.63159
C -9.02099 -0.75324 2.381
C -10.34441 -6.22448 1.23832
C -10.42682 -7.33237 2.29451
C -10.53013 -6.50195 3.5591
C -10.7218 -5.10621 2.94933
O -11.3389 -5.34842 1.70842
H -8.35093 -6.27301 1.70159
H -8.59754 -4.45788 3.28186
H -10.5156 -6.65406 0.22667
H -11.39903 -7.84954 2.12412
H -9.6166 -8.09303 2.29554
H -11.4232 -6.84173 4.12828
H -9.62866 -6.51609 4.20971
H -11.27538 -4.44001 3.64798
O -2.59191 -6.2058 -0.49023
C -2.04726 -2.9764 0.89841
C -2.01308 -6.47446 3.23231
C -2.17242 -7.76008 4.04755
C -2.27693 -8.76989 2.93251
C -2.2853 -7.83829 1.71075
O -1.32972 -6.87558 2.07822
H -4.1657 -6.0701 3.43884
H -4.23326 -7.93796 1.78462
H -1.77874 -2.30313 1.74033
H -1.52441 -5.68541 3.84629
H -1.25262 -7.97551 4.63559
H -3.05211 -7.70914 4.72523
H -1.32308 -9.34411 2.89048
H -3.12103 -9.48784 3.01468
H -2.02658 -8.44259 0.81064
H -2.94517 -2.58476 0.37422
H -1.20088 -3.00849 0.18219
H -8.22711 -0.20677 2.9302
H -10.0117 -0.40189 2.74077
H -8.91758 -0.53957 1.29561
H -6.64718 -5.21871 1.72859
H -5.59971 -4.7413 0.54745
H -6.02916 -7.53492 1.25872
H -6.69176 -7.34979 -0.1778
$end

$opt
CONSTRAINT
tors           1           2           3           4    +123.158
tors           3           4           5           6    -123.158
tors           4           5           6           7     +28.421
tors           5           6           7           8     +85.263
tors           6           7           8           9     +85.263
tors           7           8           9          10    +123.158
tors           8           9          10          11     -28.421
tors           9          10          11          12    +123.158
tors          11          12          13          14     +66.316
ENDCONSTRAINT
$end

$rem
JOBTYPE                   OPT
METHOD                    B3LYP
DFT_D                     d3_op
BASIS                     STO-3G
GEOM_OPT_MAX_CYCLES       100
GEOM_OPT_TOL_GRADIENT     300
GEOM_OPT_TOL_DISPLACEMENT 1200
GEOM_OPT_TOL_ENERGY       100
SYMMETRY                  False
THRESH                    12
SCF_CONVERGENCE           8
MAX_SUB_FILE_NUM          128
MEM_STATIC                400
MEM_TOTAL                 4000
$end
--------------------------------------------------------------

   15   -1510.0592504191      9.46E-09 Convergence criterion met
 Total energy in the final basis set = -1510.05925042
   15   -1510.1377121627      2.34E-09 Convergence criterion met
 Total energy in the final basis set = -1510.13771216
   14   -1510.1817594223      9.46E-09 Convergence criterion met
 Total energy in the final basis set = -1510.18175942
   14   -1510.2080038384      6.59E-09 Convergence criterion met
 Total energy in the final basis set = -1510.20800384
   14   -1510.2220026465      3.26E-09 Convergence criterion met
 Total energy in the final basis set = -1510.22200265
   14   -1510.2303322626      2.54E-09 Convergence criterion met
 Total energy in the final basis set = -1510.23033226
   13   -1510.2356369922      6.79E-09 Convergence criterion met
 Total energy in the final basis set = -1510.23563699
   12   -1510.2388270061      9.36E-09 Convergence criterion met
   13   -1510.2420488291      3.82E-09 Convergence criterion met
 Total energy in the final basis set = -1510.24204883
   13   -1510.2422749438      5.12E-09 Convergence criterion met
 Total energy in the final basis set = -1510.24227494
   13   -1510.2423490925      3.21E-09 Convergence criterion met
 Total energy in the final basis set = -1510.24234909
   11   -1510.2423589523      8.03E-09 Convergence criterion met
 Total energy in the final basis set = -1510.24235895
   11   -1510.2423593589      7.67E-09 Convergence criterion met
 Total energy in the final basis set = -1510.24235936
   11   -1510.2423643030      5.12E-09 Convergence criterion met
 Total energy in the final basis set = -1510.24236430

             Standard Nuclear Orientation (Angstroms)
    I     Atom           X                Y                Z
 ----------------------------------------------------------------
    1      O      -2.0618371150    -2.3259220896     1.3107353655
    2      C      -2.9534499319    -1.6837097925     0.7088343484
    3      C      -3.4556030593    -0.2464158764     1.0837641964
    4      C      -3.3654708450     0.8696102943    -0.0496219082
    5      C      -2.9646924092     0.3501934694    -1.4870505656
    6      O      -1.8109096169     0.8946174064    -2.1687117905
    7      C      -0.7206347236     1.4002026721    -1.3152690549
    8      C       0.2614609819     0.2323812427    -0.8937405505
    9      O       1.2841411878     0.0173802769    -1.9364400899
   10      C       2.6624356535     0.1236241437    -1.5221538736
   11      C       3.0494368123     1.0611042847    -0.3075524789
   12      C       3.8131263216     0.3277840293     0.8800580557
   13      C       3.8930185128    -1.2300116007     0.7383310486
   14      O       4.5066119345    -1.9013081316    -0.1175782226
   15      O      -3.7463812570    -2.2166049295    -0.3488142124
   16      O       3.0763023732    -1.8036563428     1.7701924600
   17      O       3.5076069518    -0.4225007012    -2.2625431027
   18      C       3.0745763349    -3.2801878342     1.6523743954
   19      C       4.1933378786     2.0520841356    -0.8125159485
   20      C       4.3634604983     3.2089978533     0.2505330297
   21      C       5.1421448257     2.4597313266     1.3939683091
   22      C       5.2482591561     1.0069839176     0.7833065474
   23      O       5.4261124610     1.2505755303    -0.6641356892
   24      H       2.1865785205     1.6311101021     0.0692829853
   25      H       3.3289382660     0.5529081540     1.8467048126
   26      H       4.0757727700     2.3872343090    -1.8611911676
   27      H       4.9559023636     4.0362618521    -0.1713195241
   28      H       3.3933224090     3.6077073693     0.5886347531
   29      H       6.1459042345     2.8866774783     1.5478811085
   30      H       4.6016996019     2.4688118643     2.3538459988
   31      H       6.0768716466     0.3869367431     1.1764015281
   32      O      -3.6976403255    -0.3927306848    -2.1753489934
   33      C      -3.2853443984    -3.5796040695    -0.7003646185
   34      C      -5.0138113582    -0.2173693732     1.4143847290
   35      C      -5.3002282954     1.0698595549     2.2840770510
   36      C      -5.1909535314     2.1984217664     1.1930915132
   37      C      -4.8888522592     1.3440309870    -0.1017548256
   38      O      -5.6459808138     0.0935166562     0.1160519211
   39      H      -2.8648898573     0.0638960228     1.9641518053
   40      H      -2.7212666859     1.6963423207     0.2845608808
   41      H      -3.3546727272    -4.2709876801     0.1643076630
   42      H      -5.4145105855    -1.1642206317     1.8249211339
   43      H      -6.3116040950     1.0229642113     2.7183969083
   44      H      -4.5704572983     1.1908686221     3.1002489935
   45      H      -6.1393988968     2.7470444426     1.0793626759
   46      H      -4.3883044697     2.9215939825     1.4087777871
   47      H      -5.1875568522     1.8128686309    -1.0592466455
   48      H      -2.2380709081    -3.5727823130    -1.0656824765
   49      H      -3.9555940179    -3.9235198626    -1.5091708598
   50      H       2.3859483291    -3.6489074310     2.4347629443
   51      H       4.0860689814    -3.7042286834     1.8184480488
   52      H       2.7161202995    -3.6092402943     0.6556362422
   53      H       0.6914444374     0.4390505618     0.1052149111
   54      H      -0.3302312540    -0.7073847403    -0.8095913100
   55      H      -1.0728868849     1.9359146476    -0.4114093330
   56      H      -0.1614892943     2.1220823027    -1.9472198726
 ----------------------------------------------------------------

   11   -1510.2423640454      9.32E-09 Convergence criterion met
 Total energy in the final basis set = -1510.24236405
 Final energy is   -1510.24236404544
 **  OPTIMIZATION CONVERGED  **

                    Orbital Energies (a.u.)
 --------------------------------------------------------------

 Alpha MOs
 -- Occupied --
-18.940 -18.934 -18.933 -18.930 -18.897 -18.894 -18.881 -18.880
-18.878 -18.874 -10.101 -10.101 -10.100 -10.098 -10.085 -10.083
-10.067 -10.067 -10.065 -10.064 -10.063 -10.063 -10.046 -10.045
-10.044 -10.043 -10.028 -10.026 -10.026 -10.025  -1.015  -1.012
 -1.008  -1.003  -0.977  -0.975  -0.943  -0.938  -0.935  -0.932
 -0.770  -0.768  -0.728  -0.727  -0.718  -0.712  -0.711  -0.664
 -0.662  -0.613  -0.607  -0.603  -0.554  -0.552  -0.546  -0.544
 -0.521  -0.517  -0.493  -0.477  -0.470  -0.464  -0.460  -0.456
 -0.441  -0.438  -0.428  -0.420  -0.416  -0.413  -0.412  -0.408
 -0.403  -0.396  -0.382  -0.372  -0.370  -0.361  -0.358  -0.351
 -0.349  -0.341  -0.338  -0.337  -0.335  -0.323  -0.320  -0.316
 -0.314  -0.312  -0.309  -0.306  -0.304  -0.290  -0.286  -0.283
 -0.276  -0.256  -0.252  -0.248  -0.241  -0.240  -0.238  -0.186
 -0.179  -0.176  -0.165  -0.157  -0.156  -0.151  -0.148  -0.147
 -0.142

          Ground-State Mulliken Net Atomic Charges

     Atom                 Charge (a.u.)
  ----------------------------------------
      1 O                    -0.219399
      2 C                     0.199742
      3 C                    -0.080462
      4 C                    -0.084245
      5 C                     0.200940
      6 O                    -0.168808
      7 C                    -0.049335
      8 C                    -0.050713
      9 O                    -0.171544
     10 C                     0.204147
     11 C                    -0.084696
     12 C                    -0.080540
     13 C                     0.202593
     14 O                    -0.199282
     15 O                    -0.156312
     16 O                    -0.173431
     17 O                    -0.182739
     18 C                    -0.129709
     19 C                     0.027967
     20 C                    -0.144774
     21 C                    -0.143863
     22 C                     0.027397
     23 O                    -0.179140
     24 H                     0.074294
     25 H                     0.083365
     26 H                     0.086139
     27 H                     0.079765
     28 H                     0.070364
     29 H                     0.079537
     30 H                     0.072927
     31 H                     0.086275
     32 O                    -0.183210
     33 C                    -0.126473
     34 C                     0.028044
     35 C                    -0.143824
     36 C                    -0.144769
     37 C                     0.028388
     38 O                    -0.179163
     39 H                     0.081235
     40 H                     0.074293
     41 H                     0.088201
     42 H                     0.085727
     43 H                     0.079638
     44 H                     0.073265
     45 H                     0.080053
     46 H                     0.071232
     47 H                     0.086882
     48 H                     0.088766
     49 H                     0.097093
     50 H                     0.091060
     51 H                     0.088542
     52 H                     0.091495
     53 H                     0.084020
     54 H                     0.089868
     55 H                     0.078114
     56 H                     0.095063
  ----------------------------------------
  Sum of atomic charges =    -0.000000

                    Cartesian Multipole Moments
 -----------------------------------------------------------------
    Charge (ESU x 10^10)
                -0.0000
    Dipole Moment (Debye)
         X      -1.3348      Y       3.4692      Z       5.6958
       Tot       6.8014
    Quadrupole Moments (Debye-Ang)
        XX    -179.6137     XY       2.7723     YY    -145.1971
        XZ       3.7476     YZ      -1.9334     ZZ    -170.7349

 Total job time:  57.94s(wall), 2759.36s(cpu)
        *  Thank you very much for using Q-Chem.  Have a nice day.  *
