 Q-Chem 5.0, Q-Chem, Inc., Pleasanton, CA (2017)
 Q-Chem 5.0.1 for Intel X86 EM64T Linux

User input:
--------------------------------------------------------------
$molecule
0  1
O -2.3534188016 -2.79404557 0.1628969459
C -3.0063108181 -1.7590876778 -0.0947709194
C -3.241300126 -0.527728673 0.844032219
C -3.2197036315 0.8576946639 0.0852571873
C -2.6291912569 0.8244000991 -1.371551748
O -1.6489690735 -0.2388524302 -1.5096750128
C -0.3364842099 0.2678459131 -1.9579758045
C 0.1879361379 1.5380344521 -1.1732704124
O 0.49983152 1.2666250973 0.2478220774
C 1.9494489947 1.1828763237 0.4558814006
C 2.5046396115 -0.2624542149 0.1580898805
C 3.915098625 -0.4339283473 -0.5500986109
C 4.8730480692 0.8051115361 -0.6563204491
O 5.6030760473 1.075597051 -1.6375180191
O -3.8150680939 -1.5786584188 -1.2688298058
O 4.9574101015 1.4627902642 0.6051793895
O 2.5447314508 2.1336818134 0.9979510298
C 5.9307508367 2.5766419466 0.5352121688
C 2.7246676169 -1.1110508083 1.4991465162
C 2.5354796986 -2.6317821728 1.1240379439
C 3.8396671879 -2.8879501798 0.281583471
C 4.584320284 -1.5002929573 0.4299559547
O 4.1743446566 -1.0088293465 1.7636513197
H 1.7374480525 -0.7664573307 -0.4511277613
H 3.7932711142 -0.838203508 -1.5706033004
H 2.1418760794 -0.7590890153 2.3724061463
H 2.519779881 -3.248294237 2.0370242309
H 1.60893181 -2.8151606378 0.556320412
H 4.4473577271 -3.7006032131 0.7097495541
H 3.6244051751 -3.1262766142 -0.7723344374
H 5.6882001951 -1.5518042419 0.3585041508
O -2.9015011182 1.6339277659 -2.2820572184
C -3.597664325 -2.6905322788 -2.2195538806
C -4.7502411449 -0.5339393001 1.3561271159
C -4.9190283437 0.5658006214 2.480244942
C -4.9829177281 1.882558086 1.618649844
C -4.7398880024 1.3014367987 0.1722342971
O -5.4878144413 0.0228716589 0.1990917854
H -2.5117681935 -0.5674407205 1.6711984122
H -2.5814177768 1.5738221887 0.6390655322
H -4.5853038841 -3.033184709 -2.5830529813
H -5.139639571 -1.5370217337 1.6180111767
H -5.8510886153 0.4029201028 3.0444242547
H -4.0740168677 0.5636109047 3.1873630737
H -5.9760610976 2.3556609371 1.6795970199
H -4.2189162347 2.62135054 1.9090847868
H -5.0772322299 1.9374588271 -0.6693690713
H -3.0619888656 -3.5177169275 -1.7112043539
H -2.9942117801 -2.3295909861 -3.0768247472
H 5.9541552407 3.0193194728 1.547686812
H 5.6162297666 3.3464405216 -0.1986416386
H 6.9434466699 2.2176516281 0.2590162806
H 1.0612446053 1.9423849741 -1.7291538168
H -0.6057220114 2.3158113126 -1.1904977209
H -0.3681536785 0.5402622721 -3.0395251701
H 0.3586593196 -0.586848464 -1.8400020279
$end

$rem
JOBTYPE                   OPT
METHOD                    B3LYP
DFT_D                     d3_op
BASIS                     STO-3G
GEOM_OPT_MAX_CYCLES       100
GEOM_OPT_TOL_GRADIENT     300
GEOM_OPT_TOL_DISPLACEMENT 1200
GEOM_OPT_TOL_ENERGY       100
SYMMETRY                  False
THRESH                    12
SCF_CONVERGENCE           8
MAX_SUB_FILE_NUM          128
MEM_STATIC                400
MEM_TOTAL                 4000
$end
--------------------------------------------------------------

   16   -1510.2393167185      5.58E-09 Convergence criterion met
 Total energy in the final basis set = -1510.23931672
   14   -1510.2430165557      5.40E-09 Convergence criterion met
 Total energy in the final basis set = -1510.24301656
   14   -1510.2466520386      6.17E-09 Convergence criterion met
 Total energy in the final basis set = -1510.24665204
   14   -1510.2499654483      5.23E-09 Convergence criterion met
 Total energy in the final basis set = -1510.24996545
   13   -1510.2530943501      7.79E-09 Convergence criterion met
 Total energy in the final basis set = -1510.25309435
   14   -1510.2558575093      5.98E-09 Convergence criterion met
 Total energy in the final basis set = -1510.25585751
   13   -1510.2578081586      6.91E-09 Convergence criterion met
 Total energy in the final basis set = -1510.25780816
   13   -1510.2594607823      2.87E-09 Convergence criterion met
   11   -1510.2776421151      9.60E-09 Convergence criterion met
 Total energy in the final basis set = -1510.27764212
   11   -1510.2776352241      6.02E-09 Convergence criterion met
 Total energy in the final basis set = -1510.27763522
   10   -1510.2776375291      5.74E-09 Convergence criterion met
 Total energy in the final basis set = -1510.27763753
    9   -1510.2776333138      9.02E-09 Convergence criterion met
 Total energy in the final basis set = -1510.27763331
    9   -1510.2776414608      7.61E-09 Convergence criterion met
 Total energy in the final basis set = -1510.27764146
    9   -1510.2776428285      4.10E-09 Convergence criterion met
 Total energy in the final basis set = -1510.27764283

             Standard Nuclear Orientation (Angstroms)
    I     Atom           X                Y                Z
 ----------------------------------------------------------------
    1      O      -3.2055809751    -2.1497177457     1.5735354345
    2      C      -3.5933749701    -1.2056789675     0.8512874538
    3      C      -4.0209650099     0.2274168718     1.3098891206
    4      C      -3.2899956696     1.3960388294     0.5241232641
    5      C      -2.2469845243     0.8906930148    -0.5313771001
    6      O      -1.3511106018    -0.0162053074     0.1316168117
    7      C      -0.3609960388    -0.5575873377    -0.8242169800
    8      C       0.8395891571     0.4378807244    -1.0508882175
    9      O       1.4087197220     0.9317752925     0.2184887373
   10      C       2.2004341010    -0.0252798948     0.9579102693
   11      C       2.9270220644    -1.1878449297     0.1612257297
   12      C       3.9747321994    -0.6743800954    -0.9180825153
   13      C       4.0411454099     0.8879181724    -1.0205355576
   14      O       3.8779300690     1.5838964379    -2.0467242751
   15      O      -3.7699253035    -1.2936560648    -0.5723329992
   16      O       4.3070779673     1.4103061862     0.2825461030
   17      O       2.3170937920     0.1545852609     2.1878190600
   18      C       4.2336427782     2.8888911402     0.2673003286
   19      C       3.8749444168    -1.9937646085     1.1447482986
   20      C       4.2702708394    -3.3560534867     0.4528939792
   21      C       5.2960922953    -2.8573558575    -0.6316674484
   22      C       5.3174705443    -1.3037418279    -0.3406436254
   23      O       5.1359123470    -1.2168120983     1.1236875467
   24      H       2.1798630296    -1.8557958756    -0.3006841655
   25      H       3.7487134731    -1.0692248693    -1.9242796741
   26      H       3.4846332070    -2.0655571184     2.1784564599
   27      H       4.7489274901    -4.0311543179     1.1799084293
   28      H       3.4003375601    -3.8707729527     0.0141552516
   29      H       6.2959634243    -3.2915361385    -0.4736132561
   30      H       4.9715949078    -3.0813028590    -1.6603150367
   31      H       6.2412755897    -0.7782505704    -0.6513128630
   32      O      -2.1576956312     1.2108890579    -1.7348295123
   33      C      -3.4010024857    -2.6428961826    -1.0566584851
   34      C      -5.5368124913     0.5305853244     0.9276108108
   35      C      -6.0075297103     1.8125324403     1.7230421853
   36      C      -5.2866884386     2.9555270582     0.9153056117
   37      C      -4.5162586173     2.1143067510    -0.1759256197
   38      O      -5.4467648613     1.0000879864    -0.4722153425
   39      H      -3.8484959996     0.2982112425     2.3978617129
   40      H      -2.7689340654     2.0715752307     1.2275663265
   41      H      -4.2937919280    -3.1257634943    -1.5007506102
   42      H      -6.2119111015    -0.3440407426     1.0011622674
   43      H      -7.1035469234     1.9124962410     1.6746033289
   44      H      -5.7021344707     1.7801764943     2.7811259261
   45      H      -6.0130931796     3.6315709033     0.4369649418
   46      H      -4.6038129026     3.5540722901     1.5392740620
   47      H      -4.2481570516     2.6518707108    -1.1062578460
   48      H      -3.0252920841    -3.2499430937    -0.2078196200
   49      H      -2.6187900159    -2.5429787581    -1.8339310762
   50      H       4.5142061428     3.2171830927     1.2847522932
   51      H       3.2036025198     3.2309949816     0.0375403345
   52      H       4.9311736723     3.3259418782    -0.4757487559
   53      H       1.5883515768    -0.0399567477    -1.7157961762
   54      H       0.4559446156     1.3433874896    -1.5634222104
   55      H      -0.8334965882    -0.7659060532    -1.8085758104
   56      H      -0.0052177444    -1.5059385504    -0.3746580468
 ----------------------------------------------------------------

    9   -1510.2776447306      3.91E-09 Convergence criterion met
 Total energy in the final basis set = -1510.27764473
 Final energy is   -1510.27764473056
 **  OPTIMIZATION CONVERGED  **

                    Orbital Energies (a.u.)
 --------------------------------------------------------------

 Alpha MOs
 -- Occupied --
-18.938 -18.938 -18.931 -18.928 -18.891 -18.888 -18.881 -18.880
-18.877 -18.875 -10.105 -10.102 -10.101 -10.100 -10.081 -10.078
-10.064 -10.062 -10.061 -10.060 -10.059 -10.058 -10.043 -10.041
-10.040 -10.038 -10.024 -10.023 -10.021 -10.020  -1.020  -1.015
 -1.007  -1.002  -0.973  -0.970  -0.945  -0.939  -0.935  -0.935
 -0.767  -0.765  -0.728  -0.726  -0.714  -0.708  -0.703  -0.660
 -0.659  -0.620  -0.603  -0.590  -0.554  -0.546  -0.540  -0.537
 -0.515  -0.512  -0.489  -0.478  -0.472  -0.460  -0.453  -0.443
 -0.434  -0.434  -0.428  -0.425  -0.415  -0.413  -0.412  -0.406
 -0.399  -0.389  -0.373  -0.370  -0.367  -0.358  -0.356  -0.350
 -0.348  -0.342  -0.339  -0.333  -0.332  -0.326  -0.318  -0.314
 -0.310  -0.306  -0.305  -0.303  -0.296  -0.295  -0.291  -0.281
 -0.276  -0.259  -0.254  -0.246  -0.239  -0.236  -0.234  -0.189
 -0.178  -0.173  -0.168  -0.162  -0.158  -0.154  -0.148  -0.146
 -0.144

          Ground-State Mulliken Net Atomic Charges

     Atom                 Charge (a.u.)
  ----------------------------------------
      1 O                    -0.214880
      2 C                     0.214121
      3 C                    -0.078054
      4 C                    -0.077731
      5 C                     0.218337
      6 O                    -0.171447
      7 C                    -0.051592
      8 C                    -0.053570
      9 O                    -0.175846
     10 C                     0.213977
     11 C                    -0.085249
     12 C                    -0.083347
     13 C                     0.204754
     14 O                    -0.214710
     15 O                    -0.170532
     16 O                    -0.162599
     17 O                    -0.192495
     18 C                    -0.127074
     19 C                     0.025958
     20 C                    -0.144395
     21 C                    -0.144066
     22 C                     0.026990
     23 O                    -0.183152
     24 H                     0.075710
     25 H                     0.080521
     26 H                     0.093425
     27 H                     0.079577
     28 H                     0.071786
     29 H                     0.079082
     30 H                     0.072770
     31 H                     0.083987
     32 O                    -0.212600
     33 C                    -0.136102
     34 C                     0.026289
     35 C                    -0.143929
     36 C                    -0.143835
     37 C                     0.024778
     38 O                    -0.185777
     39 H                     0.087352
     40 H                     0.088199
     41 H                     0.086327
     42 H                     0.082653
     43 H                     0.078209
     44 H                     0.074482
     45 H                     0.078354
     46 H                     0.073924
     47 H                     0.090394
     48 H                     0.100352
     49 H                     0.080893
     50 H                     0.095314
     51 H                     0.092510
     52 H                     0.089499
     53 H                     0.084961
     54 H                     0.099551
     55 H                     0.093653
     56 H                     0.084295
  ----------------------------------------
  Sum of atomic charges =    -0.000000

                    Cartesian Multipole Moments
 -----------------------------------------------------------------
    Charge (ESU x 10^10)
                -0.0000
    Dipole Moment (Debye)
         X      -0.1859      Y      -1.2735      Z      -1.2134
       Tot       1.7688
    Quadrupole Moments (Debye-Ang)
        XX    -157.7980     XY      -7.1057     YY    -149.0490
        XZ     -13.2405     YZ      10.4061     ZZ    -170.1825

 Total job time:  118.69s(wall), 5659.42s(cpu)
        *  Thank you very much for using Q-Chem.  Have a nice day.  *
