 Q-Chem 5.0, Q-Chem, Inc., Pleasanton, CA (2017)
 Q-Chem 5.0.1 for Intel X86 EM64T Linux

User input:
--------------------------------------------------------------
$molecule
0  1
O -3.94934 -3.66094 2.70899
C -3.26408 -4.56952 2.26188
C -3.36658 -6.02376 2.66595
C -3.18715 -7.07505 1.5585
C -2.74922 -6.56083 0.20502
O -3.18442 -5.27767 0.03314
C -3.99408 -5.10941 -1.13536
C -5.05164 -6.20619 -1.20445
O -5.98252 -6.05742 -0.12084
C -7.19056 -5.54068 -0.45667
C -7.20021 -4.03063 -0.47441
C -8.03846 -3.4018 -1.59698
C -9.00897 -4.33167 -2.2971
O -9.26224 -4.32205 -3.49306
O -2.03118 -4.1998 1.78861
O -9.89465 -5.002 -1.50932
O -8.18721 -6.21172 -0.25141
C -10.93033 -5.78726 -1.97391
C -7.89453 -3.41703 0.7651
C -7.3868 -1.99226 0.99187
C -8.00866 -1.28166 -0.19454
C -8.87713 -2.41157 -0.7635
O -9.21958 -3.18112 0.36348
H -6.18045 -3.63404 -0.45019
H -7.42545 -2.89746 -2.3762
H -7.76313 -4.02375 1.68792
H -7.87565 -1.62584 1.92336
H -6.28619 -1.87411 1.0915
H -8.63226 -0.44322 0.18725
H -7.28928 -0.90982 -0.95608
H -9.72996 -1.99679 -1.34561
O -2.35232 -7.27855 -0.70555
C -1.61838 -2.91581 1.48076
C -2.22311 -6.41419 3.62116
C -2.60593 -7.65901 4.4209
C -2.49445 -8.7226 3.35074
C -2.01621 -7.87668 2.167
O -1.21566 -6.88807 2.76507
H -4.34037 -6.13984 3.19278
H -4.07187 -7.73042 1.40106
H -0.74883 -2.65082 2.1165
H -1.93365 -5.5896 4.30964
H -1.80946 -7.83494 5.17891
H -3.59248 -7.59538 4.92849
H -1.69356 -9.43613 3.64791
H -3.43168 -9.27752 3.12942
H -1.50673 -8.52736 1.42231
H -2.41728 -2.15918 1.63164
H -1.30629 -2.88275 0.41661
H -11.48062 -6.21106 -1.10908
H -10.53015 -6.62218 -2.58787
H -11.63318 -5.17654 -2.57984
H -5.5634 -6.06666 -2.18654
H -4.68507 -7.25056 -1.23533
H -3.34322 -5.23377 -2.02968
H -4.35172 -4.0729 -1.20053
$end

$opt
CONSTRAINT
tors           1           2           3           4    +142.105
tors           3           4           5           6     -28.421
tors           4           5           6           7    -123.158
tors           5           6           7           8     +47.368
tors           6           7           8           9     +66.316
tors           7           8           9          10    +104.211
tors           8           9          10          11     -85.263
tors           9          10          11          12    +142.105
tors          11          12          13          14    -142.105
ENDCONSTRAINT
$end

$rem
JOBTYPE                   OPT
METHOD                    B3LYP
DFT_D                     d3_op
BASIS                     STO-3G
GEOM_OPT_MAX_CYCLES       100
GEOM_OPT_TOL_GRADIENT     300
GEOM_OPT_TOL_DISPLACEMENT 1200
GEOM_OPT_TOL_ENERGY       100
SYMMETRY                  False
THRESH                    12
SCF_CONVERGENCE           8
MAX_SUB_FILE_NUM          128
MEM_STATIC                400
MEM_TOTAL                 4000
$end
--------------------------------------------------------------

   15   -1510.0860079823      7.90E-09 Convergence criterion met
 Total energy in the final basis set = -1510.08600798
   14   -1510.1601795267      4.70E-09 Convergence criterion met
 Total energy in the final basis set = -1510.16017953
   14   -1510.1996739809      5.76E-09 Convergence criterion met
 Total energy in the final basis set = -1510.19967398
   14   -1510.2188649990      6.03E-09 Convergence criterion met
 Total energy in the final basis set = -1510.21886500
   14   -1510.2283946185      4.03E-09 Convergence criterion met
 Total energy in the final basis set = -1510.22839462
   14   -1510.2330994289      2.49E-09 Convergence criterion met
 Total energy in the final basis set = -1510.23309943
   13   -1510.2360043916      6.07E-09 Convergence criterion met
 Total energy in the final basis set = -1510.23600439
   13   -1510.2376621741      3.28E-09 Convergence criterion met
    9   -1510.2393210331      5.87E-09 Convergence criterion met
 Total energy in the final basis set = -1510.23932103
    9   -1510.2393262605      6.93E-09 Convergence criterion met
 Total energy in the final basis set = -1510.23932626
   10   -1510.2393312719      7.48E-09 Convergence criterion met
 Total energy in the final basis set = -1510.23933127
    9   -1510.2393361385      9.57E-09 Convergence criterion met
 Total energy in the final basis set = -1510.23933614
    9   -1510.2393395460      7.36E-09 Convergence criterion met
 Total energy in the final basis set = -1510.23933955
    9   -1510.2393411591      4.55E-09 Convergence criterion met
 Total energy in the final basis set = -1510.23934116

             Standard Nuclear Orientation (Angstroms)
    I     Atom           X                Y                Z
 ----------------------------------------------------------------
    1      O      -2.3534188016    -2.7940455700     0.1628969459
    2      C      -3.0063108181    -1.7590876778    -0.0947709194
    3      C      -3.2413001260    -0.5277286730     0.8440322190
    4      C      -3.2197036315     0.8576946639     0.0852571873
    5      C      -2.6291912569     0.8244000991    -1.3715517480
    6      O      -1.6489690735    -0.2388524302    -1.5096750128
    7      C      -0.3364842099     0.2678459131    -1.9579758045
    8      C       0.1879361379     1.5380344521    -1.1732704124
    9      O       0.4998315200     1.2666250973     0.2478220774
   10      C       1.9494489947     1.1828763237     0.4558814006
   11      C       2.5046396115    -0.2624542149     0.1580898805
   12      C       3.9150986250    -0.4339283473    -0.5500986109
   13      C       4.8730480692     0.8051115361    -0.6563204491
   14      O       5.6030760473     1.0755970510    -1.6375180191
   15      O      -3.8150680939    -1.5786584188    -1.2688298058
   16      O       4.9574101015     1.4627902642     0.6051793895
   17      O       2.5447314508     2.1336818134     0.9979510298
   18      C       5.9307508367     2.5766419466     0.5352121688
   19      C       2.7246676169    -1.1110508083     1.4991465162
   20      C       2.5354796986    -2.6317821728     1.1240379439
   21      C       3.8396671879    -2.8879501798     0.2815834710
   22      C       4.5843202840    -1.5002929573     0.4299559547
   23      O       4.1743446566    -1.0088293465     1.7636513197
   24      H       1.7374480525    -0.7664573307    -0.4511277613
   25      H       3.7932711142    -0.8382035080    -1.5706033004
   26      H       2.1418760794    -0.7590890153     2.3724061463
   27      H       2.5197798810    -3.2482942370     2.0370242309
   28      H       1.6089318100    -2.8151606378     0.5563204120
   29      H       4.4473577271    -3.7006032131     0.7097495541
   30      H       3.6244051751    -3.1262766142    -0.7723344374
   31      H       5.6882001951    -1.5518042419     0.3585041508
   32      O      -2.9015011182     1.6339277659    -2.2820572184
   33      C      -3.5976643250    -2.6905322788    -2.2195538806
   34      C      -4.7502411449    -0.5339393001     1.3561271159
   35      C      -4.9190283437     0.5658006214     2.4802449420
   36      C      -4.9829177281     1.8825580860     1.6186498440
   37      C      -4.7398880024     1.3014367987     0.1722342971
   38      O      -5.4878144413     0.0228716589     0.1990917854
   39      H      -2.5117681935    -0.5674407205     1.6711984122
   40      H      -2.5814177768     1.5738221887     0.6390655322
   41      H      -4.5853038841    -3.0331847090    -2.5830529813
   42      H      -5.1396395710    -1.5370217337     1.6180111767
   43      H      -5.8510886153     0.4029201028     3.0444242547
   44      H      -4.0740168677     0.5636109047     3.1873630737
   45      H      -5.9760610976     2.3556609371     1.6795970199
   46      H      -4.2189162347     2.6213505400     1.9090847868
   47      H      -5.0772322299     1.9374588271    -0.6693690713
   48      H      -3.0619888656    -3.5177169275    -1.7112043539
   49      H      -2.9942117801    -2.3295909861    -3.0768247472
   50      H       5.9541552407     3.0193194728     1.5476868120
   51      H       5.6162297666     3.3464405216    -0.1986416386
   52      H       6.9434466699     2.2176516281     0.2590162806
   53      H       1.0612446053     1.9423849741    -1.7291538168
   54      H      -0.6057220114     2.3158113126    -1.1904977209
   55      H      -0.3681536785     0.5402622721    -3.0395251701
   56      H       0.3586593196    -0.5868484640    -1.8400020279
 ----------------------------------------------------------------

    9   -1510.2393416870      4.12E-09 Convergence criterion met
 Total energy in the final basis set = -1510.23934169
 Final energy is   -1510.23934168696
 **  OPTIMIZATION CONVERGED  **

                    Orbital Energies (a.u.)
 --------------------------------------------------------------

 Alpha MOs
 -- Occupied --
-18.937 -18.924 -18.919 -18.912 -18.902 -18.896 -18.896 -18.888
-18.870 -18.866 -10.112 -10.111 -10.098 -10.095 -10.081 -10.080
-10.067 -10.066 -10.061 -10.060 -10.059 -10.052 -10.044 -10.042
-10.038 -10.036 -10.025 -10.023 -10.020 -10.019  -1.015  -1.013
 -1.007  -1.000  -0.977  -0.969  -0.947  -0.937  -0.933  -0.928
 -0.767  -0.763  -0.726  -0.725  -0.714  -0.708  -0.702  -0.660
 -0.652  -0.621  -0.603  -0.589  -0.550  -0.545  -0.541  -0.537
 -0.521  -0.509  -0.487  -0.476  -0.472  -0.460  -0.451  -0.438
 -0.436  -0.433  -0.425  -0.417  -0.414  -0.410  -0.409  -0.404
 -0.398  -0.391  -0.375  -0.370  -0.364  -0.358  -0.358  -0.348
 -0.347  -0.342  -0.338  -0.336  -0.333  -0.330  -0.322  -0.318
 -0.314  -0.312  -0.305  -0.302  -0.298  -0.293  -0.290  -0.280
 -0.277  -0.255  -0.245  -0.242  -0.240  -0.236  -0.233  -0.183
 -0.179  -0.166  -0.163  -0.158  -0.152  -0.150  -0.150  -0.148
 -0.142

          Ground-State Mulliken Net Atomic Charges

     Atom                 Charge (a.u.)
  ----------------------------------------
      1 O                    -0.222944
      2 C                     0.219207
      3 C                    -0.077779
      4 C                    -0.078640
      5 C                     0.224457
      6 O                    -0.188278
      7 C                    -0.048620
      8 C                    -0.054197
      9 O                    -0.201102
     10 C                     0.216782
     11 C                    -0.084504
     12 C                    -0.080424
     13 C                     0.202550
     14 O                    -0.218655
     15 O                    -0.169104
     16 O                    -0.155277
     17 O                    -0.166124
     18 C                    -0.125589
     19 C                     0.028330
     20 C                    -0.142699
     21 C                    -0.144885
     22 C                     0.026961
     23 O                    -0.182450
     24 H                     0.079594
     25 H                     0.083322
     26 H                     0.086352
     27 H                     0.080414
     28 H                     0.078596
     29 H                     0.079711
     30 H                     0.074412
     31 H                     0.084243
     32 O                    -0.196015
     33 C                    -0.133560
     34 C                     0.025668
     35 C                    -0.144525
     36 C                    -0.142876
     37 C                     0.024774
     38 O                    -0.185512
     39 H                     0.086380
     40 H                     0.087243
     41 H                     0.086148
     42 H                     0.082708
     43 H                     0.078075
     44 H                     0.074257
     45 H                     0.078211
     46 H                     0.073770
     47 H                     0.089040
     48 H                     0.098101
     49 H                     0.083723
     50 H                     0.094333
     51 H                     0.088104
     52 H                     0.087990
     53 H                     0.083625
     54 H                     0.088201
     55 H                     0.083225
     56 H                     0.085252
  ----------------------------------------
  Sum of atomic charges =    -0.000000

                    Cartesian Multipole Moments
 -----------------------------------------------------------------
    Charge (ESU x 10^10)
                -0.0000
    Dipole Moment (Debye)
         X       0.5201      Y      -0.5574      Z       0.0496
       Tot       0.7640
    Quadrupole Moments (Debye-Ang)
        XX    -168.4265     XY      -3.8974     YY    -158.1261
        XZ      -7.3868     YZ       3.8754     ZZ    -161.2432

 Total job time:  71.81s(wall), 3419.10s(cpu)
        *  Thank you very much for using Q-Chem.  Have a nice day.  *
