 Q-Chem 5.0, Q-Chem, Inc., Pleasanton, CA (2017)
 Q-Chem 5.0.1 for Intel X86 EM64T Linux

User input:
--------------------------------------------------------------
$molecule
0  1
O -4.7254227617 0.3054908232 1.4781805332
C -3.7346230339 0.1249331322 0.7848400283
C -2.5259933572 1.0332161485 0.7316511252
C -1.2245180154 0.4386968132 0.1690166465
C -1.3224438406 -0.9416219205 -0.4419061319
O -0.0962511549 -1.336085077 -0.896058852
C 0.8565116551 -1.533185195 0.1540163025
C 0.2955022413 -1.0195858359 1.4759860324
O 1.3385572789 -0.3947415473 2.2404984216
C 2.5893867201 -0.8685065366 2.0166336582
C 3.2653506642 -0.210699415 0.837207202
C 2.6234459726 -0.5086034186 -0.5256896434
C 1.2303678029 -1.1038186347 -0.4840141416
O 0.1944113816 -0.5007227921 -0.7240961297
O -3.7004638168 -1.1757395612 0.4041751143
O 1.5677489027 -2.27417993 -1.7094833722
O 3.1626748476 -1.5999373458 2.8084840689
C 0.8095782418 -3.2276765799 -2.3915402732
C 3.2487769252 1.3233506987 0.8722844552
C 4.3988357498 1.8710982564 0.0300455037
C 3.9101389317 1.5340523896 -1.3633555817
C 2.5283787909 0.9507311205 -1.0395756185
O 2.1277975864 1.6628099575 0.104405531
H 4.3231418917 -0.5605775467 0.8601801787
H 3.3339699632 -1.0623802929 -1.184309997
H 3.2849488286 1.7375556612 1.9034962266
H 4.397247607 2.9782754738 0.1501195382
H 5.4044968028 1.4752851212 0.2886310655
H 3.8036535014 2.4833615452 -1.9342233863
H 4.5433279054 0.8193666706 -1.9318296015
H 1.8677973728 1.0406292622 -1.9293209757
O -2.1943262063 -1.1729964686 -1.2773233292
C -4.7203537188 -2.1071665541 0.5040876695
C -2.9014164857 2.214361329 -0.159455162
C -1.9623105881 3.389853759 0.0888938831
C -0.7604177483 2.9140297541 -0.6715495308
C -1.2166827534 1.5031327701 -1.0727869647
O -2.5575708169 1.7277665123 -1.4158468435
H -2.3811549745 1.3504645593 1.7901848064
H -0.4365457606 0.9457798525 0.7971711223
H -5.6032685229 -1.768690114 -0.0790836966
H -3.9587269595 2.5386315833 -0.0308375863
H -2.3410094014 4.3227783644 -0.3851220583
H -1.8006725456 3.5540991533 1.1766256855
H -0.6961752413 3.5045212748 -1.6148527951
H 0.196358632 3.0238508963 -0.1325423109
H -0.6020764245 1.2121372264 -1.9536721111
H -5.0040901877 -2.2586786059 1.5673497245
H -4.3692692834 -3.0746052999 0.0901844498
H 1.2847739441 -4.2206932406 -2.2561531697
H 0.8028171327 -2.9827525308 -3.472960964
H -0.2357353473 -3.3130132162 -2.0320903418
H -0.7201079059 -0.9082382533 1.9283158873
H 0.1565989985 -1.9014087071 2.1632154785
H 1.0913497119 -2.7932071521 0.5998205822
H 0.3960234132 -2.7353607392 0.4294863574
$end

$rem
JOBTYPE                   OPT
METHOD                    B3LYP
DFT_D                     d3_op
BASIS                     STO-3G
GEOM_OPT_MAX_CYCLES       100
GEOM_OPT_TOL_GRADIENT     300
GEOM_OPT_TOL_DISPLACEMENT 1200
GEOM_OPT_TOL_ENERGY       100
SYMMETRY                  False
THRESH                    12
SCF_CONVERGENCE           8
MAX_SUB_FILE_NUM          128
MEM_STATIC                400
MEM_TOTAL                 4000
$end
--------------------------------------------------------------

   19   -1507.1634217156      7.37E-09 Convergence criterion met
 Total energy in the final basis set = -1507.16342172
   17   -1507.8095622221      3.59E-09 Convergence criterion met
 Total energy in the final basis set = -1507.80956222
   17   -1508.2963871647      2.71E-09 Convergence criterion met
 Total energy in the final basis set = -1508.29638716
   16   -1508.6644451785      8.60E-09 Convergence criterion met
 Total energy in the final basis set = -1508.66444518
   16   -1508.9437430638      8.05E-09 Convergence criterion met
 Total energy in the final basis set = -1508.94374306
   15   -1509.1519980306      7.18E-09 Convergence criterion met
 Total energy in the final basis set = -1509.15199803
   15   -1509.3154174726      4.83E-09 Convergence criterion met
 Total energy in the final basis set = -1509.31541747
   14   -1509.4427992190      9.31E-09 Convergence criterion met
   11   -1510.2558104689      9.19E-09 Convergence criterion met
 Total energy in the final basis set = -1510.25581047
   12   -1510.2558175360      3.80E-09 Convergence criterion met
 Total energy in the final basis set = -1510.25581754
   11   -1510.2558249735      4.52E-09 Convergence criterion met
 Total energy in the final basis set = -1510.25582497
   11   -1510.2558229301      6.52E-09 Convergence criterion met
 Total energy in the final basis set = -1510.25582293
   11   -1510.2558275189      6.50E-09 Convergence criterion met
 Total energy in the final basis set = -1510.25582752
   11   -1510.2558292532      3.81E-09 Convergence criterion met
 Total energy in the final basis set = -1510.25582925

             Standard Nuclear Orientation (Angstroms)
    I     Atom           X                Y                Z
 ----------------------------------------------------------------
    1      O      -4.6752103787     0.4443668625     0.8033257484
    2      C      -3.4600025047     0.1749001019     0.8802606572
    3      C      -2.2378589559     1.1322730897     0.6620495840
    4      C      -1.3720660981     0.7651953470    -0.6119135979
    5      C      -1.8023335514    -0.5777548217    -1.2853318814
    6      O      -0.7125050662    -1.5107780967    -1.6065376679
    7      C       0.8432134399    -2.5392854523     0.4027758000
    8      C      -0.0756805544    -1.7650284072     1.4223250827
    9      O       0.4249198499    -0.3903077599     1.6285747167
   10      C       1.7704922464    -0.5325185553     2.1525959372
   11      C       2.7949978130     0.0152320752     1.1185968247
   12      C       2.7091368873    -0.6483331602    -0.3278310892
   13      C       1.5266250034    -1.6615642927    -0.7373094263
   14      O       0.5533274767    -0.7827933288    -1.4640521897
   15      O      -2.9546980826    -1.1279334610     1.2322066135
   16      O       2.2586259764    -2.5146914168    -1.7011017035
   17      O       2.0397572449    -1.0295186369     3.2661048053
   18      C       1.3521542527    -3.4421324527    -2.4089316189
   19      C       2.5459908513     1.5527322713     0.7753909611
   20      C       3.9023871341     2.1493411828     0.2420184178
   21      C       3.9997153423     1.4417578690    -1.1601604098
   22      C       2.6265086443     0.6635819989    -1.2218342342
   23      O       1.6984946408     1.5153561147    -0.4352493258
   24      H       3.8086387542    -0.1282359931     1.5322373595
   25      H       3.6376986553    -1.2115258666    -0.5324493746
   26      H       2.0490053086     2.1331593690     1.5767942586
   27      H       3.8240027364     3.2434264952     0.1367209078
   28      H       4.7524865240     1.9156721202     0.9024197296
   29      H       4.0640556927     2.1737293911    -1.9806742773
   30      H       4.8593708015     0.7563858890    -1.2308808186
   31      H       2.2298583397     0.4975653820    -2.2409655836
   32      O      -2.9567556026    -0.9613143321    -1.5695346308
   33      C      -4.0584394563    -2.1089460038     1.3042880877
   34      C      -2.7290301534     2.5857518400     0.2751132885
   35      C      -1.4926051532     3.5701368933     0.3333538628
   36      C      -0.7305551230     3.1954390773    -0.9918981451
   37      C      -1.6453774081     2.0336483541    -1.5373126305
   38      O      -3.0152449552     2.4567852724    -1.1733351686
   39      H      -1.6021859831     1.1110261280     1.5667816901
   40      H      -0.2960148955     0.6953013890    -0.3573141156
   41      H      -4.5209429563    -2.2590674455     0.3069091912
   42      H      -3.6359129867     2.9150074841     0.8182146862
   43      H      -1.8335724392     4.6176678801     0.3254194726
   44      H      -0.8799665785     3.4049471342     1.2343796794
   45      H      -0.7131548464     4.0387466646    -1.7002188130
   46      H       0.2990438467     2.8307452101    -0.8146380203
   47      H      -1.5739151647     1.8398563907    -2.6252064429
   48      H      -4.8439381296    -1.7875296906     2.0177304758
   49      H      -3.6060562367    -3.0567222635     1.6497205528
   50      H       1.8783962172    -3.7318173212    -3.3379974159
   51      H       0.3832356676    -2.9695490483    -2.6690834877
   52      H       1.1527688094    -4.3637526120    -1.8215279663
   53      H      -1.1279974418    -1.6508134553     1.0733837305
   54      H      -0.0929182730    -2.3313268841     2.3801495171
   55      H       1.6635184152    -3.0413453362     0.9448446095
   56      H       0.2388549490    -3.3197615852    -0.0858895034
 ----------------------------------------------------------------

   11   -1510.2558300187      4.98E-09 Convergence criterion met
 Total energy in the final basis set = -1510.25583002
 Final energy is   -1510.25583001874
 **  OPTIMIZATION CONVERGED  **

                    Orbital Energies (a.u.)
 --------------------------------------------------------------

 Alpha MOs
 -- Occupied --
-18.959 -18.946 -18.932 -18.910 -18.907 -18.905 -18.898 -18.885
-18.876 -18.876 -10.115 -10.112 -10.101 -10.097 -10.075 -10.070
-10.062 -10.060 -10.049 -10.049 -10.048 -10.047 -10.045 -10.036
-10.031 -10.029 -10.029 -10.019 -10.009  -9.997  -1.061  -1.014
 -1.009  -0.988  -0.979  -0.960  -0.955  -0.944  -0.934  -0.841
 -0.772  -0.752  -0.734  -0.728  -0.712  -0.710  -0.694  -0.659
 -0.658  -0.617  -0.603  -0.592  -0.554  -0.549  -0.539  -0.529
 -0.520  -0.504  -0.501  -0.476  -0.467  -0.461  -0.450  -0.446
 -0.437  -0.433  -0.420  -0.417  -0.412  -0.411  -0.407  -0.399
 -0.395  -0.392  -0.376  -0.368  -0.362  -0.357  -0.356  -0.350
 -0.346  -0.344  -0.340  -0.338  -0.330  -0.324  -0.322  -0.317
 -0.312  -0.311  -0.305  -0.299  -0.295  -0.292  -0.281  -0.279
 -0.265  -0.258  -0.253  -0.248  -0.246  -0.241  -0.220  -0.208
 -0.176  -0.167  -0.166  -0.166  -0.160  -0.153  -0.151  -0.137
 -0.134

          Ground-State Mulliken Net Atomic Charges

     Atom                 Charge (a.u.)
  ----------------------------------------
      1 O                    -0.203231
      2 C                     0.216769
      3 C                    -0.080694
      4 C                    -0.094692
      5 C                     0.203795
      6 O                    -0.101497
      7 C                    -0.160011
      8 C                    -0.060669
      9 O                    -0.198313
     10 C                     0.215355
     11 C                    -0.086882
     12 C                    -0.067272
     13 C                     0.173944
     14 O                    -0.107932
     15 O                    -0.178670
     16 O                    -0.195254
     17 O                    -0.187346
     18 C                    -0.142038
     19 C                     0.028000
     20 C                    -0.142418
     21 C                    -0.144897
     22 C                     0.025440
     23 O                    -0.186957
     24 H                     0.084926
     25 H                     0.090700
     26 H                     0.085876
     27 H                     0.080200
     28 H                     0.077088
     29 H                     0.080630
     30 H                     0.077503
     31 H                     0.096295
     32 O                    -0.197772
     33 C                    -0.128309
     34 C                     0.024849
     35 C                    -0.144575
     36 C                    -0.154768
     37 C                     0.025514
     38 O                    -0.189490
     39 H                     0.091993
     40 H                     0.118078
     41 H                     0.096091
     42 H                     0.086130
     43 H                     0.074196
     44 H                     0.069667
     45 H                     0.069665
     46 H                     0.094775
     47 H                     0.079111
     48 H                     0.091256
     49 H                     0.087473
     50 H                     0.084285
     51 H                     0.092363
     52 H                     0.070515
     53 H                     0.110069
     54 H                     0.078693
     55 H                     0.082247
     56 H                     0.090197
  ----------------------------------------
  Sum of atomic charges =    -0.000000

                    Cartesian Multipole Moments
 -----------------------------------------------------------------
    Charge (ESU x 10^10)
                -0.0000
    Dipole Moment (Debye)
         X       4.2759      Y      -0.8042      Z       0.7343
       Tot       4.4124
    Quadrupole Moments (Debye-Ang)
        XX    -168.2813     XY       9.6759     YY    -152.1001
        XZ      -8.8924     YZ       2.0052     ZZ    -165.2575

 Total job time:  270.09s(wall), 12893.22s(cpu)
        *  Thank you very much for using Q-Chem.  Have a nice day.  *
