 Q-Chem 5.0, Q-Chem, Inc., Pleasanton, CA (2017)
 Q-Chem 5.0.1 for Intel X86 EM64T Linux

User input:
--------------------------------------------------------------
$molecule
0  1
O -3.94934 -3.66094 2.70899
C -3.26408 -4.56952 2.26188
C -3.36658 -6.02376 2.66595
C -3.00703 -7.07525 1.60344
C -2.41498 -6.55451 0.31255
O -1.60145 -7.50211 -0.24031
C -1.19197 -7.18377 -1.57457
C -1.23713 -8.43176 -2.45013
O 0.05467 -8.66873 -3.03149
C 0.86015 -7.58175 -3.12536
C 0.70624 -6.84679 -4.43563
C 1.63238 -5.63436 -4.61043
C 2.79507 -5.54601 -3.64243
O 3.73342 -4.76739 -3.73088
O -2.10851 -4.2052 1.63945
O 3.32764 -6.76352 -3.30764
O 1.42017 -7.1923 -2.10788
C 4.43763 -7.00857 -2.51111
C 1.11227 -7.69438 -5.66024
C 0.41643 -7.1524 -6.90755
C 1.15927 -5.84561 -7.09762
C 2.21994 -5.97281 -5.9974
O 2.45319 -7.35641 -5.90388
H -0.36918 -6.57523 -4.5333
H 1.10716 -4.65461 -4.60135
H 0.89626 -8.7785 -5.54174
H 0.67985 -7.83618 -7.74635
H -0.68948 -7.06458 -6.84272
H 1.62878 -5.85323 -8.10627
H 0.54771 -4.92667 -6.96619
H 3.10733 -5.34887 -6.24414
O -2.98103 -5.67817 -0.33378
C -1.77951 -2.91366 1.28252
C -2.33372 -6.357 3.76206
C -2.80723 -7.56057 4.57131
C -2.6233 -8.66501 3.55597
C -1.95855 -7.88415 2.41444
O -1.23002 -6.87574 3.06542
H -4.38501 -6.16713 3.09297
H -3.88307 -7.69984 1.32081
H -1.72863 -2.26591 2.18345
H -2.12244 -5.50168 4.4416
H -2.07057 -7.70702 5.39389
H -3.82718 -7.47794 5.00455
H -1.92387 -9.41796 3.98307
H -3.55829 -9.16253 3.21862
H -1.36006 -8.59575 1.80762
H -2.53313 -2.51217 0.57157
H -0.78731 -2.91579 0.78672
H 4.13998 -7.66636 -1.6687
H 4.86848 -6.07904 -2.08014
H 5.21322 -7.52708 -3.11114
H -1.53215 -9.31504 -1.84379
H -1.97088 -8.36614 -3.28824
H -0.55246 -6.28028 -1.63027
H -2.02663 -6.65989 -2.0928
$end

$opt
CONSTRAINT
tors           1           2           3           4    +149.889
tors           3           4           5           6    +151.817
tors           4           5           6           7    +169.526
tors           5           6           7           8    -138.550
tors           6           7           8           9    -122.980
tors           7           8           9          10     -23.192
tors           8           9          10          11     -90.807
tors           9          10          11          12    -178.020
tors          11          12          13          14    +169.590
ENDCONSTRAINT
$end

$rem
JOBTYPE                   OPT
METHOD                    B3LYP
DFT_D                     d3_op
BASIS                     STO-3G
GEOM_OPT_MAX_CYCLES       100
GEOM_OPT_TOL_GRADIENT     300
GEOM_OPT_TOL_DISPLACEMENT 1200
GEOM_OPT_TOL_ENERGY       100
SYMMETRY                  False
THRESH                    12
SCF_CONVERGENCE           8
MAX_SUB_FILE_NUM          128
MEM_STATIC                400
MEM_TOTAL                 4000
$end
--------------------------------------------------------------

   15   -1510.0316320128      9.99E-09 Convergence criterion met
 Total energy in the final basis set = -1510.03163201
   15   -1510.1129307904      2.26E-09 Convergence criterion met
 Total energy in the final basis set = -1510.11293079
   15   -1510.1602941818      2.48E-09 Convergence criterion met
 Total energy in the final basis set = -1510.16029418
   15   -1510.1890447167      1.74E-09 Convergence criterion met
 Total energy in the final basis set = -1510.18904472
   14   -1510.2056884034      6.63E-09 Convergence criterion met
 Total energy in the final basis set = -1510.20568840
   14   -1510.2164796502      6.09E-09 Convergence criterion met
 Total energy in the final basis set = -1510.21647965
   13   -1510.2236945973      8.99E-09 Convergence criterion met
 Total energy in the final basis set = -1510.22369460
   12   -1510.2287274019      9.86E-09 Convergence criterion met
   11   -1510.2383545393      4.82E-09 Convergence criterion met
 Total energy in the final basis set = -1510.23835454
   11   -1510.2383867189      3.34E-09 Convergence criterion met
 Total energy in the final basis set = -1510.23838672
   11   -1510.2384071148      3.77E-09 Convergence criterion met
 Total energy in the final basis set = -1510.23840711
   10   -1510.2384187267      8.24E-09 Convergence criterion met
 Total energy in the final basis set = -1510.23841873
    9   -1510.2384214115      8.65E-09 Convergence criterion met
 Total energy in the final basis set = -1510.23842141
   10   -1510.2384230439      6.12E-09 Convergence criterion met
 Total energy in the final basis set = -1510.23842304

             Standard Nuclear Orientation (Angstroms)
    I     Atom           X                Y                Z
 ----------------------------------------------------------------
    1      O       5.2714141425    -2.7951993205    -1.0846306937
    2      C       4.7217161903    -1.7732573995    -0.6193335541
    3      C       5.1419645707    -0.2832004197    -0.8720523310
    4      C       3.9522177683     0.7586119987    -0.8246706144
    5      C       2.5241298844     0.1233225226    -0.9663343460
    6      O       1.5866950742     0.9629721274    -0.2799883564
    7      C       0.1945112858     0.5539276888    -0.5879076846
    8      C      -0.6602031155     1.8668462464    -0.8002279854
    9      O      -1.8600133260     2.0774313882     0.0461258010
   10      C      -2.3981385427     0.8320728150     0.5831525434
   11      C      -3.4770571517     0.2397887743    -0.3971707270
   12      C      -4.2569403065    -1.0848677553    -0.0391043596
   13      C      -4.6761067704    -1.3487630707     1.4608010610
   14      O      -5.4527980638    -2.2666218014     1.8142546767
   15      O       3.7028114291    -1.7983170766     0.3872109312
   16      O      -4.2560495230    -0.2930720288     2.3213059653
   17      O      -1.9555464010     0.3278821833     1.6345387324
   18      C      -4.7686515131    -0.5068214799     3.6951592575
   19      C      -4.6634711878     1.2078286031    -0.8526286651
   20      C      -4.9014761718     0.9243626641    -2.3849649344
   21      C      -5.4581405914    -0.5472711674    -2.3122872525
   22      C      -5.6420567530    -0.7414600390    -0.7534228063
   23      O      -5.8790935876     0.6312579315    -0.2354998614
   24      H      -2.8771319091     0.0165012040    -1.3019494071
   25      H      -3.7646501995    -1.9854298104    -0.4480420874
   26      H      -4.5354245714     2.2701527632    -0.5683464076
   27      H      -5.6560471527     1.6185793240    -2.7890228189
   28      H      -3.9805924939     1.0092916657    -2.9837879446
   29      H      -6.4242684785    -0.6458574770    -2.8318056130
   30      H      -4.7566007148    -1.2848543902    -2.7347654547
   31      H      -6.4676573509    -1.4175212409    -0.4569595737
   32      O       2.1966044798    -0.8492766221    -1.6819451042
   33      C       3.2829111647    -3.1913775594     0.6546287310
   34      C       5.9876411768     0.2155070246     0.3830215605
   35      C       6.6178540782     1.6306067312     0.0631655105
   36      C       5.3747935374     2.5755916658     0.2634256522
   37      C       4.2411483685     1.5145300038     0.5433066686
   38      O       4.9328798648     0.5075208503     1.3798608567
   39      H       5.7140166252    -0.2328233062    -1.8144982540
   40      H       4.0496687377     1.4691868677    -1.6678212918
   41      H       4.1440229391    -3.8325809001     0.9325408126
   42      H       6.6994806962    -0.5351473863     0.7785804177
   43      H       7.4259266278     1.8640152065     0.7742488256
   44      H       7.0250914674     1.6753656252    -0.9597835762
   45      H       5.5079976077     3.2325090213     1.1379236330
   46      H       5.1624589076     3.1993121393    -0.6196962208
   47      H       3.3340502049     1.8942635914     1.0513629174
   48      H       2.7804377608    -3.6370662978    -0.2285668616
   49      H       2.5694314944    -3.1390547229     1.4974164371
   50      H      -3.9109685815    -0.6545837576     4.3804809491
   51      H      -5.4277247172    -1.3985370134     3.7066660590
   52      H      -5.3338039032     0.3947236705     4.0009533214
   53      H       0.0037220976     2.7387029499    -0.6109376526
   54      H      -0.9757428772     1.9129447108    -1.8687778579
   55      H      -0.2000636341    -0.0295333190     0.2719073114
   56      H       0.1949417315    -0.0975770292    -1.4873312324
 ----------------------------------------------------------------

    9   -1510.2384238350      8.05E-09 Convergence criterion met
 Total energy in the final basis set = -1510.23842383
 Final energy is   -1510.23842383497
 **  OPTIMIZATION CONVERGED  **

                    Orbital Energies (a.u.)
 --------------------------------------------------------------

 Alpha MOs
 -- Occupied --
-18.937 -18.934 -18.930 -18.912 -18.900 -18.891 -18.888 -18.876
-18.869 -18.868 -10.116 -10.105 -10.098 -10.095 -10.077 -10.072
-10.065 -10.063 -10.061 -10.059 -10.059 -10.053 -10.043 -10.041
-10.040 -10.037 -10.025 -10.024 -10.022 -10.020  -1.017  -1.013
 -1.006  -1.005  -0.975  -0.971  -0.943  -0.937  -0.931  -0.930
 -0.767  -0.764  -0.727  -0.725  -0.717  -0.707  -0.696  -0.657
 -0.657  -0.619  -0.603  -0.586  -0.548  -0.545  -0.541  -0.538
 -0.516  -0.513  -0.485  -0.480  -0.470  -0.459  -0.445  -0.443
 -0.436  -0.435  -0.424  -0.418  -0.409  -0.408  -0.405  -0.403
 -0.396  -0.385  -0.376  -0.369  -0.365  -0.361  -0.355  -0.352
 -0.349  -0.340  -0.339  -0.334  -0.331  -0.322  -0.319  -0.315
 -0.313  -0.311  -0.306  -0.301  -0.300  -0.298  -0.291  -0.276
 -0.273  -0.256  -0.246  -0.244  -0.242  -0.237  -0.234  -0.183
 -0.174  -0.169  -0.163  -0.157  -0.156  -0.152  -0.148  -0.147
 -0.143

          Ground-State Mulliken Net Atomic Charges

     Atom                 Charge (a.u.)
  ----------------------------------------
      1 O                    -0.215173
      2 C                     0.212185
      3 C                    -0.078723
      4 C                    -0.077743
      5 C                     0.217443
      6 O                    -0.172646
      7 C                    -0.062798
      8 C                    -0.051184
      9 O                    -0.201281
     10 C                     0.228503
     11 C                    -0.082576
     12 C                    -0.076799
     13 C                     0.212869
     14 O                    -0.221383
     15 O                    -0.166864
     16 O                    -0.161479
     17 O                    -0.168452
     18 C                    -0.134799
     19 C                     0.025919
     20 C                    -0.140877
     21 C                    -0.146277
     22 C                     0.023886
     23 O                    -0.190016
     24 H                     0.078372
     25 H                     0.085078
     26 H                     0.090193
     27 H                     0.079034
     28 H                     0.072204
     29 H                     0.079903
     30 H                     0.073764
     31 H                     0.088847
     32 O                    -0.219641
     33 C                    -0.127240
     34 C                     0.025462
     35 C                    -0.144756
     36 C                    -0.142898
     37 C                     0.024580
     38 O                    -0.186509
     39 H                     0.085492
     40 H                     0.083126
     41 H                     0.089978
     42 H                     0.083118
     43 H                     0.078475
     44 H                     0.073721
     45 H                     0.078416
     46 H                     0.072514
     47 H                     0.093369
     48 H                     0.089156
     49 H                     0.090861
     50 H                     0.087695
     51 H                     0.102371
     52 H                     0.087610
     53 H                     0.094275
     54 H                     0.073947
     55 H                     0.091930
     56 H                     0.095819
  ----------------------------------------
  Sum of atomic charges =    -0.000000

                    Cartesian Multipole Moments
 -----------------------------------------------------------------
    Charge (ESU x 10^10)
                -0.0000
    Dipole Moment (Debye)
         X       0.4657      Y       1.6321      Z      -2.2578
       Tot       2.8246
    Quadrupole Moments (Debye-Ang)
        XX    -164.0379     XY       9.5647     YY    -162.8480
        XZ       6.2775     YZ      -5.7732     ZZ    -157.5829

 Total job time:  66.45s(wall), 3159.34s(cpu)
        *  Thank you very much for using Q-Chem.  Have a nice day.  *
