 Q-Chem 5.0, Q-Chem, Inc., Pleasanton, CA (2017)
 Q-Chem 5.0.1 for Intel X86 EM64T Linux

User input:
--------------------------------------------------------------
$molecule
0  1
O 5.2714141425 -2.7951993205 -1.0846306937
C 4.7217161903 -1.7732573995 -0.6193335541
C 5.1419645707 -0.2832004197 -0.872052331
C 3.9522177683 0.7586119987 -0.8246706144
C 2.5241298844 0.1233225226 -0.966334346
O 1.5866950742 0.9629721274 -0.2799883564
C 0.1945112858 0.5539276888 -0.5879076846
C -0.6602031155 1.8668462464 -0.8002279854
O -1.860013326 2.0774313882 0.046125801
C -2.3981385427 0.832072815 0.5831525434
C -3.4770571517 0.2397887743 -0.397170727
C -4.2569403065 -1.0848677553 -0.0391043596
C -4.6761067704 -1.3487630707 1.460801061
O -5.4527980638 -2.2666218014 1.8142546767
O 3.7028114291 -1.7983170766 0.3872109312
O -4.256049523 -0.2930720288 2.3213059653
O -1.955546401 0.3278821833 1.6345387324
C -4.7686515131 -0.5068214799 3.6951592575
C -4.6634711878 1.2078286031 -0.8526286651
C -4.9014761718 0.9243626641 -2.3849649344
C -5.4581405914 -0.5472711674 -2.3122872525
C -5.642056753 -0.741460039 -0.7534228063
O -5.8790935876 0.6312579315 -0.2354998614
H -2.8771319091 0.016501204 -1.3019494071
H -3.7646501995 -1.9854298104 -0.4480420874
H -4.5354245714 2.2701527632 -0.5683464076
H -5.6560471527 1.618579324 -2.7890228189
H -3.9805924939 1.0092916657 -2.9837879446
H -6.4242684785 -0.645857477 -2.831805613
H -4.7566007148 -1.2848543902 -2.7347654547
H -6.4676573509 -1.4175212409 -0.4569595737
O 2.1966044798 -0.8492766221 -1.6819451042
C 3.2829111647 -3.1913775594 0.654628731
C 5.9876411768 0.2155070246 0.3830215605
C 6.6178540782 1.6306067312 0.0631655105
C 5.3747935374 2.5755916658 0.2634256522
C 4.2411483685 1.5145300038 0.5433066686
O 4.9328798648 0.5075208503 1.3798608567
H 5.7140166252 -0.2328233062 -1.814498254
H 4.0496687377 1.4691868677 -1.6678212918
H 4.1440229391 -3.8325809001 0.9325408126
H 6.6994806962 -0.5351473863 0.7785804177
H 7.4259266278 1.8640152065 0.7742488256
H 7.0250914674 1.6753656252 -0.9597835762
H 5.5079976077 3.2325090213 1.137923633
H 5.1624589076 3.1993121393 -0.6196962208
H 3.3340502049 1.8942635914 1.0513629174
H 2.7804377608 -3.6370662978 -0.2285668616
H 2.5694314944 -3.1390547229 1.4974164371
H -3.9109685815 -0.6545837576 4.3804809491
H -5.4277247172 -1.3985370134 3.706666059
H -5.3338039032 0.3947236705 4.0009533214
H 0.0037220976 2.7387029499 -0.6109376526
H -0.9757428772 1.9129447108 -1.8687778579
H -0.2000636341 -0.029533319 0.2719073114
H 0.1949417315 -0.0975770292 -1.4873312324
$end

$rem
JOBTYPE                   OPT
METHOD                    B3LYP
DFT_D                     d3_op
BASIS                     STO-3G
GEOM_OPT_MAX_CYCLES       100
GEOM_OPT_TOL_GRADIENT     300
GEOM_OPT_TOL_DISPLACEMENT 1200
GEOM_OPT_TOL_ENERGY       100
SYMMETRY                  False
THRESH                    12
SCF_CONVERGENCE           8
MAX_SUB_FILE_NUM          128
MEM_STATIC                400
MEM_TOTAL                 4000
$end
--------------------------------------------------------------

   16   -1510.2382728481      5.45E-09 Convergence criterion met
 Total energy in the final basis set = -1510.23827285
   13   -1510.2418783040      4.56E-09 Convergence criterion met
 Total energy in the final basis set = -1510.24187830
   13   -1510.2451682154      4.74E-09 Convergence criterion met
 Total energy in the final basis set = -1510.24516822
   13   -1510.2485222020      8.25E-09 Convergence criterion met
 Total energy in the final basis set = -1510.24852220
   14   -1510.2515905088      4.88E-09 Convergence criterion met
 Total energy in the final basis set = -1510.25159051
   14   -1510.2542304312      4.61E-09 Convergence criterion met
 Total energy in the final basis set = -1510.25423043
   13   -1510.2566486589      8.90E-09 Convergence criterion met
 Total energy in the final basis set = -1510.25664866
   13   -1510.2593054225      8.66E-09 Convergence criterion met
   12   -1510.2919678156      3.65E-09 Convergence criterion met
 Total energy in the final basis set = -1510.29196782
   13   -1510.2919518289      2.15E-09 Convergence criterion met
 Total energy in the final basis set = -1510.29195183
   13   -1510.2919204770      2.43E-09 Convergence criterion met
 Total energy in the final basis set = -1510.29192048
   12   -1510.2919216105      3.45E-09 Convergence criterion met
 Total energy in the final basis set = -1510.29192161
   11   -1510.2919362894      9.86E-09 Convergence criterion met
 Total energy in the final basis set = -1510.29193629
   11   -1510.2919308912      6.31E-09 Convergence criterion met
 Total energy in the final basis set = -1510.29193089

             Standard Nuclear Orientation (Angstroms)
    I     Atom           X                Y                Z
 ----------------------------------------------------------------
    1      O      -3.1112049266    -1.9044483506     1.9083776961
    2      C      -3.3313792912    -1.5891732969     0.7185000353
    3      C      -4.3133823474    -0.4558898890     0.2302819965
    4      C      -3.6267863234     0.9566513203     0.0137981206
    5      C      -2.0800694859     0.9234392538     0.2334658945
    6      O      -1.5710153197     2.2525935692     0.1475284774
    7      C      -0.0922718723     2.2624196016     0.2904423522
    8      C       0.3696957802     2.0597183888     1.7827830590
    9      O       1.8458592685     1.9392153074     1.7928554960
   10      C       2.2199248644     0.5545670427     1.8449095251
   11      C       3.7666810847     0.4065661923     1.6213049631
   12      C       4.1077358791    -0.7259940296     0.5595409561
   13      C       2.8539711771    -1.4505007806    -0.0421910146
   14      O       2.6019056190    -2.6741652888     0.0225691697
   15      O      -2.8133986013    -2.2957754859    -0.4149897926
   16      O       2.0545263543    -0.4912790467    -0.7425192310
   17      O       1.4135753850    -0.3782701696     2.0563820596
   18      C       0.8368253489    -1.1371886074    -1.2940565354
   19      C       4.4295677003     1.6737146840     0.9385740136
   20      C       5.9975632323     1.5601426679     1.0928153237
   21      C       6.3281323133     0.4519110576     0.0252401476
   22      C       4.8866883874     0.1283997778    -0.5340596005
   23      O       4.2007978837     1.4392162480    -0.5060041974
   24      H       4.2349481435     0.1791765119     2.5969676870
   25      H       4.7546903959    -1.5039663691     1.0009897803
   26      H       3.9828361803     2.6365118049     1.2503917070
   27      H       6.4793851873     2.5186680431     0.8429902042
   28      H       6.2937868206     1.2706393470     2.1137640712
   29      H       6.9718890218     0.8442818576    -0.7781066748
   30      H       6.8127427501    -0.4344583185     0.4650552546
   31      H       4.8616691465    -0.3005357958    -1.5544955621
   32      O      -1.3735289838    -0.0927755277     0.4353346915
   33      C      -1.8682795384    -3.3395286146     0.0409784334
   34      C      -4.9128316847    -0.7174376122    -1.2170763937
   35      C      -6.1835606216     0.2038819569    -1.4016064037
   36      C      -5.5114799305     1.6123258275    -1.6051781992
   37      C      -3.9806461422     1.2341156147    -1.5140260096
   38      O      -3.9118800453    -0.1097507250    -2.1254013093
   39      H      -5.1124840958    -0.3752056949     0.9885724046
   40      H      -4.0585300564     1.7330809184     0.6705919620
   41      H      -2.3729973103    -4.1028372312     0.6682597574
   42      H      -5.0597871713    -1.7858000509    -1.4650076259
   43      H      -6.7557226464    -0.1025893271    -2.2916936604
   44      H      -6.8492771992     0.1716928515    -0.5246957926
   45      H      -5.7445220434     2.0323016441    -2.5965291226
   46      H      -5.8053389524     2.3419636327    -0.8337559328
   47      H      -3.2884211457     1.9342421166    -2.0210707564
   48      H      -1.0309427994    -2.9018276625     0.6216311802
   49      H      -1.4744169646    -3.8161635014    -0.8753988382
   50      H      -0.0424621546    -0.8389159416    -0.6785202799
   51      H       0.9546854338    -2.2379692917    -1.2727950752
   52      H       0.7080758535    -0.7823556535    -2.3340958941
   53      H       0.0935024128     2.9310962213     2.4090535058
   54      H      -0.0744262413     1.1247831011     2.1883604476
   55      H       0.2316069764     3.2547385432    -0.0813389340
   56      H       0.3765799168     1.4703605676    -0.3319690285
 ----------------------------------------------------------------

    9   -1510.2919312338      8.37E-09 Convergence criterion met
 Total energy in the final basis set = -1510.29193123
 Final energy is   -1510.29193123380
 **  OPTIMIZATION CONVERGED  **

                    Orbital Energies (a.u.)
 --------------------------------------------------------------

 Alpha MOs
 -- Occupied --
-18.950 -18.937 -18.920 -18.918 -18.896 -18.889 -18.886 -18.879
-18.865 -18.855 -10.115 -10.102 -10.090 -10.087 -10.076 -10.070
-10.064 -10.059 -10.058 -10.057 -10.048 -10.043 -10.039 -10.034
-10.034 -10.033 -10.022 -10.020 -10.020 -10.018  -1.027  -1.015
 -0.998  -0.995  -0.971  -0.968  -0.951  -0.939  -0.924  -0.920
 -0.765  -0.761  -0.729  -0.722  -0.714  -0.706  -0.695  -0.648
 -0.645  -0.620  -0.596  -0.582  -0.546  -0.544  -0.538  -0.536
 -0.514  -0.510  -0.487  -0.478  -0.466  -0.463  -0.451  -0.439
 -0.435  -0.432  -0.425  -0.410  -0.407  -0.404  -0.400  -0.395
 -0.390  -0.380  -0.378  -0.363  -0.362  -0.352  -0.347  -0.343
 -0.341  -0.335  -0.335  -0.331  -0.329  -0.326  -0.318  -0.316
 -0.309  -0.305  -0.303  -0.300  -0.296  -0.286  -0.282  -0.275
 -0.273  -0.263  -0.249  -0.241  -0.237  -0.234  -0.233  -0.198
 -0.174  -0.167  -0.161  -0.160  -0.157  -0.146  -0.145  -0.142
 -0.136

          Ground-State Mulliken Net Atomic Charges

     Atom                 Charge (a.u.)
  ----------------------------------------
      1 O                    -0.220985
      2 C                     0.213099
      3 C                    -0.081605
      4 C                    -0.078460
      5 C                     0.219216
      6 O                    -0.168345
      7 C                    -0.051867
      8 C                    -0.056835
      9 O                    -0.172230
     10 C                     0.214523
     11 C                    -0.077629
     12 C                    -0.079492
     13 C                     0.210998
     14 O                    -0.214726
     15 O                    -0.170787
     16 O                    -0.176462
     17 O                    -0.207826
     18 C                    -0.150518
     19 C                     0.023243
     20 C                    -0.144441
     21 C                    -0.143938
     22 C                     0.026251
     23 O                    -0.188051
     24 H                     0.085553
     25 H                     0.084679
     26 H                     0.091580
     27 H                     0.077418
     28 H                     0.072936
     29 H                     0.077486
     30 H                     0.073953
     31 H                     0.083448
     32 O                    -0.204117
     33 C                    -0.128201
     34 C                     0.026243
     35 C                    -0.144326
     36 C                    -0.143617
     37 C                     0.025513
     38 O                    -0.187640
     39 H                     0.082997
     40 H                     0.087664
     41 H                     0.084640
     42 H                     0.089052
     43 H                     0.078036
     44 H                     0.073780
     45 H                     0.078524
     46 H                     0.073848
     47 H                     0.084894
     48 H                     0.097843
     49 H                     0.087206
     50 H                     0.104610
     51 H                     0.094475
     52 H                     0.079361
     53 H                     0.087045
     54 H                     0.107013
     55 H                     0.093051
     56 H                     0.101918
  ----------------------------------------
  Sum of atomic charges =     0.000000

                    Cartesian Multipole Moments
 -----------------------------------------------------------------
    Charge (ESU x 10^10)
                 0.0000
    Dipole Moment (Debye)
         X      -0.1515      Y       2.7076      Z      -0.0007
       Tot       2.7118
    Quadrupole Moments (Debye-Ang)
        XX    -135.0514     XY      -2.8779     YY    -160.6611
        XZ       5.7280     YZ       6.0899     ZZ    -163.2609

 Total job time:  216.72s(wall), 10333.22s(cpu)
        *  Thank you very much for using Q-Chem.  Have a nice day.  *
