 Q-Chem 5.0, Q-Chem, Inc., Pleasanton, CA (2017)
 Q-Chem 5.0.1 for Intel X86 EM64T Linux

User input:
--------------------------------------------------------------
$molecule
0  1
O -3.94934 -3.66094 2.70899
C -3.26408 -4.56952 2.26188
C -3.36658 -6.02376 2.66595
C -4.44479 -6.87167 1.97142
C -5.18176 -6.21743 0.82384
O -4.64039 -4.99074 0.56391
C -3.22285 -5.03078 0.36838
C -2.61259 -3.6648 0.6647
O -1.46388 -3.4504 -0.1704
C -0.81818 -2.27269 0.01727
C 0.19329 -1.97735 -1.06457
C 1.54359 -1.44695 -0.56092
C 1.81261 -1.62477 0.91986
O 2.83521 -1.28928 1.49978
O -1.97356 -4.30548 2.79769
O 1.1887 -2.67707 1.52429
O -1.16636 -1.40117 0.80673
C 1.59601 -3.26473 2.70944
C 0.66706 -3.18218 -1.91308
C 1.20407 -2.68895 -3.25687
C 2.50121 -2.03861 -2.82461
C 2.49521 -2.37978 -1.33164
O 1.83584 -3.62199 -1.26759
H -0.29427 -1.23114 -1.7317
H 1.70234 -0.37075 -0.79245
H -0.11198 -3.95263 -2.09514
H 1.44731 -3.5901 -3.86467
H 0.51312 -2.03612 -3.83239
H 3.34181 -2.55612 -3.33825
H 2.56542 -0.94253 -2.99829
H 3.53088 -2.35727 -0.92591
O -6.21081 -6.62922 0.31309
C -1.58401 -3.31467 3.70006
C -2.1715 -7.04492 2.52328
C -2.30595 -8.14653 3.58011
C -3.47119 -8.94418 3.01279
C -3.70959 -8.19475 1.69487
O -2.41644 -7.78891 1.34663
H -3.55556 -5.96542 3.76442
H -5.2719 -7.04551 2.69651
H -1.04142 -3.78864 4.54317
H -1.1661 -6.57924 2.59815
H -1.38938 -8.77641 3.51783
H -2.42972 -7.79523 4.62692
H -3.12112 -9.98046 2.80818
H -4.37967 -8.97648 3.65231
H -4.24849 -8.8296 0.95921
H -0.92364 -2.58946 3.19369
H -2.42822 -2.74041 4.13332
H 0.94163 -4.12932 2.93635
H 1.54346 -2.52964 3.54132
H 2.63512 -3.64496 2.61216
H -3.36915 -3.1307 0.03028
H -2.98199 -2.66812 1.06769
H -3.19266 -5.05237 -0.75017
H -2.58217 -5.9096 0.32717
$end

$opt
CONSTRAINT
tors           1           2           3           4     +83.470
tors           3           4           5           6      +4.904
tors           4           5           6           7     +52.653
tors           5           6           7           8    -156.332
tors           6           7           8           9    -148.163
tors           7           8           9          10    -178.945
tors           8           9          10          11    -168.175
tors           9          10          11          12    -135.900
tors          11          12          13          14    +178.698
ENDCONSTRAINT
$end

$rem
JOBTYPE                   OPT
METHOD                    B3LYP
DFT_D                     d3_op
BASIS                     STO-3G
GEOM_OPT_MAX_CYCLES       100
GEOM_OPT_TOL_GRADIENT     300
GEOM_OPT_TOL_DISPLACEMENT 1200
GEOM_OPT_TOL_ENERGY       100
SYMMETRY                  False
THRESH                    12
SCF_CONVERGENCE           8
MAX_SUB_FILE_NUM          128
MEM_STATIC                400
MEM_TOTAL                 4000
$end
--------------------------------------------------------------

   16   -1509.7905452031      7.88E-09 Convergence criterion met
 Total energy in the final basis set = -1509.79054520
   13   -1509.8826009563      9.03E-09 Convergence criterion met
 Total energy in the final basis set = -1509.88260096
   14   -1509.9478443456      9.81E-09 Convergence criterion met
 Total energy in the final basis set = -1509.94784435
   13   -1509.9965490709      8.78E-09 Convergence criterion met
 Total energy in the final basis set = -1509.99654907
   14   -1510.0333205365      7.84E-09 Convergence criterion met
 Total energy in the final basis set = -1510.03332054
   13   -1510.0629438698      8.97E-09 Convergence criterion met
 Total energy in the final basis set = -1510.06294387
   14   -1510.0871431034      3.46E-09 Convergence criterion met
 Total energy in the final basis set = -1510.08714310
   13   -1510.1077028485      9.38E-09 Convergence criterion met
   11   -1510.2442097458      5.13E-09 Convergence criterion met
 Total energy in the final basis set = -1510.24420975
   11   -1510.2442191051      4.74E-09 Convergence criterion met
 Total energy in the final basis set = -1510.24421911
   11   -1510.2442318060      6.39E-09 Convergence criterion met
 Total energy in the final basis set = -1510.24423181
   11   -1510.2442462633      5.14E-09 Convergence criterion met
 Total energy in the final basis set = -1510.24424626
   10   -1510.2442621157      6.78E-09 Convergence criterion met
 Total energy in the final basis set = -1510.24426212
    9   -1510.2442662724      6.77E-09 Convergence criterion met
 Total energy in the final basis set = -1510.24426627

             Standard Nuclear Orientation (Angstroms)
    I     Atom           X                Y                Z
 ----------------------------------------------------------------
    1      O       3.2006560726     2.0732325918     2.3513336003
    2      C       2.8322908669     1.6134080821     1.2461883460
    3      C       3.8163584299     1.0923571610     0.1340626908
    4      C       4.4103397915    -0.3913371336     0.1623562177
    5      C       3.7792454101    -1.7169578111     0.8050342992
    6      O       2.4760541067    -1.7950188022     1.3991046062
    7      C       1.4293783910    -1.2809750529     0.4779341166
    8      C       0.2029391374    -0.8275345390     1.3277449154
    9      O      -1.0000194420    -1.0713882660     0.4934179298
   10      C      -2.1715669867    -0.6538337664     1.2022134012
   11      C      -3.4511648714    -1.1835785135     0.4579077586
   12      C      -4.6264021936    -0.1389712498     0.3072907312
   13      C      -4.1771833083     1.3656406148     0.1989568353
   14      O      -4.9319340905     2.3516500081     0.0517025200
   15      O       1.4987000154     1.7891777933     0.7349865061
   16      O      -2.7549638464     1.4370154643     0.0492075323
   17      O      -2.1454877759    -0.0883292711     2.3175177867
   18      C      -2.3361653929     2.8226861884    -0.2543637051
   19      C      -3.2886305399    -1.6995316434    -1.0381355719
   20      C      -4.3582024973    -2.8408162869    -1.2402710402
   21      C      -5.6876237106    -1.9983157798    -1.1850776343
   22      C      -5.1244702786    -0.5214727298    -1.1576086534
   23      O      -3.8316073512    -0.6073181097    -1.8806584579
   24      H      -3.8151820519    -2.0205286506     1.0844463874
   25      H      -5.4086216209    -0.2467214314     1.0791004973
   26      H      -2.2490126160    -1.9434191117    -1.3284256200
   27      H      -4.2279119664    -3.3177062961    -2.2251107105
   28      H      -4.3081987843    -3.6170523400    -0.4598813825
   29      H      -6.3106325921    -2.1577341021    -2.0793807951
   30      H      -6.2931795304    -2.2204336666    -0.2913528700
   31      H      -5.7810565037     0.2412904222    -1.6199843536
   32      O       4.5322738237    -2.7105758091     0.9285502083
   33      C       0.7191567618     2.6689931639     1.6459694289
   34      C       3.3080663210     1.2331614592    -1.3659915923
   35      C       4.5516801956     1.6263249164    -2.2468224996
   36      C       5.3778742946     0.2878076709    -2.1853428783
   37      C       4.3808126376    -0.6675153696    -1.4171515607
   38      O       3.0341355518    -0.1596185475    -1.7860588207
   39      H       4.6923312005     1.7540196479     0.2709693715
   40      H       5.4458027378    -0.3697718432     0.5456276255
   41      H       0.5522434433     3.6432645206     1.1452431453
   42      H       2.4045514008     1.8613612419    -1.4833260346
   43      H       4.2339552324     1.8563176116    -3.2765568218
   44      H       5.0994260240     2.4916490352    -1.8410118776
   45      H       5.5904304951    -0.1061961727    -3.1915595904
   46      H       6.3305099522     0.4021557643    -1.6432934313
   47      H       4.4739700249    -1.7389394379    -1.6817749685
   48      H      -0.2576028656     2.1942082348     1.8587169790
   49      H       1.2904522390     2.8199817824     2.5837165032
   50      H      -1.2793785955     2.7591658694    -0.5716360195
   51      H      -2.4181029771     3.4754814514     0.6390534038
   52      H      -2.9496555533     3.2591876495    -1.0679720534
   53      H       0.1574412636    -1.4258375566     2.2645363469
   54      H       0.2929257088     0.2402693527     1.5944502924
   55      H       1.0972588994    -2.1295463882    -0.1644387771
   56      H       1.8114611945    -0.4970909316    -0.2121682528
 ----------------------------------------------------------------

    9   -1510.2442668839      6.81E-09 Convergence criterion met
 Total energy in the final basis set = -1510.24426688
 Final energy is   -1510.24426688389
 **  OPTIMIZATION CONVERGED  **

                    Orbital Energies (a.u.)
 --------------------------------------------------------------

 Alpha MOs
 -- Occupied --
-18.945 -18.939 -18.927 -18.925 -18.905 -18.890 -18.885 -18.881
-18.873 -18.861 -10.113 -10.104 -10.100 -10.097 -10.072 -10.069
-10.067 -10.065 -10.063 -10.060 -10.060 -10.056 -10.050 -10.045
-10.039 -10.034 -10.031 -10.029 -10.021 -10.019  -1.023  -1.014
 -1.007  -1.003  -0.986  -0.969  -0.947  -0.939  -0.936  -0.928
 -0.771  -0.762  -0.729  -0.723  -0.717  -0.711  -0.693  -0.670
 -0.662  -0.610  -0.605  -0.578  -0.554  -0.548  -0.544  -0.537
 -0.526  -0.513  -0.490  -0.484  -0.476  -0.467  -0.445  -0.439
 -0.437  -0.436  -0.432  -0.421  -0.414  -0.413  -0.410  -0.409
 -0.395  -0.382  -0.380  -0.369  -0.364  -0.358  -0.356  -0.350
 -0.345  -0.344  -0.339  -0.337  -0.329  -0.324  -0.320  -0.319
 -0.316  -0.308  -0.306  -0.302  -0.298  -0.296  -0.291  -0.284
 -0.275  -0.261  -0.251  -0.248  -0.245  -0.235  -0.233  -0.188
 -0.180  -0.173  -0.171  -0.167  -0.157  -0.155  -0.151  -0.148
 -0.139

          Ground-State Mulliken Net Atomic Charges

     Atom                 Charge (a.u.)
  ----------------------------------------
      1 O                    -0.207261
      2 C                     0.206640
      3 C                    -0.084739
      4 C                    -0.082814
      5 C                     0.210460
      6 O                    -0.175641
      7 C                    -0.057751
      8 C                    -0.051477
      9 O                    -0.174420
     10 C                     0.218380
     11 C                    -0.079723
     12 C                    -0.076053
     13 C                     0.213368
     14 O                    -0.215724
     15 O                    -0.173416
     16 O                    -0.165726
     17 O                    -0.226051
     18 C                    -0.127087
     19 C                     0.023223
     20 C                    -0.141847
     21 C                    -0.145405
     22 C                     0.023662
     23 O                    -0.192389
     24 H                     0.082215
     25 H                     0.087264
     26 H                     0.093322
     27 H                     0.077670
     28 H                     0.073307
     29 H                     0.078365
     30 H                     0.073932
     31 H                     0.084936
     32 O                    -0.196093
     33 C                    -0.141031
     34 C                     0.021722
     35 C                    -0.142107
     36 C                    -0.145070
     37 C                     0.022871
     38 O                    -0.190474
     39 H                     0.089346
     40 H                     0.090782
     41 H                     0.083949
     42 H                     0.092342
     43 H                     0.080581
     44 H                     0.075761
     45 H                     0.081272
     46 H                     0.077037
     47 H                     0.087105
     48 H                     0.095885
     49 H                     0.106760
     50 H                     0.091725
     51 H                     0.086253
     52 H                     0.094621
     53 H                     0.088761
     54 H                     0.093827
     55 H                     0.082532
     56 H                     0.102423
  ----------------------------------------
  Sum of atomic charges =    -0.000000

                    Cartesian Multipole Moments
 -----------------------------------------------------------------
    Charge (ESU x 10^10)
                 0.0000
    Dipole Moment (Debye)
         X       0.4668      Y       1.4637      Z      -2.0839
       Tot       2.5890
    Quadrupole Moments (Debye-Ang)
        XX    -154.6699     XY      19.7533     YY    -158.9315
        XZ     -10.0595     YZ       0.2842     ZZ    -168.7280

 Total job time:  141.51s(wall), 6742.16s(cpu)
        *  Thank you very much for using Q-Chem.  Have a nice day.  *
