 Q-Chem 5.0, Q-Chem, Inc., Pleasanton, CA (2017)
 Q-Chem 5.0.1 for Intel X86 EM64T Linux

User input:
--------------------------------------------------------------
$molecule
0  1
O 3.2006560726 2.0732325918 2.3513336003
C 2.8322908669 1.6134080821 1.246188346
C 3.8163584299 1.092357161 0.1340626908
C 4.4103397915 -0.3913371336 0.1623562177
C 3.7792454101 -1.7169578111 0.8050342992
O 2.4760541067 -1.7950188022 1.3991046062
C 1.429378391 -1.2809750529 0.4779341166
C 0.2029391374 -0.827534539 1.3277449154
O -1.000019442 -1.071388266 0.4934179298
C -2.1715669867 -0.6538337664 1.2022134012
C -3.4511648714 -1.1835785135 0.4579077586
C -4.6264021936 -0.1389712498 0.3072907312
C -4.1771833083 1.3656406148 0.1989568353
O -4.9319340905 2.3516500081 0.05170252
O 1.4987000154 1.7891777933 0.7349865061
O -2.7549638464 1.4370154643 0.0492075323
O -2.1454877759 -0.0883292711 2.3175177867
C -2.3361653929 2.8226861884 -0.2543637051
C -3.2886305399 -1.6995316434 -1.0381355719
C -4.3582024973 -2.8408162869 -1.2402710402
C -5.6876237106 -1.9983157798 -1.1850776343
C -5.1244702786 -0.5214727298 -1.1576086534
O -3.8316073512 -0.6073181097 -1.8806584579
H -3.8151820519 -2.0205286506 1.0844463874
H -5.4086216209 -0.2467214314 1.0791004973
H -2.249012616 -1.9434191117 -1.32842562
H -4.2279119664 -3.3177062961 -2.2251107105
H -4.3081987843 -3.61705234 -0.4598813825
H -6.3106325921 -2.1577341021 -2.0793807951
H -6.2931795304 -2.2204336666 -0.29135287
H -5.7810565037 0.2412904222 -1.6199843536
O 4.5322738237 -2.7105758091 0.9285502083
C 0.7191567618 2.6689931639 1.6459694289
C 3.308066321 1.2331614592 -1.3659915923
C 4.5516801956 1.6263249164 -2.2468224996
C 5.3778742946 0.2878076709 -2.1853428783
C 4.3808126376 -0.6675153696 -1.4171515607
O 3.0341355518 -0.1596185475 -1.7860588207
H 4.6923312005 1.7540196479 0.2709693715
H 5.4458027378 -0.3697718432 0.5456276255
H 0.5522434433 3.6432645206 1.1452431453
H 2.4045514008 1.8613612419 -1.4833260346
H 4.2339552324 1.8563176116 -3.2765568218
H 5.099426024 2.4916490352 -1.8410118776
H 5.5904304951 -0.1061961727 -3.1915595904
H 6.3305099522 0.4021557643 -1.6432934313
H 4.4739700249 -1.7389394379 -1.6817749685
H -0.2576028656 2.1942082348 1.858716979
H 1.290452239 2.8199817824 2.5837165032
H -1.2793785955 2.7591658694 -0.5716360195
H -2.4181029771 3.4754814514 0.6390534038
H -2.9496555533 3.2591876495 -1.0679720534
H 0.1574412636 -1.4258375566 2.2645363469
H 0.2929257088 0.2402693527 1.5944502924
H 1.0972588994 -2.1295463882 -0.1644387771
H 1.8114611945 -0.4970909316 -0.2121682528
$end

$rem
JOBTYPE                   OPT
METHOD                    B3LYP
DFT_D                     d3_op
BASIS                     STO-3G
GEOM_OPT_MAX_CYCLES       100
GEOM_OPT_TOL_GRADIENT     300
GEOM_OPT_TOL_DISPLACEMENT 1200
GEOM_OPT_TOL_ENERGY       100
SYMMETRY                  False
THRESH                    12
SCF_CONVERGENCE           8
MAX_SUB_FILE_NUM          128
MEM_STATIC                400
MEM_TOTAL                 4000
$end
--------------------------------------------------------------

   16   -1510.2441929152      5.82E-09 Convergence criterion met
 Total energy in the final basis set = -1510.24419292
   14   -1510.2483326608      3.31E-09 Convergence criterion met
 Total energy in the final basis set = -1510.24833266
   15   -1510.2550806901      2.22E-09 Convergence criterion met
 Total energy in the final basis set = -1510.25508069
   14   -1510.2603396045      2.52E-09 Convergence criterion met
 Total energy in the final basis set = -1510.26033960
   14   -1510.2641525941      7.39E-09 Convergence criterion met
 Total energy in the final basis set = -1510.26415259
   14   -1510.2673881506      4.47E-09 Convergence criterion met
 Total energy in the final basis set = -1510.26738815
   13   -1510.2697648851      7.75E-09 Convergence criterion met
 Total energy in the final basis set = -1510.26976489
   13   -1510.2715259919      6.83E-09 Convergence criterion met
   12   -1510.2878490499      7.66E-09 Convergence criterion met
 Total energy in the final basis set = -1510.28784905
   12   -1510.2878741700      3.17E-09 Convergence criterion met
 Total energy in the final basis set = -1510.28787417
   12   -1510.2878898635      3.54E-09 Convergence criterion met
 Total energy in the final basis set = -1510.28788986
   11   -1510.2878886756      9.33E-09 Convergence criterion met
 Total energy in the final basis set = -1510.28788868
   11   -1510.2878953075      3.43E-09 Convergence criterion met
 Total energy in the final basis set = -1510.28789531
    9   -1510.2878983683      6.94E-09 Convergence criterion met
 Total energy in the final basis set = -1510.28789837

             Standard Nuclear Orientation (Angstroms)
    I     Atom           X                Y                Z
 ----------------------------------------------------------------
    1      O      -2.1289887051    -0.7904499024     1.9868875814
    2      C      -2.2859844385    -1.4846381717     0.9546511798
    3      C      -3.4026680188    -1.2774076346    -0.1311471965
    4      C      -3.9926549640     0.1932809200    -0.1308374602
    5      C      -3.6479283533     1.1116113997     1.1280489613
    6      O      -2.6260447744     2.1182957369     1.0332789732
    7      C      -1.3453046108     1.7122258747     0.4057379302
    8      C      -0.3299084421     1.4279964329     1.5740456409
    9      O       1.0679741107     1.5734511466     1.0980266017
   10      C       1.8409424327     0.4143676577     1.3900218145
   11      C       3.3475096845     0.6497784551     1.0002693108
   12      C       3.8639729673    -0.3592534930    -0.1118718061
   13      C       2.7365371440    -1.2792089623    -0.6866880991
   14      O       2.7786885793    -2.5114376861    -0.8903792846
   15      O      -1.4788089299    -2.6033876414     0.6054911901
   16      O       1.6138586607    -0.4448882531    -0.9855324861
   17      O       1.4003846758    -0.6162158129     1.9532799424
   18      C       0.4990081152    -1.2423250349    -1.5414382222
   19      C       3.6334804259     2.0446338510     0.3048987588
   20      C       5.1871492268     2.3202814536     0.3772492111
   21      C       5.7249315427     1.3171682954    -0.7095871938
   22      C       4.3768116868     0.6667106339    -1.2169864748
   23      O       3.3992969028     1.7733378274    -1.1325558832
   24      H       3.9404378439     0.5327154144     1.9264142532
   25      H       4.6785688790    -1.0028354208     0.2628791633
   26      H       2.9816191543     2.8670711443     0.6548953332
   27      H       5.4045889251     3.3651356318     0.1044838039
   28      H       5.5991450752     2.1237304426     1.3798268590
   29      H       6.2313967959     1.8446887940    -1.5334645715
   30      H       6.4152708060     0.5667429620    -0.2923638226
   31      H       4.4092693418     0.2542096180    -2.2442256355
   32      O      -4.4286041598     1.1740198571     2.1042653105
   33      C      -0.4748736580    -2.8719215530     1.6717882337
   34      C      -2.8416033525    -1.3740466376    -1.6048327921
   35      C      -4.0452254293    -1.4119568760    -2.6241128991
   36      C      -4.4915185314     0.0971222422    -2.6420010544
   37      C      -3.5260094852     0.7096913510    -1.5600259052
   38      O      -2.2541683921    -0.0238673440    -1.8058862590
   39      H      -4.1943450988    -2.0282772744     0.0486020546
   40      H      -5.0954173401     0.1316470346    -0.1064035225
   41      H       0.0832645028    -3.7627786467     1.3314708395
   42      H      -2.0804370930    -2.1630070620    -1.7469261709
   43      H      -3.7001518437    -1.7447149413    -3.6158430705
   44      H      -4.8457890845    -2.0877779864    -2.2833380561
   45      H      -4.3064529223     0.5586867694    -3.6251478124
   46      H      -5.5524863940     0.2336349359    -2.3793911737
   47      H      -3.3630667516     1.8021761753    -1.6318572874
   48      H       0.2220707543    -2.0087271228     1.8025279235
   49      H      -0.9752540626    -3.0924896833     2.6354009027
   50      H      -0.2708056122    -0.5131965421    -1.8618126093
   51      H       0.0553760980    -1.9126292875    -0.7747625511
   52      H       0.8284877693    -1.8537190337    -2.4048365448
   53      H      -0.4969669778     2.1843957580     2.3703867699
   54      H      -0.5034447813     0.4133997002     1.9943712932
   55      H      -0.9892142770     2.5898653900    -0.1746254269
   56      H      -1.4525227367     0.8504094991    -0.2947834051
 ----------------------------------------------------------------

    9   -1510.2878980639      4.67E-09 Convergence criterion met
 Total energy in the final basis set = -1510.28789806
 Final energy is   -1510.28789806390
 **  OPTIMIZATION CONVERGED  **

                    Orbital Energies (a.u.)
 --------------------------------------------------------------

 Alpha MOs
 -- Occupied --
-18.948 -18.937 -18.932 -18.913 -18.913 -18.892 -18.887 -18.873
-18.873 -18.865 -10.113 -10.107 -10.097 -10.095 -10.075 -10.073
-10.061 -10.057 -10.055 -10.054 -10.050 -10.050 -10.048 -10.039
-10.039 -10.037 -10.033 -10.032 -10.021 -10.019  -1.024  -1.015
 -1.006  -0.995  -0.988  -0.969  -0.948  -0.938  -0.934  -0.925
 -0.774  -0.763  -0.733  -0.724  -0.717  -0.710  -0.691  -0.662
 -0.655  -0.608  -0.603  -0.580  -0.559  -0.550  -0.544  -0.537
 -0.522  -0.512  -0.487  -0.481  -0.474  -0.470  -0.453  -0.447
 -0.437  -0.432  -0.429  -0.416  -0.416  -0.406  -0.404  -0.397
 -0.387  -0.382  -0.376  -0.374  -0.366  -0.360  -0.357  -0.350
 -0.346  -0.341  -0.340  -0.333  -0.330  -0.324  -0.323  -0.319
 -0.313  -0.309  -0.306  -0.303  -0.295  -0.293  -0.286  -0.279
 -0.275  -0.266  -0.258  -0.244  -0.240  -0.232  -0.230  -0.191
 -0.178  -0.172  -0.168  -0.167  -0.161  -0.153  -0.149  -0.142
 -0.139

          Ground-State Mulliken Net Atomic Charges

     Atom                 Charge (a.u.)
  ----------------------------------------
      1 O                    -0.206044
      2 C                     0.212491
      3 C                    -0.079749
      4 C                    -0.087645
      5 C                     0.213846
      6 O                    -0.181436
      7 C                    -0.060491
      8 C                    -0.060942
      9 O                    -0.166935
     10 C                     0.224837
     11 C                    -0.077164
     12 C                    -0.079561
     13 C                     0.208677
     14 O                    -0.213277
     15 O                    -0.170823
     16 O                    -0.169073
     17 O                    -0.230472
     18 C                    -0.144893
     19 C                     0.024762
     20 C                    -0.144199
     21 C                    -0.143986
     22 C                     0.026194
     23 O                    -0.185497
     24 H                     0.084648
     25 H                     0.084958
     26 H                     0.092657
     27 H                     0.077953
     28 H                     0.073017
     29 H                     0.077993
     30 H                     0.073845
     31 H                     0.082433
     32 O                    -0.201725
     33 C                    -0.147489
     34 C                     0.023111
     35 C                    -0.143604
     36 C                    -0.142091
     37 C                     0.021692
     38 O                    -0.193815
     39 H                     0.090238
     40 H                     0.087588
     41 H                     0.089364
     42 H                     0.094207
     43 H                     0.081159
     44 H                     0.077575
     45 H                     0.081255
     46 H                     0.078598
     47 H                     0.089968
     48 H                     0.119413
     49 H                     0.085583
     50 H                     0.102781
     51 H                     0.088576
     52 H                     0.083851
     53 H                     0.087773
     54 H                     0.107622
     55 H                     0.084310
     56 H                     0.097938
  ----------------------------------------
  Sum of atomic charges =    -0.000000

                    Cartesian Multipole Moments
 -----------------------------------------------------------------
    Charge (ESU x 10^10)
                -0.0000
    Dipole Moment (Debye)
         X       0.6489      Y      -1.0267      Z      -2.3983
       Tot       2.6883
    Quadrupole Moments (Debye-Ang)
        XX    -146.6677     XY      12.4954     YY    -163.6170
        XZ      17.7191     YZ      -1.3895     ZZ    -163.7019

 Total job time:  165.41s(wall), 7835.53s(cpu)
        *  Thank you very much for using Q-Chem.  Have a nice day.  *
