 Q-Chem 5.0, Q-Chem, Inc., Pleasanton, CA (2017)
 Q-Chem 5.0.1 for Intel X86 EM64T Linux

User input:
--------------------------------------------------------------
$molecule
0  1
O -3.94934 -3.66094 2.70899
C -3.26408 -4.56952 2.26188
C -3.36658 -6.02376 2.66595
C -3.6011 -6.3243 4.15542
C -3.88425 -5.13549 5.04686
O -4.42946 -5.55872 6.22544
C -4.17328 -4.66796 7.3164
C -3.26702 -5.34043 8.34236
O -3.69652 -5.0027 9.67065
C -2.70897 -4.90026 10.59444
C -2.92209 -5.80309 11.78613
C -2.62792 -5.15756 13.14813
C -2.51756 -3.6461 13.15295
O -1.53102 -3.00638 12.81819
O -2.23911 -4.25887 1.42524
O -3.57738 -2.94516 13.64493
O -1.61331 -4.41758 10.33947
C -3.63171 -1.5702 13.74139
C -4.36073 -6.32682 12.01221
C -4.31263 -7.62934 12.80939
C -3.89523 -7.11316 14.1686
C -3.90407 -5.60357 13.90247
O -4.91509 -5.4301 12.9397
H -2.24868 -6.67299 11.61337
H -1.71888 -5.55155 13.65365
H -4.94532 -6.49359 11.08276
H -5.35794 -8.00775 12.88
H -3.66472 -8.42583 12.38426
H -4.6838 -7.38732 14.90436
H -2.90225 -7.46155 14.52647
H -4.0425 -5.05774 14.86178
O -3.13467 -4.16474 5.00424
C -1.95421 -2.98327 0.9849
C -4.6387 -6.64774 2.0544
C -4.47673 -8.16199 1.94595
C -4.55983 -8.55425 3.40349
C -4.87672 -7.19404 4.03683
O -5.61695 -6.51886 3.05336
H -2.48789 -6.56148 2.24189
H -2.75367 -6.8813 4.61347
H -1.72219 -2.32297 1.8478
H -4.90073 -6.22383 1.05944
H -5.38092 -8.54802 1.42238
H -3.56781 -8.51087 1.41025
H -5.41317 -9.25764 3.52803
H -3.63471 -8.99809 3.83099
H -5.39994 -7.35935 5.00269
H -2.81745 -2.57261 0.41868
H -1.07118 -3.01853 0.31444
H -4.60925 -1.27459 14.17437
H -3.5333 -1.11242 12.73387
H -2.82032 -1.20027 14.40395
H -3.46575 -6.4321 8.26546
H -2.18708 -5.2035 8.11089
H -5.17154 -4.52996 7.78533
H -3.82684 -3.63267 7.10087
$end

$opt
CONSTRAINT
tors           1           2           3           4     -39.599
tors           3           4           5           6    +163.207
tors           4           5           6           7    +153.082
tors           5           6           7           8    -113.514
tors           6           7           8           9    -140.415
tors           7           8           9          10    -146.906
tors           8           9          10          11    -123.910
tors           9          10          11          12    -137.037
tors          11          12          13          14     -80.493
ENDCONSTRAINT
$end

$rem
JOBTYPE                   OPT
METHOD                    B3LYP
DFT_D                     d3_op
BASIS                     STO-3G
GEOM_OPT_MAX_CYCLES       100
GEOM_OPT_TOL_GRADIENT     300
GEOM_OPT_TOL_DISPLACEMENT 1200
GEOM_OPT_TOL_ENERGY       100
SYMMETRY                  False
THRESH                    12
SCF_CONVERGENCE           8
MAX_SUB_FILE_NUM          128
MEM_STATIC                400
MEM_TOTAL                 4000
$end
--------------------------------------------------------------

   15   -1510.1051328789      7.62E-09 Convergence criterion met
 Total energy in the final basis set = -1510.10513288
   14   -1510.1772375256      6.35E-09 Convergence criterion met
 Total energy in the final basis set = -1510.17723753
   14   -1510.2168991742      8.74E-09 Convergence criterion met
 Total energy in the final basis set = -1510.21689917
   14   -1510.2363291420      6.23E-09 Convergence criterion met
 Total energy in the final basis set = -1510.23632914
   14   -1510.2449015017      2.38E-09 Convergence criterion met
 Total energy in the final basis set = -1510.24490150
   14   -1510.2492163510      2.46E-09 Convergence criterion met
 Total energy in the final basis set = -1510.24921635
   13   -1510.2514859370      8.81E-09 Convergence criterion met
 Total energy in the final basis set = -1510.25148594
   13   -1510.2526228397      3.95E-09 Convergence criterion met
   11   -1510.2564561388      3.72E-09 Convergence criterion met
 Total energy in the final basis set = -1510.25645614
   10   -1510.2564728045      7.82E-09 Convergence criterion met
 Total energy in the final basis set = -1510.25647280
   10   -1510.2564899945      7.87E-09 Convergence criterion met
 Total energy in the final basis set = -1510.25648999
   11   -1510.2565042234      6.05E-09 Convergence criterion met
 Total energy in the final basis set = -1510.25650422
   11   -1510.2565137728      4.71E-09 Convergence criterion met
 Total energy in the final basis set = -1510.25651377
   11   -1510.2565171399      2.47E-09 Convergence criterion met
 Total energy in the final basis set = -1510.25651714

             Standard Nuclear Orientation (Angstroms)
    I     Atom           X                Y                Z
 ----------------------------------------------------------------
    1      O      -5.2715846572     1.3158725658     1.6563550030
    2      C      -5.5806293918     1.2697775936     0.4472385665
    3      C      -5.2747248477     0.1300566841    -0.5877534506
    4      C      -3.8380317972    -0.5159295170    -0.4479563091
    5      C      -2.7974143063     0.3214709433     0.3740615817
    6      O      -1.7101165399    -0.5450988711     0.7421533325
    7      C      -0.4628991080     0.2345715352     0.9217233071
    8      C       0.5704133974    -0.1691394167    -0.1965605291
    9      O       1.9140421775    -0.2270491153     0.4233448494
   10      C       2.9281839244     0.1779524029    -0.5319929587
   11      C       4.0301196928    -0.9400187684    -0.7088932786
   12      C       5.5203217138    -0.3889780916    -0.7545201894
   13      C       5.6232463244     1.1633091005    -0.9656730866
   14      O       5.5261403177     1.7735885381    -2.0524003197
   15      O      -6.3392144386     2.2817443818    -0.2285262458
   16      O       5.7717923219     1.8063886441     0.3038950124
   17      O       2.8704496773     1.2576095783    -1.1567792320
   18      C       5.7655520266     3.2765219230     0.1255932348
   19      C       4.1048212758    -1.8542372262     0.5820364131
   20      C       5.0248670648    -3.1056485957     0.2922289576
   21      C       6.4593774383    -2.4656544332     0.3983747436
   22      C       6.0914995444    -0.9462197836     0.6200986978
   23      O       4.9077418984    -1.0191214284     1.5068880731
   24      H       3.7764404416    -1.5068765139    -1.6244704755
   25      H       6.0498006436    -0.8532887599    -1.6066057907
   26      H       3.1117135625    -2.0696449122     1.0201796931
   27      H       4.8696812394    -3.8857424670     1.0540137163
   28      H       4.8269891627    -3.5388413677    -0.7013787622
   29      H       7.0089576611    -2.8565037285     1.2696903322
   30      H       7.0690434196    -2.6252202614    -0.5054103873
   31      H       6.8825852329    -0.3216103033     1.0767862213
   32      O      -2.7851186675     1.5608041427     0.5370718323
   33      C      -6.6787681146     3.3701647423     0.7166860728
   34      C      -6.1768659780    -1.1314909856    -0.2191135309
   35      C      -6.0685952732    -2.2087244973    -1.3714224868
   36      C      -4.6669517561    -2.8535930387    -1.0613821290
   37      C      -4.1863007901    -1.9515411497     0.1416003286
   38      O      -5.4322177897    -1.7332584618     0.9106268867
   39      H      -5.4714062404     0.5054556357    -1.6066804264
   40      H      -3.3865287487    -0.6308155734    -1.4521200518
   41      H      -5.7678008675     3.8368046461     1.1438218677
   42      H      -7.2098367172    -0.8774875504     0.0887196463
   43      H      -6.8828786068    -2.9460294050    -1.2907408633
   44      H      -6.1097121115    -1.7449236990    -2.3699331100
   45      H      -4.7695015867    -3.9011964667    -0.7359207762
   46      H      -3.9770945988    -2.8145064198    -1.9194016857
   47      H      -3.3954151047    -2.3855756660     0.7830772731
   48      H      -7.3100774679     3.0037274266     1.5519943411
   49      H      -7.2404901417     4.1205135728     0.1305024709
   50      H       5.8203340399     3.7074364201     1.1421456933
   51      H       4.8377084589     3.6181754669    -0.3768450195
   52      H       6.6358489761     3.6199489461    -0.4704697483
   53      H       0.3017478109    -1.1791093325    -0.5851597447
   54      H       0.5424398183     0.5562512095    -1.0377212176
   55      H      -0.0292364173    -0.0261542810     1.9108351887
   56      H      -0.6989688424     1.3195402757     0.9019800170
 ----------------------------------------------------------------

    9   -1510.2565176864      6.41E-09 Convergence criterion met
 Total energy in the final basis set = -1510.25651769
 Final energy is   -1510.25651768641
 **  OPTIMIZATION CONVERGED  **

                    Orbital Energies (a.u.)
 --------------------------------------------------------------

 Alpha MOs
 -- Occupied --
-18.931 -18.930 -18.928 -18.918 -18.899 -18.889 -18.885 -18.883
-18.868 -18.868 -10.110 -10.104 -10.094 -10.093 -10.076 -10.069
-10.061 -10.061 -10.059 -10.059 -10.058 -10.057 -10.042 -10.041
-10.036 -10.036 -10.022 -10.021 -10.021 -10.019  -1.016  -1.013
 -1.004  -1.003  -0.972  -0.968  -0.945  -0.938  -0.930  -0.928
 -0.764  -0.762  -0.727  -0.723  -0.715  -0.707  -0.694  -0.659
 -0.656  -0.614  -0.598  -0.581  -0.546  -0.545  -0.539  -0.537
 -0.516  -0.513  -0.485  -0.477  -0.466  -0.462  -0.452  -0.443
 -0.436  -0.433  -0.421  -0.409  -0.407  -0.407  -0.405  -0.400
 -0.395  -0.389  -0.375  -0.368  -0.360  -0.358  -0.355  -0.346
 -0.343  -0.340  -0.339  -0.331  -0.330  -0.329  -0.322  -0.313
 -0.309  -0.308  -0.305  -0.295  -0.293  -0.288  -0.286  -0.277
 -0.273  -0.255  -0.252  -0.246  -0.245  -0.235  -0.231  -0.179
 -0.174  -0.171  -0.168  -0.161  -0.160  -0.147  -0.146  -0.143
 -0.141

          Ground-State Mulliken Net Atomic Charges

     Atom                 Charge (a.u.)
  ----------------------------------------
      1 O                    -0.208714
      2 C                     0.212167
      3 C                    -0.079479
      4 C                    -0.077807
      5 C                     0.215275
      6 O                    -0.178849
      7 C                    -0.054348
      8 C                    -0.049669
      9 O                    -0.186444
     10 C                     0.218056
     11 C                    -0.077414
     12 C                    -0.081050
     13 C                     0.208402
     14 O                    -0.210240
     15 O                    -0.171994
     16 O                    -0.169138
     17 O                    -0.191321
     18 C                    -0.128359
     19 C                     0.022303
     20 C                    -0.145559
     21 C                    -0.143052
     22 C                     0.024668
     23 O                    -0.188973
     24 H                     0.085570
     25 H                     0.082234
     26 H                     0.092706
     27 H                     0.078049
     28 H                     0.071806
     29 H                     0.077777
     30 H                     0.072758
     31 H                     0.088742
     32 O                    -0.206261
     33 C                    -0.128881
     34 C                     0.025749
     35 C                    -0.144932
     36 C                    -0.142855
     37 C                     0.025099
     38 O                    -0.186971
     39 H                     0.086295
     40 H                     0.083621
     41 H                     0.092046
     42 H                     0.082812
     43 H                     0.078389
     44 H                     0.073839
     45 H                     0.078289
     46 H                     0.072301
     47 H                     0.091294
     48 H                     0.087292
     49 H                     0.088562
     50 H                     0.090292
     51 H                     0.093736
     52 H                     0.086627
     53 H                     0.081278
     54 H                     0.088696
     55 H                     0.093436
     56 H                     0.102142
  ----------------------------------------
  Sum of atomic charges =    -0.000000

                    Cartesian Multipole Moments
 -----------------------------------------------------------------
    Charge (ESU x 10^10)
                 0.0000
    Dipole Moment (Debye)
         X       0.0618      Y      -2.1412      Z      -2.4742
       Tot       3.2727
    Quadrupole Moments (Debye-Ang)
        XX    -146.3489     XY      -6.8351     YY    -151.9879
        XZ      10.9780     YZ       8.5462     ZZ    -168.4836

 Total job time:  69.87s(wall), 3317.37s(cpu)
        *  Thank you very much for using Q-Chem.  Have a nice day.  *
