 Q-Chem 5.0, Q-Chem, Inc., Pleasanton, CA (2017)
 Q-Chem 5.0.1 for Intel X86 EM64T Linux

User input:
--------------------------------------------------------------
$molecule
0  1
O -5.2715846572 1.3158725658 1.656355003
C -5.5806293918 1.2697775936 0.4472385665
C -5.2747248477 0.1300566841 -0.5877534506
C -3.8380317972 -0.515929517 -0.4479563091
C -2.7974143063 0.3214709433 0.3740615817
O -1.7101165399 -0.5450988711 0.7421533325
C -0.462899108 0.2345715352 0.9217233071
C 0.5704133974 -0.1691394167 -0.1965605291
O 1.9140421775 -0.2270491153 0.4233448494
C 2.9281839244 0.1779524029 -0.5319929587
C 4.0301196928 -0.9400187684 -0.7088932786
C 5.5203217138 -0.3889780916 -0.7545201894
C 5.6232463244 1.1633091005 -0.9656730866
O 5.5261403177 1.7735885381 -2.0524003197
O -6.3392144386 2.2817443818 -0.2285262458
O 5.7717923219 1.8063886441 0.3038950124
O 2.8704496773 1.2576095783 -1.156779232
C 5.7655520266 3.276521923 0.1255932348
C 4.1048212758 -1.8542372262 0.5820364131
C 5.0248670648 -3.1056485957 0.2922289576
C 6.4593774383 -2.4656544332 0.3983747436
C 6.0914995444 -0.9462197836 0.6200986978
O 4.9077418984 -1.0191214284 1.5068880731
H 3.7764404416 -1.5068765139 -1.6244704755
H 6.0498006436 -0.8532887599 -1.6066057907
H 3.1117135625 -2.0696449122 1.0201796931
H 4.8696812394 -3.885742467 1.0540137163
H 4.8269891627 -3.5388413677 -0.7013787622
H 7.0089576611 -2.8565037285 1.2696903322
H 7.0690434196 -2.6252202614 -0.5054103873
H 6.8825852329 -0.3216103033 1.0767862213
O -2.7851186675 1.5608041427 0.5370718323
C -6.6787681146 3.3701647423 0.7166860728
C -6.176865978 -1.1314909856 -0.2191135309
C -6.0685952732 -2.2087244973 -1.3714224868
C -4.6669517561 -2.8535930387 -1.061382129
C -4.1863007901 -1.9515411497 0.1416003286
O -5.4322177897 -1.7332584618 0.9106268867
H -5.4714062404 0.5054556357 -1.6066804264
H -3.3865287487 -0.6308155734 -1.4521200518
H -5.7678008675 3.8368046461 1.1438218677
H -7.2098367172 -0.8774875504 0.0887196463
H -6.8828786068 -2.946029405 -1.2907408633
H -6.1097121115 -1.744923699 -2.36993311
H -4.7695015867 -3.9011964667 -0.7359207762
H -3.9770945988 -2.8145064198 -1.9194016857
H -3.3954151047 -2.385575666 0.7830772731
H -7.3100774679 3.0037274266 1.5519943411
H -7.2404901417 4.1205135728 0.1305024709
H 5.8203340399 3.7074364201 1.1421456933
H 4.8377084589 3.6181754669 -0.3768450195
H 6.6358489761 3.6199489461 -0.4704697483
H 0.3017478109 -1.1791093325 -0.5851597447
H 0.5424398183 0.5562512095 -1.0377212176
H -0.0292364173 -0.026154281 1.9108351887
H -0.6989688424 1.3195402757 0.901980017
$end

$rem
JOBTYPE                   OPT
METHOD                    B3LYP
DFT_D                     d3_op
BASIS                     STO-3G
GEOM_OPT_MAX_CYCLES       100
GEOM_OPT_TOL_GRADIENT     300
GEOM_OPT_TOL_DISPLACEMENT 1200
GEOM_OPT_TOL_ENERGY       100
SYMMETRY                  False
THRESH                    12
SCF_CONVERGENCE           8
MAX_SUB_FILE_NUM          128
MEM_STATIC                400
MEM_TOTAL                 4000
$end
--------------------------------------------------------------

   16   -1510.2564748687      3.97E-09 Convergence criterion met
 Total energy in the final basis set = -1510.25647487
   14   -1510.2625235117      1.98E-09 Convergence criterion met
 Total energy in the final basis set = -1510.26252351
   14   -1510.2673850761      2.26E-09 Convergence criterion met
 Total energy in the final basis set = -1510.26738508
   14   -1510.2718542255      1.84E-09 Convergence criterion met
 Total energy in the final basis set = -1510.27185423
   14   -1510.2754996626      2.78E-09 Convergence criterion met
 Total energy in the final basis set = -1510.27549966
   13   -1510.2776191728      6.41E-09 Convergence criterion met
 Total energy in the final basis set = -1510.27761917
   13   -1510.2789003306      6.89E-09 Convergence criterion met
 Total energy in the final basis set = -1510.27890033
   13   -1510.2799530808      7.59E-09 Convergence criterion met
   13   -1510.2966710534      4.09E-09 Convergence criterion met
 Total energy in the final basis set = -1510.29667105
   11   -1510.2966510544      9.71E-09 Convergence criterion met
 Total energy in the final basis set = -1510.29665105
   11   -1510.2966725272      6.68E-09 Convergence criterion met
 Total energy in the final basis set = -1510.29667253
   11   -1510.2966733867      3.45E-09 Convergence criterion met
 Total energy in the final basis set = -1510.29667339
   10   -1510.2966778783      6.28E-09 Convergence criterion met
 Total energy in the final basis set = -1510.29667788
   11   -1510.2966804497      2.67E-09 Convergence criterion met
 Total energy in the final basis set = -1510.29668045

             Standard Nuclear Orientation (Angstroms)
    I     Atom           X                Y                Z
 ----------------------------------------------------------------
    1      O      -1.9575113219     2.2997607574     0.2280422687
    2      C      -2.2126588816     1.4131714932    -0.6174970934
    3      C      -3.4616477871     0.4570372465    -0.5950613582
    4      C      -3.2018776907    -1.1052357295    -0.7222270153
    5      C      -1.7028393539    -1.5451795497    -0.7070967019
    6      O      -1.3790104142    -2.0999263487    -1.9902925805
    7      C       0.0287414089    -2.5625542627    -2.0197707195
    8      C       0.9054123797    -1.5653991836    -2.8821876368
    9      O       2.2267982981    -1.2679563093    -2.2733505052
   10      C       2.0480441013    -0.4033224889    -1.1474220252
   11      C       3.4322266128    -0.0191698057    -0.5370976760
   12      C       3.2965518741     0.9880378361     0.6819355236
   13      C       1.8048795118     1.4048054385     0.9947172968
   14      O       1.2234347474     2.4238079614     0.5453587390
   15      O      -1.4550879639     1.1876398773    -1.8030840916
   16      O       1.2752255370     0.5120767892     1.9651129596
   17      O       0.9231795825    -0.0263630982    -0.7503046422
   18      C      -0.1873037759     0.7023836149     2.1348463568
   19      C       4.1374049953    -1.2598248440     0.1668316843
   20      C       5.6527860642    -0.8880904869     0.4131808816
   21      C       5.5241025795     0.1145969129     1.6188962161
   22      C       3.9590724853     0.1303540885     1.8410831389
   23      O       3.5516734811    -1.2592335041     1.5239951190
   24      H       4.0677482413     0.3904604220    -1.3430007176
   25      H       3.8650353793     1.9133825868     0.4802790327
   26      H       3.9614630772    -2.2291221257    -0.3392635836
   27      H       6.2265937372    -1.7858612918     0.6930289122
   28      H       6.1191544793    -0.4323091562    -0.4749463915
   29      H       6.0363913705    -0.2664142721     2.5166103908
   30      H       5.9203213851     1.1155248940     1.3844140502
   31      H       3.6267642194     0.4054145238     2.8600763967
   32      O      -0.9121675019    -1.5279802931     0.2635253754
   33      C      -0.3967214172     2.2262652548    -1.9220041291
   34      C      -4.1989851447     0.5352731921     0.8061360200
   35      C      -5.6903388229     0.0621638478     0.6119689025
   36      C      -5.4872647918    -1.4857231625     0.4113761395
   37      C      -3.9235683846    -1.6192833940     0.6000207981
   38      O      -3.5898822273    -0.5680790279     1.5858340147
   39      H      -4.1328131876     0.7814939136    -1.4123601872
   40      H      -3.6656464704    -1.5093029074    -1.6391354456
   41      H       0.2047689741     2.3222313620    -0.9839216516
   42      H      -4.0546769106     1.5024705398     1.3262337012
   43      H      -6.2830824502     0.2762905429     1.5156668440
   44      H      -6.1744359794     0.5449794833    -0.2520463929
   45      H      -6.0190901979    -2.0686127414     1.1799136918
   46      H      -5.8132111589    -1.8318758827    -0.5826604667
   47      H      -3.5744035802    -2.6083457362     0.9553169532
   48      H      -0.8497749390     3.2088915384    -2.1660196223
   49      H       0.2470880212     1.9060444914    -2.7609903155
   50      H      -0.4081573822     0.6709255864     3.2180544741
   51      H      -0.7037734979    -0.1339856413     1.6095775001
   52      H      -0.5140921373     1.6669087782     1.6952283721
   53      H       1.1370066484    -2.0017148859    -3.8734196034
   54      H       0.3187374485    -0.6304048118    -3.0192087763
   55      H       0.0333506486    -3.5769632250    -2.4668093749
   56      H       0.4128831310    -2.6045312768    -0.9768719470
 ----------------------------------------------------------------

    9   -1510.2966807059      8.74E-09 Convergence criterion met
 Total energy in the final basis set = -1510.29668071
 Final energy is   -1510.29668070595
 **  OPTIMIZATION CONVERGED  **

                    Orbital Energies (a.u.)
 --------------------------------------------------------------

 Alpha MOs
 -- Occupied --
-18.942 -18.936 -18.925 -18.910 -18.888 -18.886 -18.884 -18.883
-18.866 -18.848 -10.105 -10.103 -10.092 -10.085 -10.076 -10.070
-10.059 -10.059 -10.054 -10.054 -10.039 -10.039 -10.036 -10.034
-10.028 -10.019 -10.019 -10.018 -10.017 -10.016  -1.023  -1.012
 -1.001  -0.987  -0.968  -0.966  -0.946  -0.937  -0.926  -0.913
 -0.762  -0.759  -0.726  -0.720  -0.710  -0.703  -0.694  -0.647
 -0.634  -0.618  -0.593  -0.579  -0.543  -0.542  -0.535  -0.533
 -0.510  -0.506  -0.478  -0.473  -0.458  -0.456  -0.449  -0.447
 -0.431  -0.430  -0.425  -0.410  -0.403  -0.400  -0.396  -0.394
 -0.383  -0.380  -0.371  -0.363  -0.357  -0.352  -0.347  -0.343
 -0.338  -0.334  -0.328  -0.327  -0.322  -0.320  -0.316  -0.312
 -0.308  -0.304  -0.302  -0.296  -0.290  -0.282  -0.275  -0.270
 -0.267  -0.264  -0.247  -0.243  -0.232  -0.231  -0.221  -0.189
 -0.173  -0.169  -0.162  -0.156  -0.146  -0.143  -0.142  -0.141
 -0.133

          Ground-State Mulliken Net Atomic Charges

     Atom                 Charge (a.u.)
  ----------------------------------------
      1 O                    -0.211282
      2 C                     0.212475
      3 C                    -0.078985
      4 C                    -0.078220
      5 C                     0.219061
      6 O                    -0.169609
      7 C                    -0.056373
      8 C                    -0.051980
      9 O                    -0.171765
     10 C                     0.212014
     11 C                    -0.079029
     12 C                    -0.081179
     13 C                     0.221468
     14 O                    -0.232756
     15 O                    -0.172700
     16 O                    -0.169698
     17 O                    -0.200527
     18 C                    -0.148272
     19 C                     0.025477
     20 C                    -0.143625
     21 C                    -0.144639
     22 C                     0.027026
     23 O                    -0.185720
     24 H                     0.085655
     25 H                     0.081191
     26 H                     0.083896
     27 H                     0.077618
     28 H                     0.072733
     29 H                     0.077451
     30 H                     0.072973
     31 H                     0.089741
     32 O                    -0.202243
     33 C                    -0.141551
     34 C                     0.023353
     35 C                    -0.143654
     36 C                    -0.144457
     37 C                     0.025959
     38 O                    -0.187325
     39 H                     0.083377
     40 H                     0.086776
     41 H                     0.121349
     42 H                     0.092350
     43 H                     0.078241
     44 H                     0.072941
     45 H                     0.078037
     46 H                     0.072979
     47 H                     0.083078
     48 H                     0.077142
     49 H                     0.075245
     50 H                     0.077265
     51 H                     0.107730
     52 H                     0.101497
     53 H                     0.089534
     54 H                     0.099071
     55 H                     0.085646
     56 H                     0.105239
  ----------------------------------------
  Sum of atomic charges =    -0.000000

                    Cartesian Multipole Moments
 -----------------------------------------------------------------
    Charge (ESU x 10^10)
                 0.0000
    Dipole Moment (Debye)
         X       0.1978      Y      -1.4657      Z      -3.1061
       Tot       3.4402
    Quadrupole Moments (Debye-Ang)
        XX    -135.8039     XY       4.0819     YY    -160.5893
        XZ       1.0298     YZ       2.7579     ZZ    -158.7074

 Total job time:  201.11s(wall), 9593.47s(cpu)
        *  Thank you very much for using Q-Chem.  Have a nice day.  *
