 Q-Chem 5.0, Q-Chem, Inc., Pleasanton, CA (2017)
 Q-Chem 5.0.1 for Intel X86 EM64T Linux

User input:
--------------------------------------------------------------
$molecule
0  1
O -5.1450623615 0.9330411363 1.3200330691
C -5.0908751823 0.767919104 0.0819001205
C -4.4806758592 -0.4534903058 -0.693274461
C -2.9655107037 -0.2785457492 -1.1505862747
C -2.3579952536 1.0372160183 -0.4738102981
O -1.0106827637 1.176978595 -0.0001171396
C -0.4756957668 0.0785531334 0.8368580798
C 0.7586303205 0.6776562559 1.6033727019
O 1.9693877624 0.1247843014 0.961499495
C 3.1393116193 0.3755135158 1.7793858694
C 4.3276841045 0.8107744944 0.8456963116
C 4.8527891155 -0.3224335533 -0.1321020415
C 4.0524011967 -1.6677413008 -0.025247979
O 3.7382282827 -2.4419179386 -0.9529706175
O -5.7509175831 1.605672241 -0.8766692178
O 3.7662569682 -1.9134284031 1.3582032878
O 3.1254096746 0.4254356264 3.0277142779
C 2.87872288 -3.0886674584 1.5050084799
C 3.8667091164 1.9097416265 -0.2078493045
C 5.1614355339 2.6033391796 -0.7918735925
C 5.7004039653 1.4800331437 -1.754658213
C 4.6151312386 0.3533716113 -1.5449732353
O 3.3581041955 1.1121606901 -1.3455690592
H 5.1405236471 1.1818225979 1.4944705142
H 5.9229160618 -0.5373863532 0.0459912766
H 3.0847568659 2.6023584516 0.1590498234
H 4.8909538824 3.5158188186 -1.3465876214
H 5.8813361777 2.8695116956 -0.0014696375
H 5.708568665 1.8166899279 -2.8035303012
H 6.712440614 1.1379340298 -1.4850534355
H 4.5027969578 -0.3734984032 -2.3731754557
O -3.0382459391 2.0919627893 -0.4876758801
C -6.3033185727 2.8001054064 -0.2002413983
C -4.3936262935 -1.7863080658 0.1690661755
C -4.4867166155 -2.9874607141 -0.8443197872
C -3.1132599241 -2.8238906438 -1.5935615114
C -2.4066026796 -1.6959847241 -0.7318265738
O -2.9826924415 -1.8567029694 0.625894076
H -5.1167545919 -0.6100975333 -1.5825529444
H -2.8981583131 -0.1170195235 -2.2433129877
H -5.4956384081 3.4215042986 0.2375131863
H -5.0810040961 -1.8207150144 1.0363502655
H -4.5389797407 -3.946544952 -0.3043199856
H -5.356377649 -2.9076648746 -1.5156275057
H -2.5202551054 -3.7514858904 -1.5683040076
H -3.2388662793 -2.5161656348 -2.6440965826
H -1.3086329856 -1.7937664121 -0.7180042241
H -7.01394278 2.5224582477 0.6052901294
H -6.8325916571 3.3776999239 -0.9801854202
H 2.7665325089 -3.2533655467 2.592372514
H 3.3155618892 -3.9903784109 1.0299952758
H 1.8839695656 -2.8934953917 1.0545696605
H 0.7364617022 1.7872646535 1.5109875231
H 0.7242082705 0.4131302135 2.6831595557
H -0.087270731 -0.7587217038 0.2191429234
H -1.2499087072 -0.3173555874 1.529271528
$end

$rem
JOBTYPE                   OPT
METHOD                    B3LYP
DFT_D                     d3_op
BASIS                     STO-3G
GEOM_OPT_MAX_CYCLES       100
GEOM_OPT_TOL_GRADIENT     300
GEOM_OPT_TOL_DISPLACEMENT 1200
GEOM_OPT_TOL_ENERGY       100
SYMMETRY                  False
THRESH                    12
SCF_CONVERGENCE           8
MAX_SUB_FILE_NUM          128
MEM_STATIC                400
MEM_TOTAL                 4000
$end
--------------------------------------------------------------

   16   -1510.2491041239      5.04E-09 Convergence criterion met
 Total energy in the final basis set = -1510.24910412
   14   -1510.2532213223      4.06E-09 Convergence criterion met
 Total energy in the final basis set = -1510.25322132
   13   -1510.2570623376      7.71E-09 Convergence criterion met
 Total energy in the final basis set = -1510.25706234
   14   -1510.2600964183      3.01E-09 Convergence criterion met
 Total energy in the final basis set = -1510.26009642
   14   -1510.2622367465      2.10E-09 Convergence criterion met
 Total energy in the final basis set = -1510.26223675
   14   -1510.2640144421      2.53E-09 Convergence criterion met
 Total energy in the final basis set = -1510.26401444
   14   -1510.2658412359      2.05E-09 Convergence criterion met
 Total energy in the final basis set = -1510.26584124
   14   -1510.2675033729      4.01E-09 Convergence criterion met
   13   -1510.2876748168      6.88E-09 Convergence criterion met
 Total energy in the final basis set = -1510.28767482
   13   -1510.2885217587      3.16E-09 Convergence criterion met
 Total energy in the final basis set = -1510.28852176
   12   -1510.2885318708      6.31E-09 Convergence criterion met
 Total energy in the final basis set = -1510.28853187
   10   -1510.2885696333      8.34E-09 Convergence criterion met
 Total energy in the final basis set = -1510.28856963
   10   -1510.2885718405      7.91E-09 Convergence criterion met
 Total energy in the final basis set = -1510.28857184
    9   -1510.2885737272      7.53E-09 Convergence criterion met
 Total energy in the final basis set = -1510.28857373

             Standard Nuclear Orientation (Angstroms)
    I     Atom           X                Y                Z
 ----------------------------------------------------------------
    1      O      -2.0639243801    -0.1570578907     1.8335459432
    2      C      -3.1001814974    -0.1086097574     1.1289464106
    3      C      -3.5713077900    -1.1228383249     0.0257041597
    4      C      -3.5560800448    -0.5070778446    -1.4434846573
    5      C      -3.3751146720     1.0702118222    -1.5124653313
    6      O      -2.2529270984     1.7371729611    -0.9256726511
    7      C      -0.9620248531     1.0017458876    -0.9042654284
    8      C      -0.1587176703     1.6273496651     0.2833775753
    9      O       1.2694880844     1.2969814113     0.0683407752
   10      C       2.0314786307     1.5980973793     1.2436397243
   11      C       3.5222311866     1.2179890883     0.9609192853
   12      C       3.7031564228    -0.2397201100     0.3627832388
   13      C       2.3560473549    -1.0283799000     0.1876238645
   14      O       1.9199778947    -1.5535765330    -0.8596750035
   15      O      -4.0795705240     0.9212122006     1.2104457377
   16      O       1.7236460498    -1.1138481760     1.4706442754
   17      O       1.5558632328     2.1063362033     2.2812926759
   18      C       0.4466296492    -1.8595263756     1.3661243033
   19      C       4.1327553834     2.0920589391    -0.2230023342
   20      C       5.7048249392     1.9299621745    -0.2002147397
   21      C       5.8706582142     0.4837217685    -0.8007956170
   22      C       4.3636231772     0.0805140354    -1.0392648992
   23      O       3.7233896566     1.3563452179    -1.4385912513
   24      H       4.0886133596     1.3491074449     1.8994012811
   25      H       4.3739129029    -0.8414037481     1.0034046489
   26      H       3.7673472184     3.1368788560    -0.2589688229
   27      H       6.1790548424     2.6908776579    -0.8402965038
   28      H       6.1150564239     2.0189059009     0.8183284525
   29      H       6.4216126864     0.5044274360    -1.7544917496
   30      H       6.3822830949    -0.2074755658    -0.1121169839
   31      H       4.1821424885    -0.6972059134    -1.8063340841
   32      O      -4.2897795990     1.7942775896    -1.9697515173
   33      C      -3.6218015193     2.0051662771     2.1124572949
   34      C      -2.5705371158    -2.3324222893    -0.1429509104
   35      C      -3.2530750394    -3.4525555338    -1.0166220032
   36      C      -3.1617687971    -2.8259026525    -2.4587318496
   37      C      -2.4787096755    -1.4415224774    -2.1490154831
   38      O      -1.5314521372    -1.7812951614    -1.0537545663
   39      H      -4.5892624033    -1.4644396521     0.2867066289
   40      H      -4.5409957499    -0.6704558990    -1.9153542016
   41      H      -2.8001375807     2.5795566286     1.6382219182
   42      H      -2.1112439442    -2.6790890159     0.8013463515
   43      H      -2.6828040565    -4.3924573260    -0.9483172535
   44      H      -4.2909860147    -3.6453785702    -0.7012831477
   45      H      -2.5193500316    -3.4299648563    -3.1193051328
   46      H      -4.1477476851    -2.7051059782    -2.9350649715
   47      H      -1.9359342160    -0.9792896461    -2.9960114032
   48      H      -3.2710677049     1.6060290959     3.0851780363
   49      H      -4.4953351500     2.6648320359     2.2648736261
   50      H      -0.4018169458    -1.1984046832     1.6532948603
   51      H       0.4915751163    -2.7294565269     2.0499201351
   52      H       0.3117319516    -2.1999916755     0.3193763136
   53      H      -0.3033094728     2.7308089541     0.2922146615
   54      H      -0.5273873276     1.2175017540     1.2494413685
   55      H      -0.4186098203     1.1976751607    -1.8552191346
   56      H      -1.0833380297    -0.1063881482    -0.7806508608
 ----------------------------------------------------------------

    9   -1510.2885734501      4.02E-09 Convergence criterion met
 Total energy in the final basis set = -1510.28857345
 Final energy is   -1510.28857345012
 **  OPTIMIZATION CONVERGED  **

                    Orbital Energies (a.u.)
 --------------------------------------------------------------

 Alpha MOs
 -- Occupied --
-18.952 -18.925 -18.922 -18.921 -18.916 -18.896 -18.882 -18.872
-18.866 -18.863 -10.119 -10.100 -10.091 -10.089 -10.078 -10.077
-10.070 -10.057 -10.056 -10.054 -10.052 -10.048 -10.046 -10.035
-10.034 -10.031 -10.031 -10.030 -10.016 -10.015  -1.029  -1.006
 -1.001  -0.994  -0.993  -0.964  -0.953  -0.933  -0.926  -0.923
 -0.778  -0.758  -0.736  -0.721  -0.719  -0.702  -0.691  -0.672
 -0.645  -0.609  -0.598  -0.574  -0.564  -0.552  -0.539  -0.532
 -0.524  -0.507  -0.492  -0.476  -0.472  -0.456  -0.451  -0.449
 -0.436  -0.429  -0.425  -0.419  -0.417  -0.409  -0.403  -0.399
 -0.392  -0.381  -0.369  -0.366  -0.364  -0.360  -0.354  -0.352
 -0.347  -0.341  -0.334  -0.333  -0.326  -0.325  -0.322  -0.320
 -0.313  -0.307  -0.302  -0.299  -0.294  -0.287  -0.285  -0.282
 -0.268  -0.265  -0.257  -0.242  -0.234  -0.233  -0.229  -0.191
 -0.177  -0.176  -0.166  -0.158  -0.156  -0.150  -0.146  -0.141
 -0.138

          Ground-State Mulliken Net Atomic Charges

     Atom                 Charge (a.u.)
  ----------------------------------------
      1 O                    -0.213238
      2 C                     0.215999
      3 C                    -0.081469
      4 C                    -0.085850
      5 C                     0.206491
      6 O                    -0.182320
      7 C                    -0.072146
      8 C                    -0.052197
      9 O                    -0.171468
     10 C                     0.213338
     11 C                    -0.078871
     12 C                    -0.077964
     13 C                     0.216315
     14 O                    -0.217092
     15 O                    -0.162746
     16 O                    -0.178175
     17 O                    -0.213760
     18 C                    -0.155044
     19 C                     0.025784
     20 C                    -0.143865
     21 C                    -0.144181
     22 C                     0.024394
     23 O                    -0.187026
     24 H                     0.084346
     25 H                     0.082986
     26 H                     0.081687
     27 H                     0.077103
     28 H                     0.073328
     29 H                     0.077021
     30 H                     0.072530
     31 H                     0.089361
     32 O                    -0.200098
     33 C                    -0.128614
     34 C                     0.024085
     35 C                    -0.142947
     36 C                    -0.141722
     37 C                     0.023377
     38 O                    -0.180909
     39 H                     0.091415
     40 H                     0.090493
     41 H                     0.097544
     42 H                     0.092975
     43 H                     0.082791
     44 H                     0.077531
     45 H                     0.083644
     46 H                     0.078982
     47 H                     0.091324
     48 H                     0.094629
     49 H                     0.096177
     50 H                     0.100243
     51 H                     0.073220
     52 H                     0.100371
     53 H                     0.082730
     54 H                     0.096680
     55 H                     0.081358
     56 H                     0.111452
  ----------------------------------------
  Sum of atomic charges =     0.000000

                    Cartesian Multipole Moments
 -----------------------------------------------------------------
    Charge (ESU x 10^10)
                 0.0000
    Dipole Moment (Debye)
         X      -0.5901      Y      -2.9091      Z       0.6349
       Tot       3.0355
    Quadrupole Moments (Debye-Ang)
        XX    -145.9788     XY      13.0802     YY    -157.1143
        XZ      -2.8348     YZ       4.4207     ZZ    -164.4767

 Total job time:  160.09s(wall), 7609.85s(cpu)
        *  Thank you very much for using Q-Chem.  Have a nice day.  *
