 Q-Chem 5.0, Q-Chem, Inc., Pleasanton, CA (2017)
 Q-Chem 5.0.1 for Intel X86 EM64T Linux

User input:
--------------------------------------------------------------
$molecule
0  1
O -3.94934 -3.66094 2.70899
C -3.26408 -4.56952 2.26188
C -3.36658 -6.02376 2.66595
C -2.42176 -6.51288 3.77588
C -1.60421 -5.45342 4.48103
O -1.48324 -5.7656 5.80516
C -2.72507 -6.13928 6.41136
C -2.62698 -6.01768 7.9285
O -2.5341 -7.32358 8.51916
C -2.7155 -7.3703 9.86231
C -1.74291 -8.29447 10.55559
C -1.91651 -9.78379 10.22386
C -2.76877 -10.09544 9.01009
O -2.5541 -10.98893 8.20378
O -2.26814 -4.26116 1.3879
O -4.02502 -9.57104 9.02088
O -3.43712 -6.59511 10.47617
C -4.98273 -9.80813 8.05627
C -0.26916 -8.07883 10.16021
C 0.63861 -8.58341 11.27974
C 0.42538 -10.07974 11.16289
C -0.44974 -10.13668 9.9039
O -0.03378 -9.02538 9.1461
H -1.85172 -8.11395 11.6499
H -2.34697 -10.35479 11.07558
H -0.03116 -7.02143 9.9115
H 1.68365 -8.34774 10.97484
H 0.44813 -8.15523 12.28731
H 1.41308 -10.56083 10.98716
H -0.08449 -10.55628 12.02817
H -0.34528 -11.12867 9.41256
O -0.82968 -4.69532 3.9178
C -1.99951 -2.98755 0.93211
C -4.72013 -6.65158 3.08066
C -4.8482 -7.99216 2.37364
C -3.67614 -8.72235 3.01335
C -3.31595 -7.74304 4.1668
O -4.53688 -7.0916 4.4096
H -3.07117 -6.50967 1.70298
H -1.57008 -7.00671 3.25404
H -1.73797 -2.32357 1.7836
H -5.60104 -5.99656 2.90991
H -5.80612 -8.43992 2.72499
H -4.83827 -7.98129 1.26229
H -4.0468 -9.70713 3.37529
H -2.79265 -8.86889 2.35479
H -2.85547 -8.42073 4.91559
H -2.88204 -2.57976 0.39427
H -1.14025 -3.02565 0.23165
H -5.90484 -9.24856 8.31487
H -5.22293 -10.89179 8.01056
H -4.61942 -9.45999 7.06533
H -1.83686 -5.31334 8.2705
H -3.60861 -5.59385 8.24793
H -3.09914 -7.14091 6.3585
H -3.49547 -5.39163 6.09892
$end

$opt
CONSTRAINT
tors           1           2           3           4     -94.140
tors           3           4           5           6    +143.365
tors           4           5           6           7     -47.162
tors           5           6           7           8    -161.053
tors           6           7           8           9    -105.642
tors           7           8           9          10    -167.086
tors           8           9          10          11    -138.145
tors           9          10          11          12     -66.753
tors          11          12          13          14    +142.105
ENDCONSTRAINT
$end

$rem
JOBTYPE                   OPT
METHOD                    B3LYP
DFT_D                     d3_op
BASIS                     STO-3G
GEOM_OPT_MAX_CYCLES       100
GEOM_OPT_TOL_GRADIENT     300
GEOM_OPT_TOL_DISPLACEMENT 1200
GEOM_OPT_TOL_ENERGY       100
SYMMETRY                  False
THRESH                    12
SCF_CONVERGENCE           8
MAX_SUB_FILE_NUM          128
MEM_STATIC                400
MEM_TOTAL                 4000
$end
--------------------------------------------------------------

   16   -1510.0678237199      2.71E-09 Convergence criterion met
 Total energy in the final basis set = -1510.06782372
   14   -1510.1452169825      4.54E-09 Convergence criterion met
 Total energy in the final basis set = -1510.14521698
   14   -1510.1894743497      2.45E-09 Convergence criterion met
 Total energy in the final basis set = -1510.18947435
   14   -1510.2168172820      3.19E-09 Convergence criterion met
 Total energy in the final basis set = -1510.21681728
   13   -1510.2307259435      9.61E-09 Convergence criterion met
 Total energy in the final basis set = -1510.23072594
   13   -1510.2387432291      6.48E-09 Convergence criterion met
 Total energy in the final basis set = -1510.23874323
   13   -1510.2437326613      5.60E-09 Convergence criterion met
 Total energy in the final basis set = -1510.24373266
   13   -1510.2466480837      4.14E-09 Convergence criterion met
   11   -1510.2488500170      9.96E-09 Convergence criterion met
 Total energy in the final basis set = -1510.24885002
   11   -1510.2489584481      9.83E-09 Convergence criterion met
 Total energy in the final basis set = -1510.24895845
   11   -1510.2489977494      5.50E-09 Convergence criterion met
 Total energy in the final basis set = -1510.24899775
   10   -1510.2490172014      8.74E-09 Convergence criterion met
 Total energy in the final basis set = -1510.24901720
    9   -1510.2490255308      7.25E-09 Convergence criterion met
 Total energy in the final basis set = -1510.24902553
    9   -1510.2490291622      6.97E-09 Convergence criterion met
 Total energy in the final basis set = -1510.24902916

             Standard Nuclear Orientation (Angstroms)
    I     Atom           X                Y                Z
 ----------------------------------------------------------------
    1      O      -5.1450623615     0.9330411363     1.3200330691
    2      C      -5.0908751823     0.7679191040     0.0819001205
    3      C      -4.4806758592    -0.4534903058    -0.6932744610
    4      C      -2.9655107037    -0.2785457492    -1.1505862747
    5      C      -2.3579952536     1.0372160183    -0.4738102981
    6      O      -1.0106827637     1.1769785950    -0.0001171396
    7      C      -0.4756957668     0.0785531334     0.8368580798
    8      C       0.7586303205     0.6776562559     1.6033727019
    9      O       1.9693877624     0.1247843014     0.9614994950
   10      C       3.1393116193     0.3755135158     1.7793858694
   11      C       4.3276841045     0.8107744944     0.8456963116
   12      C       4.8527891155    -0.3224335533    -0.1321020415
   13      C       4.0524011967    -1.6677413008    -0.0252479790
   14      O       3.7382282827    -2.4419179386    -0.9529706175
   15      O      -5.7509175831     1.6056722410    -0.8766692178
   16      O       3.7662569682    -1.9134284031     1.3582032878
   17      O       3.1254096746     0.4254356264     3.0277142779
   18      C       2.8787228800    -3.0886674584     1.5050084799
   19      C       3.8667091164     1.9097416265    -0.2078493045
   20      C       5.1614355339     2.6033391796    -0.7918735925
   21      C       5.7004039653     1.4800331437    -1.7546582130
   22      C       4.6151312386     0.3533716113    -1.5449732353
   23      O       3.3581041955     1.1121606901    -1.3455690592
   24      H       5.1405236471     1.1818225979     1.4944705142
   25      H       5.9229160618    -0.5373863532     0.0459912766
   26      H       3.0847568659     2.6023584516     0.1590498234
   27      H       4.8909538824     3.5158188186    -1.3465876214
   28      H       5.8813361777     2.8695116956    -0.0014696375
   29      H       5.7085686650     1.8166899279    -2.8035303012
   30      H       6.7124406140     1.1379340298    -1.4850534355
   31      H       4.5027969578    -0.3734984032    -2.3731754557
   32      O      -3.0382459391     2.0919627893    -0.4876758801
   33      C      -6.3033185727     2.8001054064    -0.2002413983
   34      C      -4.3936262935    -1.7863080658     0.1690661755
   35      C      -4.4867166155    -2.9874607141    -0.8443197872
   36      C      -3.1132599241    -2.8238906438    -1.5935615114
   37      C      -2.4066026796    -1.6959847241    -0.7318265738
   38      O      -2.9826924415    -1.8567029694     0.6258940760
   39      H      -5.1167545919    -0.6100975333    -1.5825529444
   40      H      -2.8981583131    -0.1170195235    -2.2433129877
   41      H      -5.4956384081     3.4215042986     0.2375131863
   42      H      -5.0810040961    -1.8207150144     1.0363502655
   43      H      -4.5389797407    -3.9465449520    -0.3043199856
   44      H      -5.3563776490    -2.9076648746    -1.5156275057
   45      H      -2.5202551054    -3.7514858904    -1.5683040076
   46      H      -3.2388662793    -2.5161656348    -2.6440965826
   47      H      -1.3086329856    -1.7937664121    -0.7180042241
   48      H      -7.0139427800     2.5224582477     0.6052901294
   49      H      -6.8325916571     3.3776999239    -0.9801854202
   50      H       2.7665325089    -3.2533655467     2.5923725140
   51      H       3.3155618892    -3.9903784109     1.0299952758
   52      H       1.8839695656    -2.8934953917     1.0545696605
   53      H       0.7364617022     1.7872646535     1.5109875231
   54      H       0.7242082705     0.4131302135     2.6831595557
   55      H      -0.0872707310    -0.7587217038     0.2191429234
   56      H      -1.2499087072    -0.3173555874     1.5292715280
 ----------------------------------------------------------------

    9   -1510.2490284703      7.12E-09 Convergence criterion met
 Total energy in the final basis set = -1510.24902847
 Final energy is   -1510.24902847030
 **  OPTIMIZATION CONVERGED  **

                    Orbital Energies (a.u.)
 --------------------------------------------------------------

 Alpha MOs
 -- Occupied --
-18.945 -18.927 -18.922 -18.909 -18.891 -18.888 -18.884 -18.883
-18.873 -18.861 -10.106 -10.104 -10.098 -10.091 -10.075 -10.070
-10.069 -10.064 -10.061 -10.060 -10.059 -10.053 -10.042 -10.040
-10.035 -10.033 -10.024 -10.022 -10.021 -10.020  -1.019  -1.009
 -1.000  -0.997  -0.974  -0.970  -0.943  -0.939  -0.928  -0.925
 -0.764  -0.764  -0.726  -0.722  -0.711  -0.707  -0.699  -0.666
 -0.654  -0.607  -0.597  -0.585  -0.550  -0.546  -0.539  -0.537
 -0.518  -0.513  -0.487  -0.485  -0.469  -0.456  -0.453  -0.442
 -0.434  -0.432  -0.420  -0.417  -0.410  -0.407  -0.402  -0.401
 -0.394  -0.386  -0.379  -0.366  -0.362  -0.357  -0.353  -0.351
 -0.342  -0.339  -0.332  -0.331  -0.331  -0.326  -0.319  -0.313
 -0.311  -0.310  -0.307  -0.300  -0.298  -0.292  -0.278  -0.276
 -0.275  -0.257  -0.246  -0.241  -0.237  -0.234  -0.233  -0.183
 -0.172  -0.166  -0.162  -0.161  -0.153  -0.148  -0.147  -0.143
 -0.142

          Ground-State Mulliken Net Atomic Charges

     Atom                 Charge (a.u.)
  ----------------------------------------
      1 O                    -0.220388
      2 C                     0.211417
      3 C                    -0.082131
      4 C                    -0.078403
      5 C                     0.212984
      6 O                    -0.174791
      7 C                    -0.045003
      8 C                    -0.047092
      9 O                    -0.189290
     10 C                     0.217475
     11 C                    -0.079495
     12 C                    -0.078518
     13 C                     0.216648
     14 O                    -0.209054
     15 O                    -0.169519
     16 O                    -0.165634
     17 O                    -0.211095
     18 C                    -0.126402
     19 C                     0.026575
     20 C                    -0.143795
     21 C                    -0.144058
     22 C                     0.024131
     23 O                    -0.186118
     24 H                     0.083755
     25 H                     0.085887
     26 H                     0.082693
     27 H                     0.078468
     28 H                     0.073784
     29 H                     0.078470
     30 H                     0.073165
     31 H                     0.089479
     32 O                    -0.193745
     33 C                    -0.127727
     34 C                     0.023128
     35 C                    -0.142032
     36 C                    -0.144695
     37 C                     0.018676
     38 O                    -0.195319
     39 H                     0.085061
     40 H                     0.088466
     41 H                     0.093119
     42 H                     0.088371
     43 H                     0.078029
     44 H                     0.075091
     45 H                     0.078192
     46 H                     0.074779
     47 H                     0.081521
     48 H                     0.086280
     49 H                     0.087531
     50 H                     0.095088
     51 H                     0.092428
     52 H                     0.089620
     53 H                     0.088859
     54 H                     0.091406
     55 H                     0.086057
     56 H                     0.097666
  ----------------------------------------
  Sum of atomic charges =    -0.000000

                    Cartesian Multipole Moments
 -----------------------------------------------------------------
    Charge (ESU x 10^10)
                -0.0000
    Dipole Moment (Debye)
         X       1.0346      Y      -1.5834      Z      -1.4063
       Tot       2.3569
    Quadrupole Moments (Debye-Ang)
        XX    -143.1726     XY       8.2377     YY    -154.8496
        XZ       3.6912     YZ      -0.8079     ZZ    -167.2893

 Total job time:  52.71s(wall), 2508.07s(cpu)
        *  Thank you very much for using Q-Chem.  Have a nice day.  *
