 Q-Chem 5.0, Q-Chem, Inc., Pleasanton, CA (2017)
 Q-Chem 5.0.1 for Intel X86 EM64T Linux

User input:
--------------------------------------------------------------
$molecule
0  1
O 3.1956504774 -2.5583018171 -0.5534137176
C 4.0853590233 -1.8159767979 -0.0870724168
C 4.2568625144 -0.2716219003 -0.3249465977
C 2.9610405125 0.627057144 -0.1630482164
C 1.8025231266 0.0229647343 0.7200023964
O 1.0202782212 1.12483746 1.2181490832
C -0.3311401662 0.6655085818 1.6156795301
C -1.3857154293 1.2945483476 0.6333121746
O -2.6254007341 1.4466380457 1.40961106
C -3.8336538715 1.7403780719 0.6797163322
C -4.5521574232 0.6173972797 -0.1982568824
C -3.8388301176 -0.294199892 -1.2850112702
C -2.654656965 0.3118317272 -2.1047592158
O -1.4568689712 -0.0575419333 -2.1111319773
O 5.1484033046 -2.2869382369 0.7524915638
O -3.1639448724 1.380982037 -2.9017257375
O -4.460679123 2.7841856992 0.9741219057
C -2.070230326 1.9903236415 -3.6958528494
C -4.8513284694 -0.5342008715 0.8764917859
C -5.8109842901 -1.6426352493 0.2793216537
C -4.8035556543 -2.5195550236 -0.5552999587
C -3.5152787633 -1.6179594662 -0.4661109809
O -3.5252324295 -1.1941743382 0.9528099133
H -5.4657850599 1.0830112773 -0.6075090626
H -4.6116150746 -0.5237850721 -2.0426390424
H -5.1494006604 -0.1538275044 1.8730322074
H -6.2844101947 -2.2204966606 1.0885346126
H -6.6033143084 -1.2006424818 -0.346234455
H -4.623153142 -3.4932972152 -0.0718978812
H -5.1360883218 -2.6909439657 -1.5916085084
H -2.5526259263 -2.0989587832 -0.7279786479
O 1.5311969561 -1.1716177454 0.9594670483
C 5.0038663234 -3.7437589704 0.973385867
C 5.2860814485 0.4852815088 0.6221630446
C 5.8801341057 1.6882447138 -0.2075913709
C 4.6194157364 2.6270649113 -0.2993188673
C 3.5886586316 1.8592357602 0.6203178002
O 4.4361070755 1.1700061617 1.6236184722
H 4.6016456434 -0.1799795446 -1.3731606184
H 2.5329938428 0.9126608324 -1.1416522485
H 5.0717482412 -4.3108884261 0.0223805712
H 6.0203865103 -0.1796885029 1.1149179893
H 6.6996402809 2.1710589945 0.3488579045
H 6.2567427378 1.3757717703 -1.194665957
H 4.8272801785 3.6298758772 0.1057753684
H 4.2466888373 2.7348439488 -1.3308349992
H 2.8287598286 2.4909819146 1.1184151386
H 4.0368447542 -3.9875053777 1.4587856325
H 5.8374253384 -4.0357756024 1.638345348
H -2.5275417081 2.8336198816 -4.2451090065
H -1.6395000943 1.2658394855 -4.4168282878
H -1.2560210057 2.3672444634 -3.0440357111
H -1.4810233726 0.6409440724 -0.2552762175
H -1.0178336504 2.2928220064 0.2995168466
H -0.5336612232 1.0286607188 2.6456715166
H -0.3693832775 -0.444013112 1.6038979221
$end

$rem
JOBTYPE                   OPT
METHOD                    B3LYP
DFT_D                     d3_op
BASIS                     STO-3G
GEOM_OPT_MAX_CYCLES       100
GEOM_OPT_TOL_GRADIENT     300
GEOM_OPT_TOL_DISPLACEMENT 1200
GEOM_OPT_TOL_ENERGY       100
SYMMETRY                  False
THRESH                    12
SCF_CONVERGENCE           8
MAX_SUB_FILE_NUM          128
MEM_STATIC                400
MEM_TOTAL                 4000
$end
--------------------------------------------------------------

   16   -1510.2395724323      6.05E-09 Convergence criterion met
 Total energy in the final basis set = -1510.23957243
   14   -1510.2434020364      7.48E-09 Convergence criterion met
 Total energy in the final basis set = -1510.24340204
   14   -1510.2475617705      5.49E-09 Convergence criterion met
 Total energy in the final basis set = -1510.24756177
   13   -1510.2507474287      4.74E-09 Convergence criterion met
 Total energy in the final basis set = -1510.25074743
   13   -1510.2539328636      6.77E-09 Convergence criterion met
 Total energy in the final basis set = -1510.25393286
   14   -1510.2575462330      3.47E-09 Convergence criterion met
 Total energy in the final basis set = -1510.25754623
   14   -1510.2564173918      4.08E-09 Convergence criterion met
 Total energy in the final basis set = -1510.25641739
   14   -1510.2622084386      2.90E-09 Convergence criterion met
   12   -1510.2904210938      5.68E-09 Convergence criterion met
 Total energy in the final basis set = -1510.29042109
   12   -1510.2904444762      4.33E-09 Convergence criterion met
 Total energy in the final basis set = -1510.29044448
   11   -1510.2904581160      8.26E-09 Convergence criterion met
 Total energy in the final basis set = -1510.29045812
   12   -1510.2904645063      2.54E-09 Convergence criterion met
 Total energy in the final basis set = -1510.29046451
   11   -1510.2904708861      4.45E-09 Convergence criterion met
 Total energy in the final basis set = -1510.29047089
   11   -1510.2904698844      7.43E-09 Convergence criterion met
 Total energy in the final basis set = -1510.29046988

             Standard Nuclear Orientation (Angstroms)
    I     Atom           X                Y                Z
 ----------------------------------------------------------------
    1      O       1.2071510748     0.1778408138    -1.5928440813
    2      C       2.2532960642    -0.4394851557    -1.2877024534
    3      C       3.5433057516     0.2270872340    -0.6891675581
    4      C       3.1727900511     1.3303642613     0.3930389801
    5      C       1.6363639432     1.3920385389     0.7031391352
    6      O       1.0609072762     2.5081674961     0.0239945737
    7      C      -0.3826817067     2.6209204537     0.3436474372
    8      C      -1.3264669112     1.9086739372    -0.7033933127
    9      O      -2.7223793574     2.0914039359    -0.2326891080
   10      C      -3.0493975879     1.2680887899     0.9105408164
   11      C      -2.8369024175    -0.3020354050     0.8258259465
   12      C      -3.5021365755    -0.9380757113    -0.4734573694
   13      C      -3.9424928843     0.1351927074    -1.5340521660
   14      O      -3.4180352553     0.3641161799    -2.6443498000
   15      O       2.4200515387    -1.8462970864    -1.4104520209
   16      O      -5.1026754392     0.7981048040    -1.0207150425
   17      O      -3.6743749329     1.7945972071     1.8579887867
   18      C      -5.4740587762     1.9223926497    -1.9090739877
   19      C      -1.3627998987    -0.8979963640     0.7385832650
   20      C      -1.4314731631    -2.4095890441     1.1757836560
   21      C      -2.1322720310    -3.0718634684    -0.0714223204
   22      C      -2.3225801113    -1.8271666162    -1.0200673195
   23      O      -1.1224771314    -0.9986382861    -0.7269925771
   24      H      -3.3337127463    -0.6920836144     1.7315794354
   25      H      -4.3851353473    -1.5427069111    -0.1995944791
   26      H      -0.5451696581    -0.2900625760     1.1986465343
   27      H      -0.4154880417    -2.8090500154     1.3251939838
   28      H      -2.0043133401    -2.5461740282     2.1066924648
   29      H      -1.4840894327    -3.8254334166    -0.5461398317
   30      H      -3.0945229638    -3.5439442477     0.1830102750
   31      H      -2.3770403160    -2.0438445106    -2.1045253259
   32      O       1.0089082933     0.6353953925     1.4838063052
   33      C       1.1426979953    -2.4613519625    -1.8581285251
   34      C       4.4420007027    -0.7563983685     0.1694872076
   35      C       5.8567275094    -0.0865879743     0.3761796200
   36      C       5.5099704789     1.0353474563     1.4239187734
   37      C       3.9680464345     0.7777828283     1.6506845043
   38      O       3.8295883785    -0.6907646141     1.5168058040
   39      H       4.1174404668     0.6751517933    -1.5214874630
   40      H       3.5083407929     2.3343473108     0.0792415337
   41      H       1.0551017657    -2.4096483387    -2.9624670922
   42      H       4.4499036207    -1.7976903786    -0.2054521938
   43      H       6.5701533303    -0.8174925252     0.7890179092
   44      H       6.2682289726     0.3180280518    -0.5622121429
   45      H       6.0667216551     0.8979145760     2.3645054385
   46      H       5.7077091198     2.0496085875     1.0419268171
   47      H       3.5680277203     1.1139211863     2.6268047836
   48      H       0.2701233392    -1.9348314993    -1.3905132603
   49      H       1.1900383833    -3.5212178134    -1.5478731602
   50      H      -6.4016608322     2.3521152388    -1.4886157644
   51      H      -5.6561202346     1.5814087342    -2.9485957039
   52      H      -4.6763768873     2.6935758550    -1.9178856460
   53      H      -1.0694150740     0.8301935785    -0.8635585014
   54      H      -1.2747729991     2.4335291775    -1.6777728332
   55      H      -0.6096821526     3.7060398130     0.3642564625
   56      H      -0.5705027464     2.1879265094     1.3497169608
 ----------------------------------------------------------------

   10   -1510.2904692562      7.66E-09 Convergence criterion met
 Total energy in the final basis set = -1510.29046926
 Final energy is   -1510.29046925618
 **  OPTIMIZATION CONVERGED  **

                    Orbital Energies (a.u.)
 --------------------------------------------------------------

 Alpha MOs
 -- Occupied --
-18.939 -18.931 -18.929 -18.916 -18.913 -18.886 -18.882 -18.878
-18.872 -18.868 -10.106 -10.098 -10.097 -10.095 -10.069 -10.064
-10.060 -10.058 -10.057 -10.055 -10.048 -10.041 -10.039 -10.037
-10.037 -10.037 -10.027 -10.023 -10.021 -10.019  -1.016  -1.010
 -1.006  -0.997  -0.986  -0.969  -0.940  -0.933  -0.931  -0.931
 -0.768  -0.763  -0.726  -0.724  -0.709  -0.707  -0.691  -0.658
 -0.650  -0.609  -0.598  -0.581  -0.553  -0.546  -0.542  -0.536
 -0.514  -0.509  -0.482  -0.474  -0.467  -0.459  -0.450  -0.442
 -0.439  -0.432  -0.423  -0.411  -0.409  -0.405  -0.401  -0.398
 -0.387  -0.379  -0.373  -0.370  -0.364  -0.360  -0.350  -0.350
 -0.349  -0.342  -0.334  -0.330  -0.328  -0.325  -0.320  -0.314
 -0.310  -0.307  -0.303  -0.299  -0.290  -0.284  -0.283  -0.278
 -0.274  -0.256  -0.252  -0.250  -0.242  -0.234  -0.228  -0.185
 -0.176  -0.173  -0.164  -0.161  -0.154  -0.150  -0.148  -0.144
 -0.141

          Ground-State Mulliken Net Atomic Charges

     Atom                 Charge (a.u.)
  ----------------------------------------
      1 O                    -0.214763
      2 C                     0.209188
      3 C                    -0.078433
      4 C                    -0.078517
      5 C                     0.220117
      6 O                    -0.162839
      7 C                    -0.055020
      8 C                    -0.067435
      9 O                    -0.186169
     10 C                     0.208570
     11 C                    -0.086325
     12 C                    -0.081628
     13 C                     0.210728
     14 O                    -0.213502
     15 O                    -0.171147
     16 O                    -0.171566
     17 O                    -0.190836
     18 C                    -0.128042
     19 C                     0.007500
     20 C                    -0.143920
     21 C                    -0.144694
     22 C                     0.025551
     23 O                    -0.181926
     24 H                     0.087902
     25 H                     0.087945
     26 H                     0.115262
     27 H                     0.082916
     28 H                     0.077180
     29 H                     0.078651
     30 H                     0.076430
     31 H                     0.092517
     32 O                    -0.223530
     33 C                    -0.150181
     34 C                     0.022976
     35 C                    -0.143936
     36 C                    -0.144319
     37 C                     0.025692
     38 O                    -0.188382
     39 H                     0.084852
     40 H                     0.086778
     41 H                     0.076256
     42 H                     0.092974
     43 H                     0.077935
     44 H                     0.073187
     45 H                     0.078050
     46 H                     0.073546
     47 H                     0.084408
     48 H                     0.117854
     49 H                     0.077316
     50 H                     0.090493
     51 H                     0.087779
     52 H                     0.095031
     53 H                     0.116813
     54 H                     0.088301
     55 H                     0.088966
     56 H                     0.087447
  ----------------------------------------
  Sum of atomic charges =     0.000000

                    Cartesian Multipole Moments
 -----------------------------------------------------------------
    Charge (ESU x 10^10)
                 0.0000
    Dipole Moment (Debye)
         X       1.4426      Y      -1.2756      Z      -0.6417
       Tot       2.0298
    Quadrupole Moments (Debye-Ang)
        XX    -148.6873     XY      11.7955     YY    -154.2745
        XZ       3.2220     YZ       0.4871     ZZ    -165.7707

 Total job time:  265.77s(wall), 12677.99s(cpu)
        *  Thank you very much for using Q-Chem.  Have a nice day.  *
