 Q-Chem 5.0, Q-Chem, Inc., Pleasanton, CA (2017)
 Q-Chem 5.0.1 for Intel X86 EM64T Linux

User input:
--------------------------------------------------------------
$molecule
0  1
O -3.94934 -3.66094 2.70899
C -3.26408 -4.56952 2.26188
C -3.36658 -6.02376 2.66595
C -4.77372 -6.64113 2.71769
C -5.90468 -5.78727 2.1886
O -6.94156 -6.58356 1.79336
C -8.19317 -5.89116 1.73591
C -9.13669 -6.42082 2.81079
O -10.49839 -6.29625 2.37131
C -11.43968 -6.47931 3.33027
C -11.53047 -5.32051 4.29442
C -10.1916 -4.8781 4.90269
C -8.94755 -5.39765 4.2105
O -8.10783 -4.70805 3.65024
O -2.42119 -4.27549 1.23495
O -8.42711 -6.27596 5.16004
O -12.15316 -7.46878 3.3733
C -7.15951 -6.79655 5.23784
C -11.97598 -4.00477 3.6194
C -12.6167 -3.0911 4.66122
C -11.4027 -2.71176 5.48462
C -10.29034 -3.35917 4.64784
O -10.78234 -3.31875 3.33095
H -12.29094 -5.59119 5.06236
H -10.17111 -5.10336 5.99618
H -12.6691 -4.16186 2.76405
H -12.97352 -2.18812 4.1151
H -13.46253 -3.52517 5.23642
H -11.31422 -1.60273 5.48635
H -11.39607 -3.09806 6.5268
H -9.32555 -2.83534 4.82707
O -5.89873 -4.60439 1.90086
C -2.24624 -3.01521 0.70225
C -2.62999 -6.99419 1.72406
C -2.31471 -8.29974 2.45421
C -3.68661 -8.92833 2.50323
C -4.51186 -7.859 1.78236
O -3.62589 -7.36461 0.80813
H -2.91 -6.05279 3.68057
H -5.02339 -7.01071 3.72317
H -1.87041 -2.31905 1.48224
H -1.69159 -6.58247 1.29479
H -1.66329 -8.92338 1.80117
H -1.82231 -8.15342 3.43982
H -3.66946 -9.85099 1.88019
H -4.06661 -9.17212 3.51884
H -5.43182 -8.34204 1.39055
H -3.20656 -2.63683 0.29115
H -1.50227 -3.06768 -0.11885
H -7.07773 -7.40039 6.16442
H -6.41022 -5.97871 5.27851
H -6.99455 -7.48226 4.38673
H -8.98845 -7.46484 3.25459
H -8.97836 -7.45738 2.41927
H -8.61394 -6.21869 0.75416
H -8.18215 -4.80278 1.47437
$end

$opt
CONSTRAINT
tors           1           2           3           4     +47.368
tors           3           4           5           6    +155.771
tors           4           5           6           7    +158.976
tors           5           6           7           8    -112.667
tors           6           7           8           9    -150.182
tors           7           8           9          10    -167.318
tors           8           9          10          11     +73.272
tors           9          10          11          12     -50.772
tors          11          12          13          14    +116.488
ENDCONSTRAINT
$end

$rem
JOBTYPE                   OPT
METHOD                    B3LYP
DFT_D                     d3_op
BASIS                     STO-3G
GEOM_OPT_MAX_CYCLES       100
GEOM_OPT_TOL_GRADIENT     300
GEOM_OPT_TOL_DISPLACEMENT 1200
GEOM_OPT_TOL_ENERGY       100
SYMMETRY                  False
THRESH                    12
SCF_CONVERGENCE           8
MAX_SUB_FILE_NUM          128
MEM_STATIC                400
MEM_TOTAL                 4000
$end
--------------------------------------------------------------

   17   -1509.7666822935      3.90E-09 Convergence criterion met
 Total energy in the final basis set = -1509.76668229
   14   -1509.8678220903      6.56E-09 Convergence criterion met
 Total energy in the final basis set = -1509.86782209
   14   -1509.9368004076      6.82E-09 Convergence criterion met
 Total energy in the final basis set = -1509.93680041
   14   -1509.9848989732      7.26E-09 Convergence criterion met
 Total energy in the final basis set = -1509.98489897
   14   -1510.0181900991      6.49E-09 Convergence criterion met
 Total energy in the final basis set = -1510.01819010
   14   -1510.0428006885      6.30E-09 Convergence criterion met
 Total energy in the final basis set = -1510.04280069
   13   -1510.0628545100      7.34E-09 Convergence criterion met
 Total energy in the final basis set = -1510.06285451
   13   -1510.0804816520      6.34E-09 Convergence criterion met
   12   -1510.2393554840      4.29E-09 Convergence criterion met
 Total energy in the final basis set = -1510.23935548
   12   -1510.2394348720      3.71E-09 Convergence criterion met
 Total energy in the final basis set = -1510.23943487
   12   -1510.2394754670      2.85E-09 Convergence criterion met
 Total energy in the final basis set = -1510.23947547
   11   -1510.2394907931      8.21E-09 Convergence criterion met
 Total energy in the final basis set = -1510.23949079
   10   -1510.2394989764      8.13E-09 Convergence criterion met
 Total energy in the final basis set = -1510.23949898
   10   -1510.2395036590      6.42E-09 Convergence criterion met
 Total energy in the final basis set = -1510.23950366

             Standard Nuclear Orientation (Angstroms)
    I     Atom           X                Y                Z
 ----------------------------------------------------------------
    1      O       3.1956504774    -2.5583018171    -0.5534137176
    2      C       4.0853590233    -1.8159767979    -0.0870724168
    3      C       4.2568625144    -0.2716219003    -0.3249465977
    4      C       2.9610405125     0.6270571440    -0.1630482164
    5      C       1.8025231266     0.0229647343     0.7200023964
    6      O       1.0202782212     1.1248374600     1.2181490832
    7      C      -0.3311401662     0.6655085818     1.6156795301
    8      C      -1.3857154293     1.2945483476     0.6333121746
    9      O      -2.6254007341     1.4466380457     1.4096110600
   10      C      -3.8336538715     1.7403780719     0.6797163322
   11      C      -4.5521574232     0.6173972797    -0.1982568824
   12      C      -3.8388301176    -0.2941998920    -1.2850112702
   13      C      -2.6546569650     0.3118317272    -2.1047592158
   14      O      -1.4568689712    -0.0575419333    -2.1111319773
   15      O       5.1484033046    -2.2869382369     0.7524915638
   16      O      -3.1639448724     1.3809820370    -2.9017257375
   17      O      -4.4606791230     2.7841856992     0.9741219057
   18      C      -2.0702303260     1.9903236415    -3.6958528494
   19      C      -4.8513284694    -0.5342008715     0.8764917859
   20      C      -5.8109842901    -1.6426352493     0.2793216537
   21      C      -4.8035556543    -2.5195550236    -0.5552999587
   22      C      -3.5152787633    -1.6179594662    -0.4661109809
   23      O      -3.5252324295    -1.1941743382     0.9528099133
   24      H      -5.4657850599     1.0830112773    -0.6075090626
   25      H      -4.6116150746    -0.5237850721    -2.0426390424
   26      H      -5.1494006604    -0.1538275044     1.8730322074
   27      H      -6.2844101947    -2.2204966606     1.0885346126
   28      H      -6.6033143084    -1.2006424818    -0.3462344550
   29      H      -4.6231531420    -3.4932972152    -0.0718978812
   30      H      -5.1360883218    -2.6909439657    -1.5916085084
   31      H      -2.5526259263    -2.0989587832    -0.7279786479
   32      O       1.5311969561    -1.1716177454     0.9594670483
   33      C       5.0038663234    -3.7437589704     0.9733858670
   34      C       5.2860814485     0.4852815088     0.6221630446
   35      C       5.8801341057     1.6882447138    -0.2075913709
   36      C       4.6194157364     2.6270649113    -0.2993188673
   37      C       3.5886586316     1.8592357602     0.6203178002
   38      O       4.4361070755     1.1700061617     1.6236184722
   39      H       4.6016456434    -0.1799795446    -1.3731606184
   40      H       2.5329938428     0.9126608324    -1.1416522485
   41      H       5.0717482412    -4.3108884261     0.0223805712
   42      H       6.0203865103    -0.1796885029     1.1149179893
   43      H       6.6996402809     2.1710589945     0.3488579045
   44      H       6.2567427378     1.3757717703    -1.1946659570
   45      H       4.8272801785     3.6298758772     0.1057753684
   46      H       4.2466888373     2.7348439488    -1.3308349992
   47      H       2.8287598286     2.4909819146     1.1184151386
   48      H       4.0368447542    -3.9875053777     1.4587856325
   49      H       5.8374253384    -4.0357756024     1.6383453480
   50      H      -2.5275417081     2.8336198816    -4.2451090065
   51      H      -1.6395000943     1.2658394855    -4.4168282878
   52      H      -1.2560210057     2.3672444634    -3.0440357111
   53      H      -1.4810233726     0.6409440724    -0.2552762175
   54      H      -1.0178336504     2.2928220064     0.2995168466
   55      H      -0.5336612232     1.0286607188     2.6456715166
   56      H      -0.3693832775    -0.4440131120     1.6038979221
 ----------------------------------------------------------------

    9   -1510.2395036805      6.33E-09 Convergence criterion met
 Total energy in the final basis set = -1510.23950368
 Final energy is   -1510.23950368055
 **  OPTIMIZATION CONVERGED  **

                    Orbital Energies (a.u.)
 --------------------------------------------------------------

 Alpha MOs
 -- Occupied --
-18.952 -18.927 -18.922 -18.908 -18.891 -18.890 -18.885 -18.881
-18.877 -18.867 -10.116 -10.102 -10.096 -10.092 -10.076 -10.064
-10.063 -10.060 -10.058 -10.058 -10.054 -10.053 -10.046 -10.040
-10.037 -10.032 -10.024 -10.023 -10.017 -10.016  -1.027  -1.008
 -1.002  -1.000  -0.974  -0.965  -0.952  -0.936  -0.930  -0.925
 -0.767  -0.759  -0.726  -0.720  -0.711  -0.706  -0.689  -0.674
 -0.655  -0.609  -0.602  -0.574  -0.551  -0.540  -0.539  -0.534
 -0.521  -0.509  -0.489  -0.475  -0.468  -0.460  -0.446  -0.442
 -0.436  -0.430  -0.426  -0.419  -0.414  -0.409  -0.404  -0.402
 -0.389  -0.384  -0.381  -0.369  -0.365  -0.355  -0.353  -0.347
 -0.341  -0.338  -0.336  -0.331  -0.330  -0.325  -0.318  -0.317
 -0.310  -0.308  -0.305  -0.303  -0.293  -0.283  -0.277  -0.277
 -0.270  -0.265  -0.250  -0.240  -0.239  -0.229  -0.227  -0.193
 -0.173  -0.170  -0.168  -0.162  -0.155  -0.147  -0.145  -0.141
 -0.137

          Ground-State Mulliken Net Atomic Charges

     Atom                 Charge (a.u.)
  ----------------------------------------
      1 O                    -0.205903
      2 C                     0.210589
      3 C                    -0.081061
      4 C                    -0.075171
      5 C                     0.213914
      6 O                    -0.180017
      7 C                    -0.051479
      8 C                    -0.052353
      9 O                    -0.188634
     10 C                     0.211717
     11 C                    -0.080904
     12 C                    -0.084414
     13 C                     0.210918
     14 O                    -0.212911
     15 O                    -0.172287
     16 O                    -0.165628
     17 O                    -0.189517
     18 C                    -0.128305
     19 C                     0.023992
     20 C                    -0.145740
     21 C                    -0.141000
     22 C                     0.021696
     23 O                    -0.187815
     24 H                     0.088507
     25 H                     0.087730
     26 H                     0.085292
     27 H                     0.080074
     28 H                     0.074439
     29 H                     0.080217
     30 H                     0.073697
     31 H                     0.091584
     32 O                    -0.202658
     33 C                    -0.127970
     34 C                     0.021812
     35 C                    -0.142463
     36 C                    -0.145858
     37 C                     0.022175
     38 O                    -0.192487
     39 H                     0.081065
     40 H                     0.085770
     41 H                     0.086833
     42 H                     0.093385
     43 H                     0.077061
     44 H                     0.071854
     45 H                     0.077534
     46 H                     0.071596
     47 H                     0.092848
     48 H                     0.092884
     49 H                     0.088765
     50 H                     0.094807
     51 H                     0.091297
     52 H                     0.090743
     53 H                     0.090739
     54 H                     0.075516
     55 H                     0.090350
     56 H                     0.103175
  ----------------------------------------
  Sum of atomic charges =    -0.000000

                    Cartesian Multipole Moments
 -----------------------------------------------------------------
    Charge (ESU x 10^10)
                 0.0000
    Dipole Moment (Debye)
         X      -0.2237      Y      -0.3278      Z      -3.8965
       Tot       3.9167
    Quadrupole Moments (Debye-Ang)
        XX    -144.4091     XY       9.2139     YY    -160.5929
        XZ       2.5173     YZ      -8.7754     ZZ    -157.6811

 Total job time:  175.92s(wall), 8388.34s(cpu)
        *  Thank you very much for using Q-Chem.  Have a nice day.  *
