 Q-Chem 5.0, Q-Chem, Inc., Pleasanton, CA (2017)
 Q-Chem 5.0.1 for Intel X86 EM64T Linux

User input:
--------------------------------------------------------------
$molecule
0  1
O -3.94934 -3.66094 2.70899
C -3.26408 -4.56952 2.26188
C -3.36658 -6.02376 2.66595
C -2.27432 -6.57256 3.5985
C -1.30151 -5.56245 4.16542
O -0.69552 -6.07504 5.27693
C 0.45625 -5.32923 5.6849
C 1.33496 -6.17718 6.59866
O 0.98189 -5.94423 7.97123
C 1.98782 -6.10212 8.86696
C 1.49211 -6.29715 10.28007
C 1.20667 -4.99991 11.05077
C 1.11093 -3.74086 10.21272
O 0.27801 -2.85716 10.35373
O -2.30403 -4.27643 1.34467
O 2.19272 -3.46104 9.43666
O 3.1325 -6.40765 8.5531
C 2.32533 -2.33227 8.65516
C 0.13238 -7.0145 10.41518
C 0.03253 -7.67044 11.79098
C -0.09438 -6.44839 12.67864
C -0.18451 -5.34381 11.61806
O -0.80657 -5.97123 10.52143
H 2.26546 -6.90287 10.80702
H 1.98105 -4.80457 11.8249
H -0.05184 -7.76511 9.61574
H -0.93237 -8.22649 11.81154
H 0.85827 -8.36508 12.05636
H -1.04388 -6.53031 13.2528
H 0.7576 -6.27328 13.3709
H -0.70823 -4.4564 12.03575
O -1.1152 -4.42034 3.76534
C -2.05661 -3.01053 0.85617
C -4.62865 -6.27566 3.51993
C -5.02667 -7.7483 3.44976
C -3.93627 -8.36823 4.28975
C -3.18458 -7.1102 4.73746
O -4.186 -6.13266 4.84243
H -3.4729 -6.60517 1.72283
H -1.67527 -7.39992 3.15852
H -1.76567 -2.33013 1.68488
H -5.49575 -5.64475 3.22411
H -5.99514 -7.85835 3.98867
H -5.12869 -8.15909 2.42226
H -4.41022 -8.86471 5.16608
H -3.2746 -9.08695 3.75968
H -2.64454 -7.34223 5.67996
H -2.95985 -2.6147 0.34451
H -1.2239 -3.05923 0.12497
H 3.30063 -2.36814 8.12803
H 2.2938 -1.42009 9.28844
H 1.51181 -2.29524 7.89922
H 1.36641 -7.25472 6.32731
H 2.35436 -5.75552 6.42772
H 0.21657 -4.32647 6.10377
H 1.08145 -5.17733 4.77065
$end

$opt
CONSTRAINT
tors           1           2           3           4    -104.134
tors           3           4           5           6    +160.042
tors           4           5           6           7    +165.866
tors           5           6           7           8    -161.053
tors           6           7           8           9     -92.704
tors           7           8           9          10    -150.847
tors           8           9          10          11    -161.053
tors           9          10          11          12     -85.263
tors          11          12          13          14    +137.702
ENDCONSTRAINT
$end

$rem
JOBTYPE                   OPT
METHOD                    B3LYP
DFT_D                     d3_op
BASIS                     STO-3G
GEOM_OPT_MAX_CYCLES       100
GEOM_OPT_TOL_GRADIENT     300
GEOM_OPT_TOL_DISPLACEMENT 1200
GEOM_OPT_TOL_ENERGY       100
SYMMETRY                  False
THRESH                    12
SCF_CONVERGENCE           8
MAX_SUB_FILE_NUM          128
MEM_STATIC                400
MEM_TOTAL                 4000
$end
--------------------------------------------------------------

   15   -1510.1455178365      9.61E-09 Convergence criterion met
 Total energy in the final basis set = -1510.14551784
   13   -1510.2147566086      6.95E-09 Convergence criterion met
 Total energy in the final basis set = -1510.21475661
   14   -1510.2519265016      1.61E-09 Convergence criterion met
 Total energy in the final basis set = -1510.25192650
   14   -1510.2685827157      1.97E-09 Convergence criterion met
 Total energy in the final basis set = -1510.26858272
   13   -1510.2747326782      6.79E-09 Convergence criterion met
 Total energy in the final basis set = -1510.27473268
   13   -1510.2771219493      3.46E-09 Convergence criterion met
 Total energy in the final basis set = -1510.27712195
    2   -1510.2771219493      2.78E-09 Convergence criterion met
 Total energy in the final basis set = -1510.27712195
   11   -1510.2777867263      8.79E-09 Convergence criterion met
   11   -1510.2781304217      8.86E-09 Convergence criterion met
 Total energy in the final basis set = -1510.27813042
   10   -1510.2781338494      4.97E-09 Convergence criterion met
 Total energy in the final basis set = -1510.27813385
    9   -1510.2781428741      9.71E-09 Convergence criterion met
 Total energy in the final basis set = -1510.27814287
    9   -1510.2781475318      5.22E-09 Convergence criterion met
 Total energy in the final basis set = -1510.27814753
    9   -1510.2781490706      4.76E-09 Convergence criterion met
 Total energy in the final basis set = -1510.27814907
    9   -1510.2781510036      4.15E-09 Convergence criterion met
 Total energy in the final basis set = -1510.27815100

             Standard Nuclear Orientation (Angstroms)
    I     Atom           X                Y                Z
 ----------------------------------------------------------------
    1      O      -4.8847786621     1.1366142567     1.8431251084
    2      C      -5.0177269750     0.8792892174     0.6279682454
    3      C      -4.8410306027    -0.5136425506    -0.0809994300
    4      C      -3.4919699232    -0.6748023594    -0.8948883739
    5      C      -2.4807882141     0.4911539142    -0.6050379731
    6      O      -1.1647316198     0.0747027287    -0.9700570202
    7      C      -0.2531233228     1.2454616582    -1.0310684643
    8      C       0.9941837396     0.8335416335    -1.8804331339
    9      O       2.0401172476     0.3279407017    -0.9630463916
   10      C       3.3468546979     0.5741522502    -1.5145089542
   11      C       4.3866673886    -0.3657773662    -0.8065926216
   12      C       4.9856525776     0.1761564583     0.5603624471
   13      C       4.2021487314     1.3944242610     1.1733467154
   14      O       3.9061787809     1.5701473753     2.3738905178
   15      O      -5.5285437634     1.8007475484    -0.3479660695
   16      O       3.8610343876     2.3079256800     0.1253488036
   17      O       3.5580105137     1.2885774857    -2.5193138817
   18      C       3.0032154601     3.3968394067     0.6443496537
   19      C       3.7982357632    -1.7680704725    -0.3408445846
   20      C       5.0066783698    -2.7792950134    -0.2388075023
   21      C       5.7324110976    -2.2472189353     1.0524450093
   22      C       4.7619254527    -1.0826608367     1.4959762616
   23      O       3.4200280059    -1.5514066008     1.0735265465
   24      H       5.2053168003    -0.5096526947    -1.5342169687
   25      H       6.0518910354     0.4486875951     0.4539118952
   26      H       2.9268677407    -2.1185480952    -0.9262920162
   27      H       4.6345994181    -3.8065709838    -0.0974411172
   28      H       5.6493038384    -2.7547897544    -1.1331671495
   29      H       5.7903788346    -3.0214193820     1.8339260562
   30      H       6.7500263115    -1.8787940001     0.8454279835
   31      H       4.7620819603    -0.8361135164     2.5756726419
   32      O      -2.7531862411     1.6277421377    -0.1562710208
   33      C      -5.6522952472     3.1456157921     0.2547549034
   34      C      -4.7231055106    -1.7190503610     0.9434983696
   35      C      -5.1231515428    -3.0398105587     0.1792010768
   36      C      -3.8724520082    -3.2288404341    -0.7585974309
   37      C      -2.9470847964    -2.0371679737    -0.2872589341
   38      O      -3.2649627161    -1.8817101177     1.1510895706
   39      H      -5.7046948606    -0.6521065285    -0.7555367822
   40      H      -3.6637012435    -0.7334500278    -1.9855373195
   41      H      -4.6594869391     3.5439926495     0.5485523525
   42      H      -5.2323701958    -1.5456870720     1.9113376208
   43      H      -5.2234782357    -3.8776243400     0.8875962017
   44      H      -6.0658682434    -2.9330373518    -0.3806917139
   45      H      -3.3751025815    -4.1959455916    -0.5835401066
   46      H      -4.1286400385    -3.1532061508    -1.8275791146
   47      H      -1.8601229302    -2.1879441928    -0.4345075795
   48      H      -6.3084405429     3.1362153475     1.1491528218
   49      H      -6.0954497402     3.7932082954    -0.5240663485
   50      H       2.7939446137     4.0557186127    -0.2183819702
   51      H       3.5146228117     3.9742554577     1.4410373862
   52      H       2.0503169284     2.9999231467     1.0506225705
   53      H       0.7041722605     0.0376802308    -2.6023672840
   54      H       1.3924899661     1.6996871274    -2.4528613019
   55      H       0.0721580761     1.5458149825    -0.0101550597
   56      H      -0.7759086154     2.1103233937    -1.4939295934
 ----------------------------------------------------------------

    9   -1510.2781525785      3.30E-09 Convergence criterion met
 Total energy in the final basis set = -1510.27815258
 Final energy is   -1510.27815257853
 **  OPTIMIZATION CONVERGED  **

                    Orbital Energies (a.u.)
 --------------------------------------------------------------

 Alpha MOs
 -- Occupied --
-18.944 -18.940 -18.925 -18.917 -18.886 -18.885 -18.883 -18.882
-18.869 -18.858 -10.105 -10.104 -10.099 -10.087 -10.079 -10.073
-10.070 -10.059 -10.058 -10.057 -10.054 -10.052 -10.040 -10.039
-10.036 -10.030 -10.020 -10.019 -10.018 -10.017  -1.020  -1.018
 -1.005  -0.995  -0.969  -0.966  -0.944  -0.942  -0.931  -0.921
 -0.764  -0.760  -0.729  -0.722  -0.714  -0.703  -0.695  -0.666
 -0.652  -0.614  -0.597  -0.579  -0.545  -0.542  -0.537  -0.535
 -0.515  -0.512  -0.487  -0.480  -0.469  -0.453  -0.452  -0.443
 -0.432  -0.429  -0.420  -0.417  -0.412  -0.408  -0.402  -0.400
 -0.396  -0.387  -0.380  -0.365  -0.361  -0.355  -0.351  -0.343
 -0.343  -0.341  -0.331  -0.330  -0.329  -0.326  -0.320  -0.310
 -0.309  -0.306  -0.305  -0.300  -0.297  -0.290  -0.277  -0.274
 -0.272  -0.256  -0.252  -0.243  -0.242  -0.233  -0.230  -0.184
 -0.182  -0.171  -0.162  -0.160  -0.158  -0.150  -0.142  -0.141
 -0.139

          Ground-State Mulliken Net Atomic Charges

     Atom                 Charge (a.u.)
  ----------------------------------------
      1 O                    -0.217517
      2 C                     0.214524
      3 C                    -0.082150
      4 C                    -0.076614
      5 C                     0.215654
      6 O                    -0.171344
      7 C                    -0.045999
      8 C                    -0.051397
      9 O                    -0.177229
     10 C                     0.215397
     11 C                    -0.080645
     12 C                    -0.077488
     13 C                     0.214319
     14 O                    -0.207153
     15 O                    -0.175197
     16 O                    -0.167332
     17 O                    -0.218614
     18 C                    -0.126945
     19 C                     0.026034
     20 C                    -0.143401
     21 C                    -0.144922
     22 C                     0.023967
     23 O                    -0.187325
     24 H                     0.083944
     25 H                     0.086089
     26 H                     0.085722
     27 H                     0.078010
     28 H                     0.073043
     29 H                     0.078734
     30 H                     0.073068
     31 H                     0.090919
     32 O                    -0.207739
     33 C                    -0.128177
     34 C                     0.024232
     35 C                    -0.143230
     36 C                    -0.144849
     37 C                     0.023470
     38 O                    -0.189573
     39 H                     0.082973
     40 H                     0.085517
     41 H                     0.091491
     42 H                     0.088609
     43 H                     0.077770
     44 H                     0.072694
     45 H                     0.077883
     46 H                     0.072100
     47 H                     0.090392
     48 H                     0.086391
     49 H                     0.085203
     50 H                     0.093103
     51 H                     0.092697
     52 H                     0.090484
     53 H                     0.087070
     54 H                     0.098222
     55 H                     0.094474
     56 H                     0.090641
  ----------------------------------------
  Sum of atomic charges =     0.000000

                    Cartesian Multipole Moments
 -----------------------------------------------------------------
    Charge (ESU x 10^10)
                 0.0000
    Dipole Moment (Debye)
         X       0.7588      Y      -0.6681      Z      -3.0905
       Tot       3.2516
    Quadrupole Moments (Debye-Ang)
        XX    -143.5920     XY      -0.9765     YY    -149.5737
        XZ       8.9395     YZ       3.3268     ZZ    -169.2776

 Total job time:  48.52s(wall), 2306.23s(cpu)
        *  Thank you very much for using Q-Chem.  Have a nice day.  *
