 Q-Chem 5.0, Q-Chem, Inc., Pleasanton, CA (2017)
 Q-Chem 5.0.1 for Intel X86 EM64T Linux

User input:
--------------------------------------------------------------
$molecule
0  1
O -4.8847786621 1.1366142567 1.8431251084
C -5.017726975 0.8792892174 0.6279682454
C -4.8410306027 -0.5136425506 -0.08099943
C -3.4919699232 -0.6748023594 -0.8948883739
C -2.4807882141 0.4911539142 -0.6050379731
O -1.1647316198 0.0747027287 -0.9700570202
C -0.2531233228 1.2454616582 -1.0310684643
C 0.9941837396 0.8335416335 -1.8804331339
O 2.0401172476 0.3279407017 -0.9630463916
C 3.3468546979 0.5741522502 -1.5145089542
C 4.3866673886 -0.3657773662 -0.8065926216
C 4.9856525776 0.1761564583 0.5603624471
C 4.2021487314 1.394424261 1.1733467154
O 3.9061787809 1.5701473753 2.3738905178
O -5.5285437634 1.8007475484 -0.3479660695
O 3.8610343876 2.30792568 0.1253488036
O 3.5580105137 1.2885774857 -2.5193138817
C 3.0032154601 3.3968394067 0.6443496537
C 3.7982357632 -1.7680704725 -0.3408445846
C 5.0066783698 -2.7792950134 -0.2388075023
C 5.7324110976 -2.2472189353 1.0524450093
C 4.7619254527 -1.0826608367 1.4959762616
O 3.4200280059 -1.5514066008 1.0735265465
H 5.2053168003 -0.5096526947 -1.5342169687
H 6.0518910354 0.4486875951 0.4539118952
H 2.9268677407 -2.1185480952 -0.9262920162
H 4.6345994181 -3.8065709838 -0.0974411172
H 5.6493038384 -2.7547897544 -1.1331671495
H 5.7903788346 -3.021419382 1.8339260562
H 6.7500263115 -1.8787940001 0.8454279835
H 4.7620819603 -0.8361135164 2.5756726419
O -2.7531862411 1.6277421377 -0.1562710208
C -5.6522952472 3.1456157921 0.2547549034
C -4.7231055106 -1.719050361 0.9434983696
C -5.1231515428 -3.0398105587 0.1792010768
C -3.8724520082 -3.2288404341 -0.7585974309
C -2.9470847964 -2.0371679737 -0.2872589341
O -3.2649627161 -1.8817101177 1.1510895706
H -5.7046948606 -0.6521065285 -0.7555367822
H -3.6637012435 -0.7334500278 -1.9855373195
H -4.6594869391 3.5439926495 0.5485523525
H -5.2323701958 -1.545687072 1.9113376208
H -5.2234782357 -3.87762434 0.8875962017
H -6.0658682434 -2.9330373518 -0.3806917139
H -3.3751025815 -4.1959455916 -0.5835401066
H -4.1286400385 -3.1532061508 -1.8275791146
H -1.8601229302 -2.1879441928 -0.4345075795
H -6.3084405429 3.1362153475 1.1491528218
H -6.0954497402 3.7932082954 -0.5240663485
H 2.7939446137 4.0557186127 -0.2183819702
H 3.5146228117 3.9742554577 1.4410373862
H 2.0503169284 2.9999231467 1.0506225705
H 0.7041722605 0.0376802308 -2.602367284
H 1.3924899661 1.6996871274 -2.4528613019
H 0.0721580761 1.5458149825 -0.0101550597
H -0.7759086154 2.1103233937 -1.4939295934
$end

$rem
JOBTYPE                   OPT
METHOD                    B3LYP
DFT_D                     d3_op
BASIS                     STO-3G
GEOM_OPT_MAX_CYCLES       100
GEOM_OPT_TOL_GRADIENT     300
GEOM_OPT_TOL_DISPLACEMENT 1200
GEOM_OPT_TOL_ENERGY       100
SYMMETRY                  False
THRESH                    12
SCF_CONVERGENCE           8
MAX_SUB_FILE_NUM          128
MEM_STATIC                400
MEM_TOTAL                 4000
$end
--------------------------------------------------------------

   16   -1510.2781566416      5.02E-09 Convergence criterion met
 Total energy in the final basis set = -1510.27815664
   14   -1510.2809357146      2.01E-09 Convergence criterion met
 Total energy in the final basis set = -1510.28093571
   13   -1510.2827336536      8.10E-09 Convergence criterion met
 Total energy in the final basis set = -1510.28273365
   13   -1510.2836194420      4.90E-09 Convergence criterion met
 Total energy in the final basis set = -1510.28361944
   13   -1510.2845829461      4.64E-09 Convergence criterion met
 Total energy in the final basis set = -1510.28458295
   13   -1510.2854171629      5.19E-09 Convergence criterion met
 Total energy in the final basis set = -1510.28541716
   13   -1510.2861925135      8.64E-09 Convergence criterion met
 Total energy in the final basis set = -1510.28619251
   13   -1510.2868265629      8.05E-09 Convergence criterion met
   11   -1510.3020523793      5.75E-09 Convergence criterion met
 Total energy in the final basis set = -1510.30205238
   11   -1510.3020634396      5.72E-09 Convergence criterion met
 Total energy in the final basis set = -1510.30206344
   11   -1510.3020809833      8.43E-09 Convergence criterion met
 Total energy in the final basis set = -1510.30208098
   10   -1510.3020773900      7.60E-09 Convergence criterion met
 Total energy in the final basis set = -1510.30207739
    9   -1510.3020794116      4.91E-09 Convergence criterion met
 Total energy in the final basis set = -1510.30207941
    9   -1510.3020818925      3.56E-09 Convergence criterion met
 Total energy in the final basis set = -1510.30208189

             Standard Nuclear Orientation (Angstroms)
    I     Atom           X                Y                Z
 ----------------------------------------------------------------
    1      O      -2.7316180879     1.1097345056     2.3465922371
    2      C      -3.2186622822     0.8656178031     1.2237879672
    3      C      -3.2119912197    -0.5060104181     0.4519716328
    4      C      -2.2791020216    -0.5277369359    -0.8279493258
    5      C      -1.5252487634     0.8143279636    -1.0811379489
    6      O      -1.0637336530     0.8158053658    -2.4327631809
    7      C      -0.1706258820     1.9741476606    -2.6848971818
    8      C       1.2881865726     1.4487023404    -2.8913823062
    9      O       1.6292995387     0.5439027822    -1.7682321508
   10      C       2.9874564528     0.7696732571    -1.3466684109
   11      C       3.3905845723    -0.3485553850    -0.3245313357
   12      C       2.5234316103    -0.3948773590     1.0016423333
   13      C       1.4995942483     0.7810562235     1.1688109971
   14      O       0.3690410734     0.7262581987     1.6945986575
   15      O      -4.0019599888     1.7953174082     0.4567766923
   16      O       2.0920639421     1.9775284809     0.6481401931
   17      O       3.7292584245     1.6554463408    -1.8253734298
   18      C       1.1271208484     3.0997014745     0.7396929931
   19      C       3.0763530536    -1.7891523621    -0.9174095944
   20      C       3.7925044143    -2.8755430379    -0.0196995335
   21      C       2.8371582746    -2.9254932329     1.2319743790
   22      C       1.7975937852    -1.7999515681     0.8642850371
   23      O       1.6429376276    -1.9709181078    -0.6016361072
   24      H       4.4637552281    -0.2179919239    -0.1010198130
   25      H       3.1869826890    -0.3844242431     1.8866210259
   26      H       3.2517611319    -1.8878388546    -2.0063876472
   27      H       3.8285296848    -3.8448640194    -0.5416740874
   28      H       4.8202993619    -2.5779403956     0.2429086755
   29      H       2.3337952877    -3.9022354065     1.3127407483
   30      H       3.3625061225    -2.7199379299     2.1782345836
   31      H       0.7938784841    -1.8399073235     1.3456095377
   32      O      -1.3424067914     1.7483156089    -0.2651714716
   33      C      -3.9665288638     3.1248313897     1.1031828715
   34      C      -2.5573671838    -1.6530977137     1.3256548268
   35      C      -2.9350885522    -3.0477091544     0.6890741551
   36      C      -1.9990090272    -3.0682869748    -0.5772361078
   37      C      -1.2531931637    -1.6832164651    -0.4368109445
   38      O      -1.1135779906    -1.5213174812     1.0268881733
   39      H      -4.2528442270    -0.7479617990     0.1708742547
   40      H      -2.8380146608    -0.7870175650    -1.7445753980
   41      H      -2.9356449204     3.5349829290     1.1167557520
   42      H      -2.7370521301    -1.5504028317     2.4133530306
   43      H      -2.6930759897    -3.8675398652     1.3841059166
   44      H      -4.0040066361    -3.1096797833     0.4295510209
   45      H      -1.2732864789    -3.8958714357    -0.5315167057
   46      H      -2.5619175114    -3.1451182670    -1.5210987439
   47      H      -0.2462600306    -1.6261998820    -0.9103305540
   48      H      -4.3433729548     3.0862278935     2.1457891450
   49      H      -4.6182508936     3.7808462080     0.4970246172
   50      H       1.5243275870     3.8985556991     0.0870045334
   51      H       1.0563123530     3.4764993875     1.7802713942
   52      H       0.1185378800     2.7715061607     0.3997229125
   53      H       1.3481543820     0.8745494601    -3.8415955242
   54      H       2.0225833827     2.2834505563    -2.9290768909
   55      H      -0.2284622047     2.6712395639    -1.8241651236
   56      H      -0.5219668003     2.4837346260    -3.6062964551
 ----------------------------------------------------------------

    9   -1510.3020825215      3.05E-09 Convergence criterion met
 Total energy in the final basis set = -1510.30208252
 Final energy is   -1510.30208252151
 **  OPTIMIZATION CONVERGED  **

                    Orbital Energies (a.u.)
 --------------------------------------------------------------

 Alpha MOs
 -- Occupied --
-18.940 -18.923 -18.923 -18.915 -18.887 -18.886 -18.883 -18.868
-18.867 -18.859 -10.107 -10.095 -10.087 -10.085 -10.074 -10.068
-10.059 -10.052 -10.051 -10.044 -10.043 -10.041 -10.034 -10.033
-10.030 -10.028 -10.018 -10.014 -10.014 -10.012  -1.019  -1.006
 -0.997  -0.993  -0.968  -0.963  -0.944  -0.928  -0.925  -0.920
 -0.759  -0.757  -0.725  -0.717  -0.708  -0.700  -0.690  -0.651
 -0.648  -0.613  -0.593  -0.575  -0.541  -0.537  -0.534  -0.529
 -0.509  -0.501  -0.480  -0.477  -0.462  -0.451  -0.447  -0.433
 -0.429  -0.427  -0.421  -0.412  -0.406  -0.403  -0.399  -0.397
 -0.393  -0.372  -0.366  -0.364  -0.356  -0.350  -0.346  -0.343
 -0.338  -0.338  -0.331  -0.328  -0.323  -0.317  -0.316  -0.308
 -0.306  -0.300  -0.296  -0.293  -0.290  -0.283  -0.273  -0.269
 -0.265  -0.252  -0.243  -0.240  -0.237  -0.235  -0.217  -0.185
 -0.169  -0.165  -0.161  -0.159  -0.151  -0.144  -0.142  -0.137
 -0.134

          Ground-State Mulliken Net Atomic Charges

     Atom                 Charge (a.u.)
  ----------------------------------------
      1 O                    -0.208349
      2 C                     0.216572
      3 C                    -0.079412
      4 C                    -0.077433
      5 C                     0.226126
      6 O                    -0.167799
      7 C                    -0.053794
      8 C                    -0.054429
      9 O                    -0.177007
     10 C                     0.216505
     11 C                    -0.078484
     12 C                    -0.079586
     13 C                     0.209574
     14 O                    -0.195422
     15 O                    -0.178343
     16 O                    -0.175449
     17 O                    -0.218978
     18 C                    -0.143961
     19 C                     0.027163
     20 C                    -0.144395
     21 C                    -0.143829
     22 C                     0.013808
     23 O                    -0.194111
     24 H                     0.084823
     25 H                     0.083807
     26 H                     0.080752
     27 H                     0.076330
     28 H                     0.073328
     29 H                     0.076444
     30 H                     0.073221
     31 H                     0.113860
     32 O                    -0.210958
     33 C                    -0.128463
     34 C                     0.027306
     35 C                    -0.145035
     36 C                    -0.144255
     37 C                     0.015156
     38 O                    -0.188492
     39 H                     0.082499
     40 H                     0.086761
     41 H                     0.089893
     42 H                     0.089288
     43 H                     0.075751
     44 H                     0.071764
     45 H                     0.077407
     46 H                     0.071856
     47 H                     0.111757
     48 H                     0.086501
     49 H                     0.084723
     50 H                     0.080931
     51 H                     0.082169
     52 H                     0.111785
     53 H                     0.082306
     54 H                     0.100841
     55 H                     0.099241
     56 H                     0.087737
  ----------------------------------------
  Sum of atomic charges =     0.000000

                    Cartesian Multipole Moments
 -----------------------------------------------------------------
    Charge (ESU x 10^10)
                 0.0000
    Dipole Moment (Debye)
         X      -0.3759      Y      -0.9253      Z      -1.7012
       Tot       1.9727
    Quadrupole Moments (Debye-Ang)
        XX    -154.1345     XY      -5.4453     YY    -149.7308
        XZ       4.8405     YZ      -3.0408     ZZ    -159.3446

 Total job time:  137.40s(wall), 6533.32s(cpu)
        *  Thank you very much for using Q-Chem.  Have a nice day.  *
