 Q-Chem 5.0, Q-Chem, Inc., Pleasanton, CA (2017)
 Q-Chem 5.0.1 for Intel X86 EM64T Linux

User input:
--------------------------------------------------------------
$molecule
0  1
O -3.94934 -3.66094 2.70899
C -3.26408 -4.56952 2.26188
C -3.36658 -6.02376 2.66595
C -2.27432 -6.57256 3.5985
C -1.30151 -5.56245 4.16542
O -1.04567 -5.84954 5.47598
C 0.34916 -6.00937 5.75553
C 0.65842 -7.46955 6.06919
O 2.07881 -7.65896 6.16669
C 2.61495 -8.52229 5.26871
C 4.01624 -8.95324 5.63111
C 5.05045 -8.80528 4.50558
C 4.63346 -7.93796 3.33487
O 5.37808 -7.52658 2.45688
O -2.28466 -4.27139 1.36842
O 3.37401 -7.43918 3.21538
O 1.96563 -9.1447 4.43319
C 2.91261 -6.6085 2.21187
C 4.71357 -8.14238 6.75211
C 5.82229 -8.98233 7.38701
C 6.84883 -8.98482 6.2756
C 6.16222 -8.05958 5.26703
O 5.44023 -7.15454 6.06651
H 3.93037 -10.012 5.96482
H 5.39188 -9.77704 4.08653
H 4.03261 -7.78399 7.55318
H 6.23027 -8.39677 8.24221
H 5.50965 -9.9857 7.74809
H 7.78281 -8.51696 6.65922
H 7.07388 -9.98098 5.83667
H 6.91822 -7.6094 4.58633
O -0.57727 -4.86789 3.46331
C -2.01774 -3.00111 0.90251
C -4.62336 -6.30965 3.52346
C -5.03183 -7.7717 3.36931
C -3.91121 -8.45257 4.12033
C -3.17063 -7.23045 4.67997
O -4.17495 -6.26528 4.85516
H -3.4698 -6.60052 1.719
H -1.64567 -7.32188 3.06845
H -1.73689 -2.33532 1.74648
H -5.48912 -5.656 3.27838
H -5.97641 -7.902 3.94536
H -5.18969 -8.12568 2.32788
H -4.35846 -9.06255 4.9366
H -3.23696 -9.08226 3.50019
H -2.62769 -7.54448 5.59637
H -2.90766 -2.59044 0.3793
H -1.1714 -3.04671 0.18691
H 1.84196 -6.38134 2.39334
H 3.00897 -7.11018 1.2255
H 3.48423 -5.65606 2.20971
H 0.1761 -7.7534 7.02828
H 0.16906 -8.07824 5.27778
H 0.64628 -5.35435 6.6015
H 1.0086 -5.74181 4.8978
$end

$opt
CONSTRAINT
tors           1           2           3           4    -104.134
tors           3           4           5           6    +139.341
tors           4           5           6           7    +124.649
tors           5           6           7           8    -110.411
tors           6           7           8           9    +172.080
tors           7           8           9          10    -118.649
tors           8           9          10          11    -165.231
tors           9          10          11          12    -129.036
tors          11          12          13          14    +167.618
ENDCONSTRAINT
$end

$rem
JOBTYPE                   OPT
METHOD                    B3LYP
DFT_D                     d3_op
BASIS                     STO-3G
GEOM_OPT_MAX_CYCLES       100
GEOM_OPT_TOL_GRADIENT     300
GEOM_OPT_TOL_DISPLACEMENT 1200
GEOM_OPT_TOL_ENERGY       100
SYMMETRY                  False
THRESH                    12
SCF_CONVERGENCE           8
MAX_SUB_FILE_NUM          128
MEM_STATIC                400
MEM_TOTAL                 4000
$end
--------------------------------------------------------------

   15   -1510.1206633319      6.28E-09 Convergence criterion met
 Total energy in the final basis set = -1510.12066333
   13   -1510.1933812364      9.56E-09 Convergence criterion met
 Total energy in the final basis set = -1510.19338124
   14   -1510.2331260474      3.88E-09 Convergence criterion met
 Total energy in the final basis set = -1510.23312605
   14   -1510.2509769613      4.26E-09 Convergence criterion met
 Total energy in the final basis set = -1510.25097696
   14   -1510.2558387933      4.59E-09 Convergence criterion met
 Total energy in the final basis set = -1510.25583879
    2   -1510.2558387934      3.98E-09 Convergence criterion met
 Total energy in the final basis set = -1510.25583879
   13   -1510.2588247264      7.57E-09 Convergence criterion met
 Total energy in the final basis set = -1510.25882473
   13   -1510.2597513055      2.53E-09 Convergence criterion met
   11   -1510.2607222752      5.21E-09 Convergence criterion met
 Total energy in the final basis set = -1510.26072228
   11   -1510.2607264585      2.57E-09 Convergence criterion met
 Total energy in the final basis set = -1510.26072646
    9   -1510.2607311705      6.78E-09 Convergence criterion met
 Total energy in the final basis set = -1510.26073117
    9   -1510.2607345428      9.99E-09 Convergence criterion met
 Total energy in the final basis set = -1510.26073454
    9   -1510.2607361158      5.50E-09 Convergence criterion met
 Total energy in the final basis set = -1510.26073612
    9   -1510.2607372184      4.80E-09 Convergence criterion met
 Total energy in the final basis set = -1510.26073722

             Standard Nuclear Orientation (Angstroms)
    I     Atom           X                Y                Z
 ----------------------------------------------------------------
    1      O      -5.5193403273     1.4697328235     1.1139388015
    2      C      -4.7771869742     1.3637050722     0.1144589087
    3      C      -4.4899211252     0.0799496488    -0.7400225743
    4      C      -3.0730793601    -0.5820685688    -0.4673623064
    5      C      -2.3445117474    -0.0176644559     0.8151722079
    6      O      -1.6956303596    -1.0751272519     1.5605029701
    7      C      -0.2584117281    -0.7612392833     1.7416612823
    8      C       0.6033385403    -1.7523937442     0.8758988322
    9      O       2.0135323170    -1.3021580091     0.9196287004
   10      C       2.4613637799    -0.9739670875    -0.4084014508
   11      C       4.0266278521    -0.8647585157    -0.4243867184
   12      C       4.6083521822     0.4594063578    -1.0673730700
   13      C       3.6891065493     1.7377293883    -0.9626551056
   14      O       4.0446683130     2.9117104678    -1.2044636636
   15      O      -4.1190430816     2.4647331625    -0.5247673758
   16      O       2.4261455527     1.4069307986    -0.3811927877
   17      O       1.7195465373    -1.0133368129    -1.4162297843
   18      C       1.5870815838     2.6143475494    -0.2143758230
   19      C       4.7908757528    -0.9026923313     0.9694383452
   20      C       6.1990689491    -1.5593491036     0.6981490949
   21      C       6.8834714104    -0.4284145099    -0.1573298070
   22      C       5.8116457694     0.7298736088    -0.0621600889
   23      O       5.1449561726     0.5093937287     1.2450366459
   24      H       4.3566375108    -1.7208588273    -1.0432320124
   25      H       4.9345014645     0.3195992501    -2.1134222483
   26      H       4.2016205620    -1.3317175210     1.8021293978
   27      H       6.7333658449    -1.7215628824     1.6482538595
   28      H       6.1263410013    -2.5197831930     0.1634233281
   29      H       7.8412084991    -0.1067291222     0.2809214904
   30      H       7.0602526040    -0.7363612110    -1.2005474756
   31      H       6.2176876600     1.7584719905    -0.1246396644
   32      O      -2.2615474664     1.1871320083     1.1366936576
   33      C      -4.2956614202     3.6930034689     0.2815685998
   34      C      -5.4610659572    -1.1359867314    -0.4287923684
   35      C      -5.4642242880    -2.0732228747    -1.6985614796
   36      C      -4.0228034636    -2.7008870875    -1.6052059418
   37      C      -3.5046293144    -2.0896224479    -0.2433501191
   38      O      -4.7303481858    -1.9414431384     0.5769348015
   39      H      -4.5606209497     0.3771298656    -1.8019703178
   40      H      -2.3832296676    -0.4532887098    -1.3225889318
   41      H      -3.7914410712     3.6003645741     1.2651727999
   42      H      -6.4552159171    -0.8402857857    -0.0410776697
   43      H      -6.2450692056    -2.8447986264    -1.6041564605
   44      H      -5.6279823261    -1.5146432276    -2.6340244922
   45      H      -4.0606973778    -3.8000551392    -1.5460719163
   46      H      -3.3812786954    -2.4158257272    -2.4546062490
   47      H      -2.7460882124    -2.6861139544     0.2982865679
   48      H      -5.3677651410     3.9211226561     0.4517649134
   49      H      -3.8281371361     4.5104077422    -0.2975449083
   50      H       0.6379594282     2.2666837356     0.2348655403
   51      H       1.3785610419     3.1021871243    -1.1882735465
   52      H       2.0701927543     3.3525856057     0.4576495654
   53      H       0.5470399288    -2.7812494677     1.2874384273
   54      H       0.2646483494    -1.7424462785    -0.1840387129
   55      H      -0.0033564247    -0.8881365435     2.8157678235
   56      H      -0.0279149999     0.2865716822     1.4553090995
 ----------------------------------------------------------------

    9   -1510.2607379092      3.12E-09 Convergence criterion met
 Total energy in the final basis set = -1510.26073791
 Final energy is   -1510.26073790917
 **  OPTIMIZATION CONVERGED  **

                    Orbital Energies (a.u.)
 --------------------------------------------------------------

 Alpha MOs
 -- Occupied --
-18.945 -18.932 -18.925 -18.920 -18.897 -18.888 -18.884 -18.878
-18.870 -18.868 -10.109 -10.105 -10.105 -10.093 -10.074 -10.070
-10.067 -10.062 -10.060 -10.056 -10.056 -10.056 -10.043 -10.041
-10.040 -10.034 -10.023 -10.022 -10.019 -10.018  -1.020  -1.015
 -1.009  -1.002  -0.973  -0.968  -0.944  -0.941  -0.934  -0.929
 -0.766  -0.761  -0.728  -0.723  -0.715  -0.705  -0.694  -0.667
 -0.656  -0.616  -0.599  -0.582  -0.547  -0.544  -0.540  -0.536
 -0.516  -0.509  -0.489  -0.480  -0.473  -0.457  -0.454  -0.444
 -0.439  -0.430  -0.428  -0.417  -0.413  -0.407  -0.404  -0.401
 -0.399  -0.384  -0.381  -0.370  -0.363  -0.360  -0.354  -0.346
 -0.342  -0.341  -0.337  -0.333  -0.331  -0.328  -0.322  -0.313
 -0.311  -0.308  -0.306  -0.303  -0.298  -0.292  -0.280  -0.277
 -0.275  -0.253  -0.248  -0.247  -0.244  -0.236  -0.231  -0.188
 -0.180  -0.171  -0.163  -0.162  -0.160  -0.155  -0.146  -0.145
 -0.142

          Ground-State Mulliken Net Atomic Charges

     Atom                 Charge (a.u.)
  ----------------------------------------
      1 O                    -0.213505
      2 C                     0.210628
      3 C                    -0.081305
      4 C                    -0.077614
      5 C                     0.220030
      6 O                    -0.185150
      7 C                    -0.047527
      8 C                    -0.057352
      9 O                    -0.175995
     10 C                     0.222206
     11 C                    -0.080062
     12 C                    -0.076040
     13 C                     0.214104
     14 O                    -0.213287
     15 O                    -0.170315
     16 O                    -0.167045
     17 O                    -0.224676
     18 C                    -0.125108
     19 C                     0.022797
     20 C                    -0.142104
     21 C                    -0.145582
     22 C                     0.023976
     23 O                    -0.192324
     24 H                     0.084102
     25 H                     0.087575
     26 H                     0.093374
     27 H                     0.078406
     28 H                     0.073092
     29 H                     0.079193
     30 H                     0.073937
     31 H                     0.087821
     32 O                    -0.196235
     33 C                    -0.127837
     34 C                     0.023876
     35 C                    -0.142759
     36 C                    -0.145488
     37 C                     0.022476
     38 O                    -0.189698
     39 H                     0.084164
     40 H                     0.087878
     41 H                     0.092262
     42 H                     0.088286
     43 H                     0.077802
     44 H                     0.072906
     45 H                     0.077701
     46 H                     0.072886
     47 H                     0.091279
     48 H                     0.087797
     49 H                     0.087497
     50 H                     0.092966
     51 H                     0.092326
     52 H                     0.094176
     53 H                     0.084595
     54 H                     0.098192
     55 H                     0.087946
     56 H                     0.088755
  ----------------------------------------
  Sum of atomic charges =    -0.000000

                    Cartesian Multipole Moments
 -----------------------------------------------------------------
    Charge (ESU x 10^10)
                -0.0000
    Dipole Moment (Debye)
         X       1.9464      Y      -1.4465      Z      -2.2852
       Tot       3.3321
    Quadrupole Moments (Debye-Ang)
        XX    -158.9637     XY     -10.2658     YY    -156.4776
        XZ      10.0366     YZ       2.2229     ZZ    -164.2533

 Total job time:  53.10s(wall), 2524.84s(cpu)
        *  Thank you very much for using Q-Chem.  Have a nice day.  *
