 Q-Chem 5.0, Q-Chem, Inc., Pleasanton, CA (2017)
 Q-Chem 5.0.1 for Intel X86 EM64T Linux

User input:
--------------------------------------------------------------
$molecule
0  1
O -5.5193403273 1.4697328235 1.1139388015
C -4.7771869742 1.3637050722 0.1144589087
C -4.4899211252 0.0799496488 -0.7400225743
C -3.0730793601 -0.5820685688 -0.4673623064
C -2.3445117474 -0.0176644559 0.8151722079
O -1.6956303596 -1.0751272519 1.5605029701
C -0.2584117281 -0.7612392833 1.7416612823
C 0.6033385403 -1.7523937442 0.8758988322
O 2.013532317 -1.3021580091 0.9196287004
C 2.4613637799 -0.9739670875 -0.4084014508
C 4.0266278521 -0.8647585157 -0.4243867184
C 4.6083521822 0.4594063578 -1.06737307
C 3.6891065493 1.7377293883 -0.9626551056
O 4.044668313 2.9117104678 -1.2044636636
O -4.1190430816 2.4647331625 -0.5247673758
O 2.4261455527 1.4069307986 -0.3811927877
O 1.7195465373 -1.0133368129 -1.4162297843
C 1.5870815838 2.6143475494 -0.214375823
C 4.7908757528 -0.9026923313 0.9694383452
C 6.1990689491 -1.5593491036 0.6981490949
C 6.8834714104 -0.4284145099 -0.157329807
C 5.8116457694 0.7298736088 -0.0621600889
O 5.1449561726 0.5093937287 1.2450366459
H 4.3566375108 -1.7208588273 -1.0432320124
H 4.9345014645 0.3195992501 -2.1134222483
H 4.201620562 -1.331717521 1.8021293978
H 6.7333658449 -1.7215628824 1.6482538595
H 6.1263410013 -2.519783193 0.1634233281
H 7.8412084991 -0.1067291222 0.2809214904
H 7.060252604 -0.736361211 -1.2005474756
H 6.21768766 1.7584719905 -0.1246396644
O -2.2615474664 1.1871320083 1.1366936576
C -4.2956614202 3.6930034689 0.2815685998
C -5.4610659572 -1.1359867314 -0.4287923684
C -5.464224288 -2.0732228747 -1.6985614796
C -4.0228034636 -2.7008870875 -1.6052059418
C -3.5046293144 -2.0896224479 -0.2433501191
O -4.7303481858 -1.9414431384 0.5769348015
H -4.5606209497 0.3771298656 -1.8019703178
H -2.3832296676 -0.4532887098 -1.3225889318
H -3.7914410712 3.6003645741 1.2651727999
H -6.4552159171 -0.8402857857 -0.0410776697
H -6.2450692056 -2.8447986264 -1.6041564605
H -5.6279823261 -1.5146432276 -2.6340244922
H -4.0606973778 -3.8000551392 -1.5460719163
H -3.3812786954 -2.4158257272 -2.454606249
H -2.7460882124 -2.6861139544 0.2982865679
H -5.367765141 3.9211226561 0.4517649134
H -3.8281371361 4.5104077422 -0.2975449083
H 0.6379594282 2.2666837356 0.2348655403
H 1.3785610419 3.1021871243 -1.1882735465
H 2.0701927543 3.3525856057 0.4576495654
H 0.5470399288 -2.7812494677 1.2874384273
H 0.2646483494 -1.7424462785 -0.1840387129
H -0.0033564247 -0.8881365435 2.8157678235
H -0.0279149999 0.2865716822 1.4553090995
$end

$rem
JOBTYPE                   OPT
METHOD                    B3LYP
DFT_D                     d3_op
BASIS                     STO-3G
GEOM_OPT_MAX_CYCLES       100
GEOM_OPT_TOL_GRADIENT     300
GEOM_OPT_TOL_DISPLACEMENT 1200
GEOM_OPT_TOL_ENERGY       100
SYMMETRY                  False
THRESH                    12
SCF_CONVERGENCE           8
MAX_SUB_FILE_NUM          128
MEM_STATIC                400
MEM_TOTAL                 4000
$end
--------------------------------------------------------------

   16   -1510.2607696975      5.32E-09 Convergence criterion met
 Total energy in the final basis set = -1510.26076970
   14   -1510.2670156698      5.60E-09 Convergence criterion met
 Total energy in the final basis set = -1510.26701567
   14   -1510.2740865630      3.95E-09 Convergence criterion met
 Total energy in the final basis set = -1510.27408656
   14   -1510.2713756474      6.48E-09 Convergence criterion met
 Total energy in the final basis set = -1510.27137565
   14   -1510.2779448855      5.85E-09 Convergence criterion met
 Total energy in the final basis set = -1510.27794489
   13   -1510.2813618424      4.06E-09 Convergence criterion met
 Total energy in the final basis set = -1510.28136184
   14   -1510.2832957640      1.44E-09 Convergence criterion met
 Total energy in the final basis set = -1510.28329576
   14   -1510.2844381547      2.90E-09 Convergence criterion met
   10   -1510.2918914178      6.44E-09 Convergence criterion met
 Total energy in the final basis set = -1510.29189142
   11   -1510.2918908693      6.16E-09 Convergence criterion met
 Total energy in the final basis set = -1510.29189087
   10   -1510.2918889206      8.12E-09 Convergence criterion met
 Total energy in the final basis set = -1510.29188892
   10   -1510.2918892896      7.36E-09 Convergence criterion met
 Total energy in the final basis set = -1510.29188929
    9   -1510.2918903663      5.57E-09 Convergence criterion met
 Total energy in the final basis set = -1510.29189037
    9   -1510.2918917907      4.54E-09 Convergence criterion met
 Total energy in the final basis set = -1510.29189179

             Standard Nuclear Orientation (Angstroms)
    I     Atom           X                Y                Z
 ----------------------------------------------------------------
    1      O      -3.7138570984     2.1410575115     0.9244455084
    2      C      -3.6216457015     1.5072605418    -0.1478013258
    3      C      -4.3685359804     0.1751242833    -0.5315376353
    4      C      -3.4708095415    -1.1269378434    -0.5523270486
    5      C      -2.0023386221    -0.8788219158    -0.0743603260
    6      O      -1.2920576512    -2.1105957146    -0.1714134893
    7      C       0.1172417832    -1.9632235993     0.2738448447
    8      C       1.0696664417    -2.0459285218    -0.9691946474
    9      O       2.4445564166    -1.7731855209    -0.4918278557
   10      C       3.1014223325    -0.8423308337    -1.3625336272
   11      C       4.5002267281    -0.4537774920    -0.7577584138
   12      C       4.5655154324     1.0740092697    -0.3193574293
   13      C       3.2510296886     1.8788432919    -0.5883862358
   14      O       3.1563661970     3.0045127731    -1.1239177416
   15      O      -2.9114789072     1.9682466975    -1.3066306288
   16      O       2.1361408182     1.1199267085    -0.1076465204
   17      O       2.6265691667    -0.4472803359    -2.4504444480
   18      C       0.8690846060     1.8102681420    -0.4464613984
   19      C       4.8206516034    -1.1734375294     0.6174670640
   20      C       6.3570600099    -0.9822794679     0.9348179708
   21      C       6.3905370127     0.5208551782     1.3977568077
   22      C       4.8709159151     0.9201817817     1.2362985364
   23      O       4.1459246498    -0.3116805676     1.6163438101
   24      H       5.2689492326    -0.6677066070    -1.5227633570
   25      H       5.3855222264     1.6033198818    -0.8355033443
   26      H       4.4466717277    -2.2122255825     0.6872586087
   27      H       6.6707112895    -1.6616697440     1.7432208825
   28      H       6.9882921692    -1.1696359749     0.0515595947
   29      H       6.7019116301     0.6131691204     2.4505031311
   30      H       7.0529605613     1.1447602497     0.7766501991
   31      H       4.5373881737     1.7744576680     1.8568020267
   32      O      -1.5226642373     0.1951091628     0.3611599064
   33      C      -2.2479507131     3.2562369766    -1.0053670452
   34      C      -5.4429974586    -0.2161090821     0.5694344045
   35      C      -6.4738744524    -1.2197817461    -0.0785014630
   36      C      -5.6005799693    -2.5260495231    -0.1736266620
   37      C      -4.2506232701    -2.0426488021     0.4906519450
   38      O      -4.6847361439    -1.0695491302     1.5156488031
   39      H      -4.8385995884     0.3269688825    -1.5196847636
   40      H      -3.4384744372    -1.5932238955    -1.5535707821
   41      H      -1.6797939811     3.2088640793    -0.0554971398
   42      H      -5.8787181505     0.6517076368     1.1013715106
   43      H      -7.3413827791    -1.3624450801     0.5854689827
   44      H      -6.8336600185    -0.8739409642    -1.0608276594
   45      H      -6.0403878717    -3.3519320231     0.4076671814
   46      H      -5.4525935510    -2.8642680851    -1.2116799008
   47      H      -3.6301296515    -2.8422591543     0.9398628200
   48      H      -2.9855304649     4.0822989263    -0.9323665218
   49      H      -1.5580316078     3.4547581051    -1.8460446855
   50      H       0.0409953123     1.1687687252    -0.0728361474
   51      H       0.7720896780     1.9438102253    -1.5428019923
   52      H       0.8190309975     2.8080441424     0.0331316099
   53      H       1.0253035187    -3.0590523740    -1.4238662175
   54      H       0.7929011089    -1.2961927892    -1.7422581697
   55      H       0.3286728514    -2.7938734991     0.9778867261
   56      H       0.2529338951    -0.9910900997     0.7925447781
 ----------------------------------------------------------------

    9   -1510.2918915745      2.53E-09 Convergence criterion met
 Total energy in the final basis set = -1510.29189157
 Final energy is   -1510.29189157454
 **  OPTIMIZATION CONVERGED  **

                    Orbital Energies (a.u.)
 --------------------------------------------------------------

 Alpha MOs
 -- Occupied --
-18.951 -18.933 -18.929 -18.923 -18.899 -18.890 -18.887 -18.871
-18.870 -18.864 -10.118 -10.101 -10.094 -10.093 -10.076 -10.071
-10.064 -10.060 -10.059 -10.058 -10.056 -10.046 -10.043 -10.038
-10.036 -10.035 -10.023 -10.021 -10.020 -10.019  -1.029  -1.013
 -1.003  -1.001  -0.973  -0.969  -0.954  -0.936  -0.930  -0.927
 -0.767  -0.762  -0.731  -0.723  -0.715  -0.707  -0.696  -0.658
 -0.650  -0.619  -0.598  -0.580  -0.547  -0.545  -0.539  -0.536
 -0.518  -0.511  -0.485  -0.482  -0.467  -0.462  -0.457  -0.440
 -0.434  -0.433  -0.429  -0.413  -0.410  -0.405  -0.404  -0.401
 -0.399  -0.384  -0.375  -0.366  -0.363  -0.356  -0.350  -0.348
 -0.345  -0.340  -0.337  -0.332  -0.330  -0.327  -0.319  -0.315
 -0.309  -0.307  -0.304  -0.303  -0.294  -0.290  -0.279  -0.276
 -0.273  -0.261  -0.250  -0.246  -0.244  -0.237  -0.232  -0.195
 -0.174  -0.172  -0.170  -0.167  -0.157  -0.147  -0.146  -0.144
 -0.143

          Ground-State Mulliken Net Atomic Charges

     Atom                 Charge (a.u.)
  ----------------------------------------
      1 O                    -0.215179
      2 C                     0.215211
      3 C                    -0.081513
      4 C                    -0.076921
      5 C                     0.223028
      6 O                    -0.169801
      7 C                    -0.052444
      8 C                    -0.051641
      9 O                    -0.170831
     10 C                     0.217226
     11 C                    -0.077800
     12 C                    -0.079912
     13 C                     0.208690
     14 O                    -0.211878
     15 O                    -0.175969
     16 O                    -0.171861
     17 O                    -0.222231
     18 C                    -0.143616
     19 C                     0.025076
     20 C                    -0.144686
     21 C                    -0.143528
     22 C                     0.025991
     23 O                    -0.186320
     24 H                     0.084137
     25 H                     0.085122
     26 H                     0.090106
     27 H                     0.077499
     28 H                     0.072866
     29 H                     0.077982
     30 H                     0.074101
     31 H                     0.083493
     32 O                    -0.207359
     33 C                    -0.129027
     34 C                     0.024940
     35 C                    -0.143794
     36 C                    -0.143881
     37 C                     0.025466
     38 O                    -0.188634
     39 H                     0.084505
     40 H                     0.088722
     41 H                     0.094004
     42 H                     0.090382
     43 H                     0.078731
     44 H                     0.073735
     45 H                     0.078921
     46 H                     0.073862
     47 H                     0.086101
     48 H                     0.083788
     49 H                     0.088015
     50 H                     0.108806
     51 H                     0.083514
     52 H                     0.082670
     53 H                     0.083340
     54 H                     0.099408
     55 H                     0.091884
     56 H                     0.107508
  ----------------------------------------
  Sum of atomic charges =    -0.000000

                    Cartesian Multipole Moments
 -----------------------------------------------------------------
    Charge (ESU x 10^10)
                -0.0000
    Dipole Moment (Debye)
         X       0.1878      Y      -2.4710      Z      -1.3589
       Tot       2.8263
    Quadrupole Moments (Debye-Ang)
        XX    -137.9279     XY       0.9011     YY    -157.5774
        XZ      11.6617     YZ       2.1007     ZZ    -168.9543

 Total job time:  98.93s(wall), 4712.17s(cpu)
        *  Thank you very much for using Q-Chem.  Have a nice day.  *
