 Q-Chem 5.0, Q-Chem, Inc., Pleasanton, CA (2017)
 Q-Chem 5.0.1 for Intel X86 EM64T Linux

User input:
--------------------------------------------------------------
$molecule
0  1
O -3.94934 -3.66094 2.70899
C -3.26408 -4.56952 2.26188
C -3.36658 -6.02376 2.66595
C -2.16376 -6.92749 2.34915
C -0.92286 -6.23948 1.82485
O -0.10132 -5.90872 2.8646
C 1.10257 -5.25716 2.44581
C 2.15434 -5.33765 3.54737
O 2.59715 -6.69506 3.703
C 3.11324 -7.00434 4.91837
C 4.01747 -8.21339 4.88324
C 5.47561 -7.94301 5.28198
C 5.73483 -6.62625 5.98601
O 5.19764 -6.25785 7.02055
O -2.42998 -4.24245 1.2391
O 6.65905 -5.81582 5.40676
O 2.86129 -6.37505 5.93779
C 7.02771 -4.58149 5.89922
C 3.64135 -9.30881 5.89841
C 4.18781 -10.65532 5.42524
C 5.67604 -10.44683 5.63323
C 5.67004 -9.07084 6.31095
O 4.45177 -9.04582 7.01834
H 3.96878 -8.64526 3.85625
H 6.16777 -8.01483 4.41313
H 2.5474 -9.37525 6.08634
H 3.83141 -11.42039 6.15199
H 3.89114 -10.96223 4.39926
H 6.0456 -11.23163 6.32988
H 6.28908 -10.43871 4.70598
H 6.59088 -8.92779 6.91891
O -0.57345 -6.29532 0.65118
C -2.24962 -2.96873 0.73984
C -3.42493 -6.20154 4.20351
C -4.13181 -7.51276 4.54366
C -3.08663 -8.51688 4.106
C -1.93758 -7.57146 3.73547
O -2.10367 -6.47412 4.59782
H -4.33182 -6.39236 2.2521
H -2.43436 -7.69616 1.59119
H -1.86351 -2.29768 1.53659
H -3.92425 -5.35885 4.72979
H -4.21764 -7.55242 5.6536
H -5.1399 -7.65056 4.09697
H -2.81794 -9.14854 4.98164
H -3.37566 -9.15916 3.2461
H -0.96339 -8.10531 3.79686
H -3.2091 -2.57221 0.34444
H -1.50998 -3.0043 -0.08607
H 7.79613 -4.13865 5.23295
H 7.45643 -4.6884 6.91861
H 6.14764 -3.90398 5.93049
H 3.03117 -4.71336 3.26938
H 1.69052 -4.9172 4.46818
H 0.87169 -4.19322 2.21786
H 1.56231 -5.7317 1.54844
$end

$opt
CONSTRAINT
tors           1           2           3           4    -161.059
tors           3           4           5           6     +91.355
tors           4           5           6           7    +179.698
tors           5           6           7           8    -161.053
tors           6           7           8           9     +68.740
tors           7           8           9          10    -155.969
tors           8           9          10          11    -158.045
tors           9          10          11          12    +117.812
tors          11          12          13          14     +57.196
ENDCONSTRAINT
$end

$rem
JOBTYPE                   OPT
METHOD                    B3LYP
DFT_D                     d3_op
BASIS                     STO-3G
GEOM_OPT_MAX_CYCLES       100
GEOM_OPT_TOL_GRADIENT     300
GEOM_OPT_TOL_DISPLACEMENT 1200
GEOM_OPT_TOL_ENERGY       100
SYMMETRY                  False
THRESH                    12
SCF_CONVERGENCE           8
MAX_SUB_FILE_NUM          128
MEM_STATIC                400
MEM_TOTAL                 4000
$end
--------------------------------------------------------------

   15   -1510.1440775719      5.37E-09 Convergence criterion met
 Total energy in the final basis set = -1510.14407757
   14   -1510.2139968382      5.48E-09 Convergence criterion met
 Total energy in the final basis set = -1510.21399684
   14   -1510.2510757362      7.17E-09 Convergence criterion met
 Total energy in the final basis set = -1510.25107574
   14   -1510.2659691917      6.98E-09 Convergence criterion met
 Total energy in the final basis set = -1510.26596919
   14   -1510.2694869501      4.80E-09 Convergence criterion met
 Total energy in the final basis set = -1510.26948695
    2   -1510.2694869500      1.37E-09 Convergence criterion met
 Total energy in the final basis set = -1510.26948695
   13   -1510.2703255571      8.37E-09 Convergence criterion met
 Total energy in the final basis set = -1510.27032556
   13   -1510.2711954851      4.11E-09 Convergence criterion met
   11   -1510.2732498901      5.84E-09 Convergence criterion met
 Total energy in the final basis set = -1510.27324989
   11   -1510.2732630705      2.71E-09 Convergence criterion met
 Total energy in the final basis set = -1510.27326307
   11   -1510.2732732792      2.37E-09 Convergence criterion met
 Total energy in the final basis set = -1510.27327328
   11   -1510.2732852206      2.08E-09 Convergence criterion met
 Total energy in the final basis set = -1510.27328522
   11   -1510.2732928721      3.56E-09 Convergence criterion met
 Total energy in the final basis set = -1510.27329287
   10   -1510.2732975576      8.91E-09 Convergence criterion met
 Total energy in the final basis set = -1510.27329756

             Standard Nuclear Orientation (Angstroms)
    I     Atom           X                Y                Z
 ----------------------------------------------------------------
    1      O      -5.8767805546     1.0779648283     1.5769274265
    2      C      -5.1696085545     0.7814284445     0.5894837521
    3      C      -4.9616766012    -0.6694800494     0.0177472415
    4      C      -3.7061059433    -0.9229832593    -0.9217069144
    5      C      -2.9210926177     0.3463045080    -1.4139789190
    6      O      -1.8666783645     0.6296870780    -0.4838191798
    7      C      -1.1032972019     1.8187755093    -0.9259022556
    8      C       0.2689852734     1.7844224162    -0.1876781494
    9      O       1.0443890930     0.6418959230    -0.7286604738
   10      C       2.0250347813     0.2035498366     0.2322020757
   11      C       3.1437692640    -0.5675058601    -0.5479058071
   12      C       4.5937027583     0.0814074348    -0.4639588721
   13      C       4.6961661338     1.4213922125     0.3403736709
   14      O       4.3804889488     1.6514848854     1.5266324447
   15      O      -4.4708089987     1.7453651273    -0.1983768604
   16      O       5.2470144099     2.4133857571    -0.5418800730
   17      O       1.9507860332     0.4248595881     1.4588712404
   18      C       5.3752308139     3.7055328279     0.1703096641
   19      C       3.4210163230    -1.9910245716     0.1093559284
   20      C       4.2260108593    -2.8739723710    -0.9236663179
   21      C       5.6577476870    -2.2279287920    -0.8235199891
   22      C       5.4033677742    -1.0925701104     0.2454908131
   23      O       4.4136230387    -1.6934113787     1.1648701830
   24      H       2.8172490744    -0.6587776410    -1.5986654108
   25      H       4.9842448556     0.2776295126    -1.4778488746
   26      H       2.5257523380    -2.4735798459     0.5472310749
   27      H       4.2345809903    -3.9278967765    -0.6028208219
   28      H       3.8016183096    -2.8173898240    -1.9388639559
   29      H       6.4014994610    -2.9494303832    -0.4492932783
   30      H       6.0102606312    -1.8215954417    -1.7849611076
   31      H       6.2992232740    -0.7598778249     0.8045377855
   32      O      -3.0750283438     0.9380494028    -2.5047870158
   33      C      -4.6505848672     3.1042962823     0.3593096660
   34      C      -4.6278848867    -1.6500800420     1.2215573766
   35      C      -4.7971915382    -3.1443505106     0.7374526360
   36      C      -3.4842748864    -3.3436265732    -0.1074025766
   37      C      -2.8446768305    -1.9034445881    -0.0104881184
   38      O      -3.1641787854    -1.4855751779     1.3736102809
   39      H      -5.8979048348    -0.9625882909    -0.4929777614
   40      H      -4.0448145987    -1.4422941650    -1.8362397369
   41      H      -4.1661449341     3.2002978187     1.3527061676
   42      H      -5.1524089933    -1.3893615296     2.1617238362
   43      H      -4.8316987802    -3.8281545130     1.6001731382
   44      H      -5.7125048296    -3.2824645829     0.1398508134
   45      H      -2.8181299424    -4.0893931309     0.3551287868
   46      H      -3.6850473681    -3.6454544901    -1.1478181847
   47      H      -1.7535637411    -1.8506368578    -0.1883709559
   48      H      -5.7239887719     3.3625480313     0.4622605719
   49      H      -4.1678230708     3.7927413118    -0.3584357221
   50      H       5.8054544133     4.4162559715    -0.5590619066
   51      H       6.0463794128     3.6236040423     1.0495495946
   52      H       4.3904583625     4.0805439293     0.5169890884
   53      H       0.8197229945     2.7334473698    -0.3763177606
   54      H       0.1265624680     1.6676368737     0.9087748768
   55      H      -1.6512704667     2.7504986195    -0.6604006731
   56      H      -0.9617958568     1.8046844737    -2.0284549094
 ----------------------------------------------------------------

   10   -1510.2732973981      7.51E-09 Convergence criterion met
 Total energy in the final basis set = -1510.27329740
 Final energy is   -1510.27329739808
 **  OPTIMIZATION CONVERGED  **

                    Orbital Energies (a.u.)
 --------------------------------------------------------------

 Alpha MOs
 -- Occupied --
-18.944 -18.931 -18.924 -18.923 -18.889 -18.885 -18.878 -18.877
-18.875 -18.861 -10.103 -10.095 -10.095 -10.095 -10.071 -10.070
-10.070 -10.064 -10.061 -10.059 -10.057 -10.056 -10.039 -10.038
-10.037 -10.033 -10.021 -10.020 -10.019 -10.017  -1.018  -1.010
 -1.006  -1.000  -0.971  -0.968  -0.940  -0.936  -0.932  -0.925
 -0.763  -0.761  -0.726  -0.721  -0.714  -0.705  -0.695  -0.667
 -0.663  -0.613  -0.598  -0.575  -0.546  -0.543  -0.538  -0.535
 -0.515  -0.512  -0.486  -0.474  -0.468  -0.461  -0.449  -0.441
 -0.432  -0.431  -0.417  -0.415  -0.413  -0.411  -0.408  -0.404
 -0.397  -0.382  -0.373  -0.369  -0.364  -0.355  -0.353  -0.347
 -0.342  -0.335  -0.333  -0.329  -0.328  -0.325  -0.324  -0.311
 -0.308  -0.306  -0.305  -0.300  -0.296  -0.291  -0.281  -0.276
 -0.271  -0.256  -0.246  -0.245  -0.242  -0.234  -0.231  -0.183
 -0.177  -0.169  -0.168  -0.158  -0.157  -0.146  -0.144  -0.141
 -0.139

          Ground-State Mulliken Net Atomic Charges

     Atom                 Charge (a.u.)
  ----------------------------------------
      1 O                    -0.213546
      2 C                     0.213226
      3 C                    -0.077535
      4 C                    -0.081406
      5 C                     0.218432
      6 O                    -0.172534
      7 C                    -0.045791
      8 C                    -0.050149
      9 O                    -0.178488
     10 C                     0.206129
     11 C                    -0.079524
     12 C                    -0.079706
     13 C                     0.202368
     14 O                    -0.201799
     15 O                    -0.166328
     16 O                    -0.172284
     17 O                    -0.195065
     18 C                    -0.129655
     19 C                     0.026824
     20 C                    -0.144176
     21 C                    -0.143659
     22 C                     0.026973
     23 O                    -0.182760
     24 H                     0.086232
     25 H                     0.086474
     26 H                     0.084838
     27 H                     0.078188
     28 H                     0.073703
     29 H                     0.078264
     30 H                     0.073801
     31 H                     0.083993
     32 O                    -0.221866
     33 C                    -0.126261
     34 C                     0.024362
     35 C                    -0.144635
     36 C                    -0.143758
     37 C                     0.025600
     38 O                    -0.188718
     39 H                     0.085723
     40 H                     0.082646
     41 H                     0.091173
     42 H                     0.088666
     43 H                     0.078395
     44 H                     0.072972
     45 H                     0.077503
     46 H                     0.072754
     47 H                     0.088291
     48 H                     0.093631
     49 H                     0.091997
     50 H                     0.089293
     51 H                     0.089223
     52 H                     0.087555
     53 H                     0.080522
     54 H                     0.102438
     55 H                     0.082062
     56 H                     0.095386
  ----------------------------------------
  Sum of atomic charges =    -0.000000

                    Cartesian Multipole Moments
 -----------------------------------------------------------------
    Charge (ESU x 10^10)
                 0.0000
    Dipole Moment (Debye)
         X       0.5485      Y       0.2516      Z      -3.0779
       Tot       3.1365
    Quadrupole Moments (Debye-Ang)
        XX    -149.0970     XY       5.5125     YY    -140.7811
        XZ      -7.2122     YZ       4.0714     ZZ    -174.4883

 Total job time:  62.86s(wall), 2992.03s(cpu)
        *  Thank you very much for using Q-Chem.  Have a nice day.  *
