 Q-Chem 5.0, Q-Chem, Inc., Pleasanton, CA (2017)
 Q-Chem 5.0.1 for Intel X86 EM64T Linux

User input:
--------------------------------------------------------------
$molecule
0  1
O -5.8767805546 1.0779648283 1.5769274265
C -5.1696085545 0.7814284445 0.5894837521
C -4.9616766012 -0.6694800494 0.0177472415
C -3.7061059433 -0.9229832593 -0.9217069144
C -2.9210926177 0.346304508 -1.413978919
O -1.8666783645 0.629687078 -0.4838191798
C -1.1032972019 1.8187755093 -0.9259022556
C 0.2689852734 1.7844224162 -0.1876781494
O 1.044389093 0.641895923 -0.7286604738
C 2.0250347813 0.2035498366 0.2322020757
C 3.143769264 -0.5675058601 -0.5479058071
C 4.5937027583 0.0814074348 -0.4639588721
C 4.6961661338 1.4213922125 0.3403736709
O 4.3804889488 1.6514848854 1.5266324447
O -4.4708089987 1.7453651273 -0.1983768604
O 5.2470144099 2.4133857571 -0.541880073
O 1.9507860332 0.4248595881 1.4588712404
C 5.3752308139 3.7055328279 0.1703096641
C 3.421016323 -1.9910245716 0.1093559284
C 4.2260108593 -2.873972371 -0.9236663179
C 5.657747687 -2.227928792 -0.8235199891
C 5.4033677742 -1.0925701104 0.2454908131
O 4.4136230387 -1.6934113787 1.164870183
H 2.8172490744 -0.658777641 -1.5986654108
H 4.9842448556 0.2776295126 -1.4778488746
H 2.525752338 -2.4735798459 0.5472310749
H 4.2345809903 -3.9278967765 -0.6028208219
H 3.8016183096 -2.817389824 -1.9388639559
H 6.401499461 -2.9494303832 -0.4492932783
H 6.0102606312 -1.8215954417 -1.7849611076
H 6.299223274 -0.7598778249 0.8045377855
O -3.0750283438 0.9380494028 -2.5047870158
C -4.6505848672 3.1042962823 0.359309666
C -4.6278848867 -1.650080042 1.2215573766
C -4.7971915382 -3.1443505106 0.737452636
C -3.4842748864 -3.3436265732 -0.1074025766
C -2.8446768305 -1.9034445881 -0.0104881184
O -3.1641787854 -1.4855751779 1.3736102809
H -5.8979048348 -0.9625882909 -0.4929777614
H -4.0448145987 -1.442294165 -1.8362397369
H -4.1661449341 3.2002978187 1.3527061676
H -5.1524089933 -1.3893615296 2.1617238362
H -4.8316987802 -3.828154513 1.6001731382
H -5.7125048296 -3.2824645829 0.1398508134
H -2.8181299424 -4.0893931309 0.3551287868
H -3.6850473681 -3.6454544901 -1.1478181847
H -1.7535637411 -1.8506368578 -0.1883709559
H -5.7239887719 3.3625480313 0.4622605719
H -4.1678230708 3.7927413118 -0.3584357221
H 5.8054544133 4.4162559715 -0.5590619066
H 6.0463794128 3.6236040423 1.0495495946
H 4.3904583625 4.0805439293 0.5169890884
H 0.8197229945 2.7334473698 -0.3763177606
H 0.126562468 1.6676368737 0.9087748768
H -1.6512704667 2.7504986195 -0.6604006731
H -0.9617958568 1.8046844737 -2.0284549094
$end

$rem
JOBTYPE                   OPT
METHOD                    B3LYP
DFT_D                     d3_op
BASIS                     STO-3G
GEOM_OPT_MAX_CYCLES       100
GEOM_OPT_TOL_GRADIENT     300
GEOM_OPT_TOL_DISPLACEMENT 1200
GEOM_OPT_TOL_ENERGY       100
SYMMETRY                  False
THRESH                    12
SCF_CONVERGENCE           8
MAX_SUB_FILE_NUM          128
MEM_STATIC                400
MEM_TOTAL                 4000
$end
--------------------------------------------------------------

   16   -1510.2732326410      5.53E-09 Convergence criterion met
 Total energy in the final basis set = -1510.27323264
   14   -1510.2759160451      6.35E-09 Convergence criterion met
 Total energy in the final basis set = -1510.27591605
   14   -1510.2773289850      2.28E-09 Convergence criterion met
 Total energy in the final basis set = -1510.27732899
   14   -1510.2784422559      5.24E-09 Convergence criterion met
 Total energy in the final basis set = -1510.27844226
   14   -1510.2795270689      6.14E-09 Convergence criterion met
 Total energy in the final basis set = -1510.27952707
   13   -1510.2805256286      4.13E-09 Convergence criterion met
 Total energy in the final basis set = -1510.28052563
   13   -1510.2815926025      9.22E-09 Convergence criterion met
 Total energy in the final basis set = -1510.28159260
   15   -1510.2728043666      3.69E-09 Convergence criterion met
   11   -1510.2973437065      8.19E-09 Convergence criterion met
 Total energy in the final basis set = -1510.29734371
   12   -1510.2973016506      9.78E-09 Convergence criterion met
 Total energy in the final basis set = -1510.29730165
   12   -1510.2973617577      4.02E-09 Convergence criterion met
 Total energy in the final basis set = -1510.29736176
   11   -1510.2973569761      4.41E-09 Convergence criterion met
 Total energy in the final basis set = -1510.29735698
   10   -1510.2973595467      6.16E-09 Convergence criterion met
 Total energy in the final basis set = -1510.29735955
   11   -1510.2973647139      4.79E-09 Convergence criterion met
 Total energy in the final basis set = -1510.29736471

             Standard Nuclear Orientation (Angstroms)
    I     Atom           X                Y                Z
 ----------------------------------------------------------------
    1      O      -1.5385482834     1.3413720093     1.8733288410
    2      C      -2.4836285049     0.9681478872     1.1500255502
    3      C      -2.8575449171    -0.4987927420     0.7355106875
    4      C      -3.2934534098    -0.6566411627    -0.7810771280
    5      C      -2.9594646585     0.6223709468    -1.6287807470
    6      O      -1.6230458135     1.0037532648    -1.2835303277
    7      C      -1.1854814881     2.2069645148    -2.0249291831
    8      C       0.2128129697     2.5748525341    -1.4236729732
    9      O       1.1870784039     1.4944048217    -1.6994233991
   10      C       1.3873239247     0.6949353658    -0.5188034053
   11      C       2.3832303720    -0.4588449272    -0.8707441283
   12      C       3.6622437163    -0.4871405011     0.0711300964
   13      C       3.6258774506     0.6301829298     1.1725518900
   14      O       3.6628877505     0.4870645017     2.4119144260
   15      O      -3.4824515131     1.8502212516     0.6068227517
   16      O       3.5417375821     1.8998009538     0.5066029192
   17      O       0.8392216695     0.9214871711     0.5817481209
   18      C       3.3103963076     2.9747626764     1.4966885055
   19      C       1.7484923252    -1.8831910327    -0.5531250952
   20      C       2.6232359685    -2.9758567646    -1.2823364203
   21      C       3.9061269773    -3.0064836917    -0.3693567497
   22      C       3.5305900206    -1.9255069467     0.7193908324
   23      O       2.0679454870    -2.0869428603     0.8787118217
   24      H       2.6635390442    -0.3595624157    -1.9335840142
   25      H       4.5889748799    -0.3752149246    -0.5211037239
   26      H       0.6416336498    -1.9236973948    -0.7067229592
   27      H       2.1062411229    -3.9487578059    -1.2808493137
   28      H       2.8507471934    -2.7001763800    -2.3244257102
   29      H       4.0450027753    -3.9931983491     0.1005128146
   30      H       4.8259755625    -2.7447090763    -0.9166080048
   31      H       4.0417522919    -2.0254643633     1.6967368913
   32      O      -3.6654865151     1.1994208817    -2.4817343840
   33      C      -3.1749592656     3.2489734190     0.9756036516
   34      C      -1.6169055904    -1.4843870217     0.8146337049
   35      C      -2.1692686166    -2.9525275469     0.9570672352
   36      C      -2.7851734335    -3.1786204567    -0.4754590065
   37      C      -2.3483162171    -1.8548141659    -1.2208692027
   38      O      -1.0760842261    -1.4801844451    -0.5655967237
   39      H      -3.6691900586    -0.8415281515     1.4041805737
   40      H      -4.3655302004    -0.8934542740    -0.8937663324
   41      H      -2.1314648290     3.5205879976     0.7172200971
   42      H      -0.8304510058    -1.1751654435     1.5318346508
   43      H      -1.3411222259    -3.6523953684     1.1531033445
   44      H      -2.9135745707    -3.0472133161     1.7634238399
   45      H      -2.3511362990    -4.0620328338    -0.9702312325
   46      H      -3.8810857652    -3.2908430250    -0.4525485113
   47      H      -2.2070465692    -1.9535410641    -2.3149102299
   48      H      -3.3217467819     3.4246867843     2.0613339338
   49      H      -3.8789021841     3.8803617790     0.4025997038
   50      H       3.3468604158     3.9253546160     0.9334897828
   51      H       4.0856719745     2.9794617298     2.2894666516
   52      H       2.3145317358     2.8632122091     1.9739892364
   53      H       0.5960685471     3.5048098333    -1.8920376894
   54      H       0.1183500341     2.6997235064    -0.3223044419
   55      H      -1.9030959992     3.0461766753    -1.8902480608
   56      H      -1.1017037174     1.9917823798    -3.1129068045
 ----------------------------------------------------------------

    9   -1510.2973651812      6.98E-09 Convergence criterion met
 Total energy in the final basis set = -1510.29736518
 Final energy is   -1510.29736518123
 **  OPTIMIZATION CONVERGED  **

                    Orbital Energies (a.u.)
 --------------------------------------------------------------

 Alpha MOs
 -- Occupied --
-18.931 -18.930 -18.923 -18.921 -18.902 -18.876 -18.874 -18.869
-18.869 -18.862 -10.099 -10.097 -10.090 -10.087 -10.073 -10.068
-10.066 -10.064 -10.060 -10.055 -10.045 -10.040 -10.037 -10.029
-10.026 -10.024 -10.022 -10.021 -10.009 -10.006  -1.016  -1.005
 -1.003  -0.995  -0.979  -0.954  -0.937  -0.934  -0.928  -0.923
 -0.766  -0.750  -0.729  -0.714  -0.709  -0.702  -0.686  -0.662
 -0.653  -0.612  -0.595  -0.573  -0.548  -0.540  -0.533  -0.524
 -0.514  -0.498  -0.487  -0.471  -0.467  -0.452  -0.441  -0.439
 -0.434  -0.423  -0.419  -0.414  -0.409  -0.406  -0.403  -0.398
 -0.391  -0.374  -0.369  -0.364  -0.357  -0.353  -0.349  -0.343
 -0.341  -0.339  -0.337  -0.330  -0.324  -0.322  -0.315  -0.313
 -0.305  -0.298  -0.294  -0.293  -0.289  -0.284  -0.277  -0.274
 -0.259  -0.253  -0.250  -0.244  -0.238  -0.232  -0.216  -0.176
 -0.175  -0.169  -0.163  -0.156  -0.152  -0.148  -0.146  -0.140
 -0.129

          Ground-State Mulliken Net Atomic Charges

     Atom                 Charge (a.u.)
  ----------------------------------------
      1 O                    -0.201115
      2 C                     0.216367
      3 C                    -0.077358
      4 C                    -0.076603
      5 C                     0.215352
      6 O                    -0.173126
      7 C                    -0.046906
      8 C                    -0.052959
      9 O                    -0.173338
     10 C                     0.217983
     11 C                    -0.079613
     12 C                    -0.079029
     13 C                     0.213757
     14 O                    -0.207809
     15 O                    -0.176067
     16 O                    -0.175205
     17 O                    -0.212536
     18 C                    -0.130013
     19 C                     0.004851
     20 C                    -0.145527
     21 C                    -0.144759
     22 C                     0.024100
     23 O                    -0.194577
     24 H                     0.082765
     25 H                     0.082202
     26 H                     0.110707
     27 H                     0.072469
     28 H                     0.069717
     29 H                     0.074487
     30 H                     0.070000
     31 H                     0.085841
     32 O                    -0.214291
     33 C                    -0.128795
     34 C                     0.027416
     35 C                    -0.143134
     36 C                    -0.144822
     37 C                     0.027204
     38 O                    -0.185954
     39 H                     0.084503
     40 H                     0.086435
     41 H                     0.087240
     42 H                     0.107537
     43 H                     0.082645
     44 H                     0.075401
     45 H                     0.078669
     46 H                     0.075378
     47 H                     0.084062
     48 H                     0.087414
     49 H                     0.089943
     50 H                     0.086209
     51 H                     0.089328
     52 H                     0.093558
     53 H                     0.084658
     54 H                     0.101197
     55 H                     0.086483
     56 H                     0.087658
  ----------------------------------------
  Sum of atomic charges =    -0.000000

                    Cartesian Multipole Moments
 -----------------------------------------------------------------
    Charge (ESU x 10^10)
                -0.0000
    Dipole Moment (Debye)
         X      -0.9527      Y       0.2028      Z      -1.5341
       Tot       1.8172
    Quadrupole Moments (Debye-Ang)
        XX    -154.5916     XY       3.8818     YY    -143.1316
        XZ     -10.1323     YZ       3.4786     ZZ    -166.6944

 Total job time:  128.33s(wall), 6120.48s(cpu)
        *  Thank you very much for using Q-Chem.  Have a nice day.  *
