 Q-Chem 5.0, Q-Chem, Inc., Pleasanton, CA (2017)
 Q-Chem 5.0.1 for Intel X86 EM64T Linux

User input:
--------------------------------------------------------------
$molecule
0  1
O -3.94934 -3.66094 2.70899
C -3.26408 -4.56952 2.26188
C -3.36658 -6.02376 2.66595
C -2.3426 -6.99592 2.05749
C -1.22117 -6.37748 1.2525
O -0.07914 -7.11015 1.40869
C 0.86759 -6.90906 0.35393
C 1.94567 -7.98678 0.40274
O 3.01045 -7.65524 -0.50236
C 3.68156 -8.71143 -1.02505
C 5.03289 -8.33232 -1.5826
C 5.64696 -9.35886 -2.54562
C 4.6981 -10.41181 -3.08196
O 4.88767 -11.09578 -4.07736
O -2.29508 -4.10286 1.4397
O 3.42456 -10.56454 -2.6322
O 3.62489 -9.78011 -0.41731
C 2.47728 -11.45135 -3.1113
C 4.99788 -7.08452 -2.49684
C 6.38468 -6.44543 -2.54297
C 7.14134 -7.47458 -3.35504
C 5.9969 -8.42637 -3.72189
O 4.86528 -7.59619 -3.79784
H 5.69239 -8.11472 -0.71168
H 6.53616 -9.88517 -2.13567
H 4.24679 -6.32223 -2.19745
H 6.29107 -5.51521 -3.14851
H 6.83295 -6.19464 -1.55755
H 7.55006 -6.9746 -4.26109
H 7.95243 -8.00694 -2.81231
H 6.24969 -8.98532 -4.64988
O -1.48249 -5.87183 0.16282
C -2.10451 -2.78807 1.0547
C -3.11288 -6.20513 4.1717
C -3.78354 -7.48603 4.65792
C -2.88643 -8.52432 4.025
C -1.82268 -7.6222 3.3853
O -1.74699 -6.51931 4.25245
H -4.40764 -6.3286 2.41643
H -2.80861 -7.77898 1.41853
H -1.90578 -2.15245 1.94389
H -3.45232 -5.34145 4.78489
H -3.65245 -7.52833 5.76312
H -4.8634 -7.57647 4.41152
H -2.43777 -9.13802 4.83805
H -3.37526 -9.18591 3.27757
H -0.891 -8.21688 3.27979
H -3.00054 -2.41394 0.51484
H -1.22977 -2.73249 0.37491
H 1.54158 -11.33194 -2.5277
H 2.83919 -12.49542 -2.997
H 2.25968 -11.24098 -4.18019
H 2.36853 -8.01689 1.43052
H 1.45701 -8.96368 0.17741
H 1.32827 -5.90282 0.47152
H 0.40957 -6.99518 -0.65857
$end

$opt
CONSTRAINT
tors           1           2           3           4    -175.717
tors           3           4           5           6    +146.173
tors           4           5           6           7    +158.805
tors           5           6           7           8    -166.215
tors           6           7           8           9    -170.168
tors           7           8           9          10    -150.847
tors           8           9          10          11    -161.053
tors           9          10          11          12    -162.377
tors          11          12          13          14    +161.120
ENDCONSTRAINT
$end

$rem
JOBTYPE                   OPT
METHOD                    B3LYP
DFT_D                     d3_op
BASIS                     STO-3G
GEOM_OPT_MAX_CYCLES       100
GEOM_OPT_TOL_GRADIENT     300
GEOM_OPT_TOL_DISPLACEMENT 1200
GEOM_OPT_TOL_ENERGY       100
SYMMETRY                  False
THRESH                    12
SCF_CONVERGENCE           8
MAX_SUB_FILE_NUM          128
MEM_STATIC                400
MEM_TOTAL                 4000
$end
--------------------------------------------------------------

   15   -1510.0643416452      7.29E-09 Convergence criterion met
 Total energy in the final basis set = -1510.06434165
   14   -1510.1468229534      4.23E-09 Convergence criterion met
 Total energy in the final basis set = -1510.14682295
   14   -1510.1942334220      5.21E-09 Convergence criterion met
 Total energy in the final basis set = -1510.19423342
   14   -1510.2216332600      5.33E-09 Convergence criterion met
 Total energy in the final basis set = -1510.22163326
   13   -1510.2368134329      6.78E-09 Convergence criterion met
 Total energy in the final basis set = -1510.23681343
   12   -1510.2444764392      6.99E-09 Convergence criterion met
 Total energy in the final basis set = -1510.24447644
   12   -1510.2488220881      8.31E-09 Convergence criterion met
 Total energy in the final basis set = -1510.24882209
   13   -1510.2510402916      2.63E-09 Convergence criterion met
   10   -1510.2568935765      8.92E-09 Convergence criterion met
 Total energy in the final basis set = -1510.25689358
   11   -1510.2569103787      5.62E-09 Convergence criterion met
 Total energy in the final basis set = -1510.25691038
    9   -1510.2569179118      8.56E-09 Convergence criterion met
 Total energy in the final basis set = -1510.25691791
    9   -1510.2569235780      9.12E-09 Convergence criterion met
 Total energy in the final basis set = -1510.25692358
    9   -1510.2569259011      5.75E-09 Convergence criterion met
 Total energy in the final basis set = -1510.25692590
    9   -1510.2569274316      3.94E-09 Convergence criterion met
 Total energy in the final basis set = -1510.25692743

             Standard Nuclear Orientation (Angstroms)
    I     Atom           X                Y                Z
 ----------------------------------------------------------------
    1      O       6.7914227365    -2.1131261195    -0.7130097887
    2      C       5.7304771780    -1.4611962346    -0.5954150812
    3      C       5.5784394144     0.0921641671    -0.8094134816
    4      C       4.1511589320     0.6889652986    -0.4971060057
    5      C       2.9302252147    -0.2626083467    -0.7674796947
    6      O       1.9132781189     0.0122708856     0.2094129736
    7      C       0.5926536812    -0.4558607875    -0.2775409967
    8      C      -0.4686779552     0.1966301879     0.6666039200
    9      O      -1.7831401813    -0.4249609082     0.3752411320
   10      C      -2.8452186503     0.5089534488     0.6495299989
   11      C      -4.1663966897    -0.3233759304     0.8000771938
   12      C      -5.5596512534     0.4134408097     0.6875923197
   13      C      -5.7091220817     1.6133158155    -0.3326534166
   14      O      -6.8086997069     2.0394692496    -0.7530780070
   15      O       4.5372918847    -2.0011791004    -0.0218493596
   16      O      -4.4551958834     2.0459038414    -0.8533120667
   17      O      -2.6532758826     1.7144412219     0.9132449897
   18      C      -4.6701417258     3.0800042754    -1.8920071635
   19      C      -4.3788242932    -1.5664273267    -0.1782591763
   20      C      -5.0669692835    -2.6964850949     0.6787201325
   21      C      -6.4709418019    -2.0332386032     0.9414319488
   22      C      -6.3986714942    -0.7581749547     0.0091715687
   23      O      -5.4736436561    -1.1516279310    -1.0853255947
   24      H      -4.0958152348    -0.7197249359     1.8322651418
   25      H      -5.9497220718     0.7189884771     1.6753430746
   26      H      -3.4786896223    -1.8666813012    -0.7481090901
   27      H      -5.1647560503    -3.6201204907     0.0853776536
   28      H      -4.5162099187    -2.9253032584     1.6051439756
   29      H      -7.2987294968    -2.6918639180     0.6350867029
   30      H      -6.6155530552    -1.7568937866     1.9984665451
   31      H      -7.3672670831    -0.4160882312    -0.4047660641
   32      O       2.7389654412    -0.9659409116    -1.7827419992
   33      C       4.7140151985    -3.4379432944     0.2835702133
   34      C       6.3956877304     0.7489808789     0.3894765510
   35      C       6.4015114973     2.3253844142     0.2596433506
   36      C       4.9781492394     2.6926958757     0.8239076718
   37      C       4.3529544045     1.2526151974     0.9776815743
   38      O       5.4869022301     0.4751916539     1.5308776869
   39      H       5.9583971194     0.3740591593    -1.8071366503
   40      H       3.9791196088     1.5450706559    -1.1784940684
   41      H       5.5632184837    -3.6031130387     0.9776983003
   42      H       7.3868250372     0.2852892327     0.5604332452
   43      H       7.2091434241     2.7624645740     0.8675488145
   44      H       6.5350571931     2.6463616730    -0.7860498140
   45      H       5.0518219367     3.1845077251     1.8072632602
   46      H       4.3983788311     3.3382893346     0.1449515769
   47      H       3.4606581958     1.1720220828     1.6274295808
   48      H       4.8879359510    -4.0317489164    -0.6370529195
   49      H       3.7719974329    -3.7641180877     0.7614326748
   50      H      -3.6634117328     3.3474850567    -2.2621282829
   51      H      -5.1645558699     3.9809233474    -1.4754018149
   52      H      -5.2870860198     2.6933567500    -2.7287885323
   53      H      -0.1926251668    -0.0009475426     1.7262131400
   54      H      -0.5247569495     1.2962905058     0.5195164168
   55      H       0.5163971513    -1.5648476435    -0.2234297961
   56      H       0.4268305293    -0.1549714280    -1.3342027510
 ----------------------------------------------------------------

    9   -1510.2569283911      2.65E-09 Convergence criterion met
 Total energy in the final basis set = -1510.25692839
 Final energy is   -1510.25692839113
 **  OPTIMIZATION CONVERGED  **

                    Orbital Energies (a.u.)
 --------------------------------------------------------------

 Alpha MOs
 -- Occupied --
-18.937 -18.935 -18.930 -18.929 -18.886 -18.886 -18.880 -18.871
-18.869 -18.866 -10.103 -10.101 -10.098 -10.096 -10.074 -10.072
-10.064 -10.062 -10.060 -10.060 -10.058 -10.058 -10.040 -10.039
-10.039 -10.037 -10.022 -10.022 -10.020 -10.020  -1.015  -1.013
 -1.008  -1.005  -0.971  -0.970  -0.940  -0.935  -0.931  -0.930
 -0.764  -0.763  -0.726  -0.723  -0.718  -0.704  -0.693  -0.661
 -0.660  -0.615  -0.599  -0.579  -0.545  -0.545  -0.538  -0.538
 -0.519  -0.510  -0.485  -0.479  -0.468  -0.462  -0.445  -0.442
 -0.437  -0.434  -0.429  -0.413  -0.413  -0.409  -0.407  -0.401
 -0.393  -0.380  -0.375  -0.371  -0.363  -0.359  -0.354  -0.349
 -0.339  -0.337  -0.334  -0.331  -0.330  -0.317  -0.315  -0.311
 -0.309  -0.308  -0.305  -0.299  -0.298  -0.295  -0.291  -0.276
 -0.273  -0.253  -0.248  -0.245  -0.244  -0.234  -0.234  -0.181
 -0.177  -0.174  -0.170  -0.156  -0.154  -0.149  -0.149  -0.143
 -0.141

          Ground-State Mulliken Net Atomic Charges

     Atom                 Charge (a.u.)
  ----------------------------------------
      1 O                    -0.216392
      2 C                     0.213479
      3 C                    -0.076337
      4 C                    -0.079032
      5 C                     0.219935
      6 O                    -0.178446
      7 C                    -0.045724
      8 C                    -0.051105
      9 O                    -0.179171
     10 C                     0.215677
     11 C                    -0.079296
     12 C                    -0.075895
     13 C                     0.211740
     14 O                    -0.219806
     15 O                    -0.165452
     16 O                    -0.162588
     17 O                    -0.205342
     18 C                    -0.126120
     19 C                     0.024106
     20 C                    -0.141218
     21 C                    -0.146383
     22 C                     0.023374
     23 O                    -0.192901
     24 H                     0.083634
     25 H                     0.085162
     26 H                     0.090188
     27 H                     0.078015
     28 H                     0.073183
     29 H                     0.078946
     30 H                     0.073371
     31 H                     0.089285
     32 O                    -0.217381
     33 C                    -0.125329
     34 C                     0.023777
     35 C                    -0.145707
     36 C                    -0.141696
     37 C                     0.023379
     38 O                    -0.192352
     39 H                     0.086947
     40 H                     0.082340
     41 H                     0.091998
     42 H                     0.086104
     43 H                     0.078663
     44 H                     0.073858
     45 H                     0.077827
     46 H                     0.072945
     47 H                     0.091938
     48 H                     0.090329
     49 H                     0.091215
     50 H                     0.090732
     51 H                     0.089586
     52 H                     0.090799
     53 H                     0.084571
     54 H                     0.098782
     55 H                     0.088299
     56 H                     0.089489
  ----------------------------------------
  Sum of atomic charges =     0.000000

                    Cartesian Multipole Moments
 -----------------------------------------------------------------
    Charge (ESU x 10^10)
                 0.0000
    Dipole Moment (Debye)
         X      -0.0702      Y       0.3575      Z       1.1852
       Tot       1.2400
    Quadrupole Moments (Debye-Ang)
        XX    -174.5187     XY      16.4431     YY    -153.1696
        XZ      -8.0351     YZ      -8.4969     ZZ    -160.8332

 Total job time:  69.21s(wall), 3289.45s(cpu)
        *  Thank you very much for using Q-Chem.  Have a nice day.  *
