 Q-Chem 5.0, Q-Chem, Inc., Pleasanton, CA (2017)
 Q-Chem 5.0.1 for Intel X86 EM64T Linux

User input:
--------------------------------------------------------------
$molecule
0  1
O 6.7914227365 -2.1131261195 -0.7130097887
C 5.730477178 -1.4611962346 -0.5954150812
C 5.5784394144 0.0921641671 -0.8094134816
C 4.151158932 0.6889652986 -0.4971060057
C 2.9302252147 -0.2626083467 -0.7674796947
O 1.9132781189 0.0122708856 0.2094129736
C 0.5926536812 -0.4558607875 -0.2775409967
C -0.4686779552 0.1966301879 0.66660392
O -1.7831401813 -0.4249609082 0.375241132
C -2.8452186503 0.5089534488 0.6495299989
C -4.1663966897 -0.3233759304 0.8000771938
C -5.5596512534 0.4134408097 0.6875923197
C -5.7091220817 1.6133158155 -0.3326534166
O -6.8086997069 2.0394692496 -0.753078007
O 4.5372918847 -2.0011791004 -0.0218493596
O -4.4551958834 2.0459038414 -0.8533120667
O -2.6532758826 1.7144412219 0.9132449897
C -4.6701417258 3.0800042754 -1.8920071635
C -4.3788242932 -1.5664273267 -0.1782591763
C -5.0669692835 -2.6964850949 0.6787201325
C -6.4709418019 -2.0332386032 0.9414319488
C -6.3986714942 -0.7581749547 0.0091715687
O -5.4736436561 -1.151627931 -1.0853255947
H -4.0958152348 -0.7197249359 1.8322651418
H -5.9497220718 0.7189884771 1.6753430746
H -3.4786896223 -1.8666813012 -0.7481090901
H -5.1647560503 -3.6201204907 0.0853776536
H -4.5162099187 -2.9253032584 1.6051439756
H -7.2987294968 -2.691863918 0.6350867029
H -6.6155530552 -1.7568937866 1.9984665451
H -7.3672670831 -0.4160882312 -0.4047660641
O 2.7389654412 -0.9659409116 -1.7827419992
C 4.7140151985 -3.4379432944 0.2835702133
C 6.3956877304 0.7489808789 0.389476551
C 6.4015114973 2.3253844142 0.2596433506
C 4.9781492394 2.6926958757 0.8239076718
C 4.3529544045 1.2526151974 0.9776815743
O 5.4869022301 0.4751916539 1.5308776869
H 5.9583971194 0.3740591593 -1.8071366503
H 3.9791196088 1.5450706559 -1.1784940684
H 5.5632184837 -3.6031130387 0.9776983003
H 7.3868250372 0.2852892327 0.5604332452
H 7.2091434241 2.762464574 0.8675488145
H 6.5350571931 2.646361673 -0.786049814
H 5.0518219367 3.1845077251 1.8072632602
H 4.3983788311 3.3382893346 0.1449515769
H 3.4606581958 1.1720220828 1.6274295808
H 4.887935951 -4.0317489164 -0.6370529195
H 3.7719974329 -3.7641180877 0.7614326748
H -3.6634117328 3.3474850567 -2.2621282829
H -5.1645558699 3.9809233474 -1.4754018149
H -5.2870860198 2.69335675 -2.7287885323
H -0.1926251668 -0.0009475426 1.72621314
H -0.5247569495 1.2962905058 0.5195164168
H 0.5163971513 -1.5648476435 -0.2234297961
H 0.4268305293 -0.154971428 -1.334202751
$end

$rem
JOBTYPE                   OPT
METHOD                    B3LYP
DFT_D                     d3_op
BASIS                     STO-3G
GEOM_OPT_MAX_CYCLES       100
GEOM_OPT_TOL_GRADIENT     300
GEOM_OPT_TOL_DISPLACEMENT 1200
GEOM_OPT_TOL_ENERGY       100
SYMMETRY                  False
THRESH                    12
SCF_CONVERGENCE           8
MAX_SUB_FILE_NUM          128
MEM_STATIC                400
MEM_TOTAL                 4000
$end
--------------------------------------------------------------

   16   -1510.2569754274      5.58E-09 Convergence criterion met
 Total energy in the final basis set = -1510.25697543
   13   -1510.2611550515      5.30E-09 Convergence criterion met
 Total energy in the final basis set = -1510.26115505
   13   -1510.2640671938      3.87E-09 Convergence criterion met
 Total energy in the final basis set = -1510.26406719
   13   -1510.2667834084      5.70E-09 Convergence criterion met
 Total energy in the final basis set = -1510.26678341
   13   -1510.2690771541      3.03E-09 Convergence criterion met
 Total energy in the final basis set = -1510.26907715
   13   -1510.2711074830      3.29E-09 Convergence criterion met
 Total energy in the final basis set = -1510.27110748
   13   -1510.2732497306      6.23E-09 Convergence criterion met
 Total energy in the final basis set = -1510.27324973
   14   -1510.2753039128      2.67E-09 Convergence criterion met
   12   -1510.2897918439      7.51E-09 Convergence criterion met
 Total energy in the final basis set = -1510.28979184
   12   -1510.2898745131      5.41E-09 Convergence criterion met
 Total energy in the final basis set = -1510.28987451
   12   -1510.2899106866      5.12E-09 Convergence criterion met
 Total energy in the final basis set = -1510.28991069
   11   -1510.2899201288      7.70E-09 Convergence criterion met
 Total energy in the final basis set = -1510.28992013
   10   -1510.2899238615      9.60E-09 Convergence criterion met
 Total energy in the final basis set = -1510.28992386
   10   -1510.2899225898      5.70E-09 Convergence criterion met
 Total energy in the final basis set = -1510.28992259

             Standard Nuclear Orientation (Angstroms)
    I     Atom           X                Y                Z
 ----------------------------------------------------------------
    1      O       4.1276660648    -0.8027933163    -3.0274589746
    2      C       3.9662535089    -0.4373214631    -1.8437837525
    3      C       4.4096087809     0.9153319189    -1.1963965148
    4      C       3.2862694319     1.5993690944    -0.3024975155
    5      C       1.9446306882     0.7796526263    -0.2833995091
    6      O       1.7033846712     0.2613967156     1.0238298027
    7      C       0.4495207195    -0.5316326898     1.0569301321
    8      C      -0.5617881121     0.1420799659     2.0470507102
    9      O      -1.8664552259    -0.5449386282     1.9027126460
   10      C      -2.9017032883     0.4079335125     1.6299251030
   11      C      -4.2560173590    -0.3443149703     1.3598255197
   12      C      -4.8103454566    -0.0893028990    -0.1093331125
   13      C      -3.9213317932     0.8579655782    -0.9828644878
   14      O      -4.3107860961     1.8429339947    -1.6474502477
   15      O       3.3306149280    -1.2314613120    -0.8331738809
   16      O      -2.5626875343     0.4133307935    -0.9228342507
   17      O      -2.7335691343     1.6479204318     1.6510603053
   18      C      -1.6920396419     1.3486639147    -1.6761707000
   19      C      -4.1195330939    -1.9232991700     1.3585789945
   20      C      -5.5667761773    -2.5523361700     1.4365864926
   21      C      -6.0823227531    -2.3183420388    -0.0317437406
   22      C      -4.8422858706    -1.5789527296    -0.6725519480
   23      O      -3.6803055467    -2.2247338453    -0.0240295403
   24      H      -4.9889043563     0.0027801686     2.1114330450
   25      H      -5.8241219740     0.3470802423    -0.0821400813
   26      H      -3.3888428210    -2.3159705754     2.0904569073
   27      H      -5.5071107778    -3.6255569707     1.6773534196
   28      H      -6.1957358484    -2.0560284263     2.1928552024
   29      H      -6.2712765798    -3.2715974007    -0.5507403925
   30      H      -6.9975157746    -1.7062860529    -0.0708488023
   31      H      -4.7645972592    -1.6558098736    -1.7745209246
   32      O       1.1722369484     0.6355887171    -1.2616880210
   33      C       2.7790738185    -2.4720682421    -1.4231601239
   34      C       5.5615920582     0.7126012414    -0.1141358191
   35      C       6.2253306732     2.1184882472     0.1618411843
   36      C       5.1100445314     2.8131199237     1.0271043714
   37      C       4.0203704299     1.6709306406     1.1003165711
   38      O       4.8201239774     0.4242535568     1.1323873428
   39      H       4.7384662005     1.5820882810    -2.0125905350
   40      H       3.0493911741     2.6071131069    -0.6905317181
   41      H       3.5647138980    -3.0689547069    -1.9289417842
   42      H       6.2691878476    -0.1074121573    -0.3446412025
   43      H       7.1610822803     1.9962258033     0.7304646596
   44      H       6.4459718079     2.6640037519    -0.7696666847
   45      H       5.4764308456     3.0608443076     2.0359696631
   46      H       4.7174416509     3.7299488514     0.5590264652
   47      H       3.3385830029     1.7169511330     1.9701438651
   48      H       1.9770099340    -2.2455561168    -2.1555474288
   49      H       2.3569974608    -3.0489498893    -0.5799780315
   50      H      -0.6450816770     1.0010434567    -1.5290743464
   51      H      -1.8025889503     2.3835960486    -1.2945301850
   52      H      -1.9433418698     1.3455433949    -2.7557518057
   53      H      -0.2103193371     0.0408369579     3.0955540801
   54      H      -0.7014841345     1.2201592810     1.8107214365
   55      H       0.7046000367    -1.5564323036     1.3976133217
   56      H       0.0115826137    -0.5770023506     0.0372210214
 ----------------------------------------------------------------

   10   -1510.2899216153      7.69E-09 Convergence criterion met
 Total energy in the final basis set = -1510.28992162
 Final energy is   -1510.28992161527
 **  OPTIMIZATION CONVERGED  **

                    Orbital Energies (a.u.)
 --------------------------------------------------------------

 Alpha MOs
 -- Occupied --
-18.942 -18.939 -18.932 -18.925 -18.891 -18.886 -18.881 -18.879
-18.870 -18.867 -10.111 -10.102 -10.100 -10.091 -10.069 -10.067
-10.066 -10.064 -10.061 -10.059 -10.057 -10.043 -10.041 -10.039
-10.037 -10.034 -10.023 -10.022 -10.019 -10.018  -1.021  -1.013
 -1.010  -1.000  -0.973  -0.968  -0.944  -0.940  -0.935  -0.927
 -0.767  -0.761  -0.729  -0.723  -0.715  -0.706  -0.694  -0.662
 -0.647  -0.616  -0.598  -0.579  -0.550  -0.544  -0.540  -0.536
 -0.518  -0.510  -0.488  -0.478  -0.473  -0.466  -0.451  -0.437
 -0.433  -0.430  -0.426  -0.416  -0.412  -0.410  -0.401  -0.400
 -0.397  -0.379  -0.375  -0.369  -0.361  -0.360  -0.352  -0.348
 -0.343  -0.341  -0.334  -0.331  -0.328  -0.325  -0.317  -0.311
 -0.308  -0.306  -0.303  -0.300  -0.299  -0.292  -0.288  -0.279
 -0.271  -0.256  -0.252  -0.248  -0.241  -0.236  -0.232  -0.187
 -0.180  -0.170  -0.166  -0.165  -0.157  -0.154  -0.147  -0.144
 -0.142

          Ground-State Mulliken Net Atomic Charges

     Atom                 Charge (a.u.)
  ----------------------------------------
      1 O                    -0.207921
      2 C                     0.210332
      3 C                    -0.079385
      4 C                    -0.077226
      5 C                     0.223517
      6 O                    -0.165658
      7 C                    -0.052910
      8 C                    -0.053845
      9 O                    -0.171189
     10 C                     0.217060
     11 C                    -0.077564
     12 C                    -0.079934
     13 C                     0.208144
     14 O                    -0.212590
     15 O                    -0.167204
     16 O                    -0.172838
     17 O                    -0.221209
     18 C                    -0.144702
     19 C                     0.024656
     20 C                    -0.144729
     21 C                    -0.143613
     22 C                     0.025878
     23 O                    -0.187119
     24 H                     0.084166
     25 H                     0.084708
     26 H                     0.090687
     27 H                     0.077289
     28 H                     0.072838
     29 H                     0.077572
     30 H                     0.074037
     31 H                     0.083050
     32 O                    -0.226461
     33 C                    -0.128425
     34 C                     0.026173
     35 C                    -0.143559
     36 C                    -0.144429
     37 C                     0.025387
     38 O                    -0.185240
     39 H                     0.086665
     40 H                     0.085748
     41 H                     0.091514
     42 H                     0.083588
     43 H                     0.078703
     44 H                     0.074684
     45 H                     0.078454
     46 H                     0.073661
     47 H                     0.091228
     48 H                     0.092409
     49 H                     0.091858
     50 H                     0.109335
     51 H                     0.083519
     52 H                     0.082200
     53 H                     0.083655
     54 H                     0.100544
     55 H                     0.088506
     56 H                     0.105990
  ----------------------------------------
  Sum of atomic charges =     0.000000

                    Cartesian Multipole Moments
 -----------------------------------------------------------------
    Charge (ESU x 10^10)
                -0.0000
    Dipole Moment (Debye)
         X       0.7074      Y      -0.5394      Z       1.7550
       Tot       1.9676
    Quadrupole Moments (Debye-Ang)
        XX    -146.6433     XY      16.4285     YY    -157.4274
        XZ      -4.2585     YZ       0.1623     ZZ    -165.0361

 Total job time:  123.02s(wall), 5864.17s(cpu)
        *  Thank you very much for using Q-Chem.  Have a nice day.  *
