 Q-Chem 5.0, Q-Chem, Inc., Pleasanton, CA (2017)
 Q-Chem 5.0.1 for Intel X86 EM64T Linux

User input:
--------------------------------------------------------------
$molecule
0  1
O -6.0461440838 0.1097093234 1.3821319475
C -5.5779442852 0.4646055482 0.2801505847
C -4.7768690859 -0.4186438608 -0.7467511591
C -3.2178201823 -0.1529576711 -0.7680422801
C -2.7181333461 0.8591580714 0.325365546
O -1.2605245701 0.909562816 0.3609776392
C -0.8041517833 2.1245025998 -0.3490949735
C 0.7091516405 1.8861013311 -0.7097788055
O 1.2611260725 1.0028055474 0.3365702236
C 2.7143976919 0.97047726 0.2230706402
C 3.1883225772 -0.4534570552 -0.2565860561
C 4.7422743389 -0.6697336897 -0.1072735609
C 5.6051729253 0.6431270872 -0.0833297735
O 6.571286674 0.9003513324 0.6652834191
O -5.8027849123 1.7460426571 -0.3266432003
O 5.2780599784 1.3976486725 -1.2626372949
O 3.443105107 1.9209165548 0.5733922238
C 6.0812030452 2.6385926804 -1.3035143854
C 2.6604301441 -1.4929127996 0.8251083919
C 3.0158855416 -2.9673997253 0.3793746036
C 4.5411677898 -3.0509712146 0.7631819794
C 4.8123240459 -1.5610419139 1.2043054007
O 3.5809445645 -1.2190694252 1.9559236953
H 2.808592668 -0.6448898711 -1.276099762
H 5.1109802064 -1.2526538359 -0.9724204856
H 1.6074413147 -1.3235157831 1.1242096299
H 2.4128401574 -3.6979785695 0.9413323811
H 2.8424425235 -3.1214247415 -0.6979463353
H 4.7035325988 -3.736494049 1.6103588646
H 5.1792226874 -3.3670338968 -0.0773986575
H 5.7132530373 -1.3903408158 1.8257605697
O -3.4376420367 1.484684906 1.1308401276
C -6.5110953218 2.6299835017 0.6250646212
C -4.8129068067 -1.9557218948 -0.3540840009
C -4.4250124842 -2.8026546682 -1.6284538156
C -2.8780859018 -2.5243839676 -1.717319762
C -2.6589547053 -1.6071738812 -0.4499608741
O -3.6369749394 -2.1214357085 0.5340394938
H -5.2071515387 -0.2455467683 -1.7492482168
H -2.8711493881 0.2082321462 -1.7537700642
H -5.8972985305 2.8194588916 1.5296189836
H -5.7366724475 -2.2685094253 0.1698899592
H -4.6319229515 -3.8709476386 -1.4564511892
H -4.9699504617 -2.4774276646 -2.5290147911
H -2.2927917392 -3.4532114563 -1.6256176051
H -2.5894714464 -2.0168316705 -2.6517407517
H -1.6340191448 -1.6079965727 -0.0297795321
H -7.4823420153 2.197596143 0.9417661984
H -6.6860034735 3.5815219176 0.0898800907
H 5.7870905181 3.331852049 -0.4886615619
H 5.8716745908 3.1101432956 -2.2813363902
H 7.1666554582 2.4289603382 -1.2140490662
H 0.7869391357 1.3931099275 -1.7066429066
H 1.2400862973 2.8634706449 -0.7637669344
H -0.9077792367 3.021777851 0.3031481771
H -1.3780859494 2.310603006 -1.2848067677
$end

$rem
JOBTYPE                   OPT
METHOD                    B3LYP
DFT_D                     d3_op
BASIS                     STO-3G
GEOM_OPT_MAX_CYCLES       100
GEOM_OPT_TOL_GRADIENT     300
GEOM_OPT_TOL_DISPLACEMENT 1200
GEOM_OPT_TOL_ENERGY       100
SYMMETRY                  False
THRESH                    12
SCF_CONVERGENCE           8
MAX_SUB_FILE_NUM          128
MEM_STATIC                400
MEM_TOTAL                 4000
$end
--------------------------------------------------------------

   16   -1510.2405212415      2.36E-09 Convergence criterion met
 Total energy in the final basis set = -1510.24052124
   13   -1510.2440266327      4.91E-09 Convergence criterion met
 Total energy in the final basis set = -1510.24402663
   13   -1510.2480475103      4.87E-09 Convergence criterion met
 Total energy in the final basis set = -1510.24804751
   13   -1510.2501665865      4.63E-09 Convergence criterion met
 Total energy in the final basis set = -1510.25016659
   13   -1510.2555826289      4.91E-09 Convergence criterion met
 Total energy in the final basis set = -1510.25558263
   13   -1510.2616792454      4.57E-09 Convergence criterion met
 Total energy in the final basis set = -1510.26167925
   13   -1510.2665610437      5.16E-09 Convergence criterion met
 Total energy in the final basis set = -1510.26656104
   13   -1510.2700309258      7.35E-09 Convergence criterion met
   13   -1510.3054171548      5.21E-09 Convergence criterion met
 Total energy in the final basis set = -1510.30541715
   12   -1510.3055585781      7.88E-09 Convergence criterion met
 Total energy in the final basis set = -1510.30555858
   12   -1510.3056090972      4.76E-09 Convergence criterion met
 Total energy in the final basis set = -1510.30560910
   12   -1510.3056002327      6.23E-09 Convergence criterion met
 Total energy in the final basis set = -1510.30560023
   11   -1510.3056317214      8.45E-09 Convergence criterion met
 Total energy in the final basis set = -1510.30563172
   11   -1510.3056385091      5.61E-09 Convergence criterion met
 Total energy in the final basis set = -1510.30563851

             Standard Nuclear Orientation (Angstroms)
    I     Atom           X                Y                Z
 ----------------------------------------------------------------
    1      O      -1.6170239946    -1.1413662476     1.1746372321
    2      C      -2.6143142971    -0.8319137143     0.4777382524
    3      C      -2.6803928004    -0.7326417174    -1.0928450546
    4      C      -1.9430284396     0.5512350098    -1.6474499492
    5      C      -1.7260718806     1.6402318321    -0.5469812828
    6      O      -1.0635233849     2.7657052871    -1.1258686154
    7      C      -0.7799522884     3.7903529322    -0.0895116585
    8      C       0.6625087796     3.5849334104     0.5051959917
    9      O       0.7548994386     2.2580674405     1.1558711428
   10      C       1.2654423059     1.2903130783     0.2282078045
   11      C       1.1405266395    -0.1350143531     0.8399782948
   12      C       2.0541615983    -1.2080095799     0.1178517867
   13      C       3.0048571852    -0.6014611512    -0.9726925854
   14      O       4.1252412239    -0.0722524346    -0.8123532757
   15      O      -3.9275630391    -0.6504309994     1.0073273455
   16      O       2.4026890151    -0.8259767559    -2.2605460052
   17      O       1.6913530473     1.5870941502    -0.9140947658
   18      C       3.2143830034    -0.1764137585    -3.3122637523
   19      C       1.6527616314    -0.2479473962     2.3367158041
   20      C       1.0252819362    -1.5644366578     2.9426006785
   21      C       1.8920251473    -2.6646561472     2.2238994052
   22      C       2.8666757549    -1.7733483979     1.3552385322
   23      O       3.0903018973    -0.5742349888     2.1964736444
   24      H       0.0695861216    -0.4499687909     0.7799421776
   25      H       1.4142778716    -1.9617583690    -0.3736455302
   26      H       1.5140590257     0.6710965012     2.9383475236
   27      H       1.1583398301    -1.5939539331     4.0357307392
   28      H      -0.0474598756    -1.6437342284     2.6996372326
   29      H       2.4617255668    -3.2701382525     2.9468835540
   30      H       1.2853849090    -3.3383620531     1.5977238700
   31      H       3.8338531191    -2.2440556616     1.0931061534
   32      O      -2.1118804938     1.5793453056     0.6443237126
   33      C      -3.8808758232    -0.7023561257     2.4871058949
   34      C      -1.7728257870    -1.8707472792    -1.7183100980
   35      C      -1.9041813034    -1.8625833429    -3.2939402322
   36      C      -0.9750736673    -0.6492048984    -3.6789562542
   37      C      -0.6087013613    -0.0940619151    -2.2520370345
   38      O      -0.4178913239    -1.3352472139    -1.4684939717
   39      H      -3.7360700499    -0.7781346209    -1.4126703634
   40      H      -2.5288544234     1.0207200539    -2.4589526914
   41      H      -3.2380111763     0.1048560001     2.8933847492
   42      H      -1.8916407023    -2.8622270749    -1.2402279084
   43      H      -1.5334645080    -2.8095623473    -3.7168016522
   44      H      -2.9474555707    -1.7171997398    -3.6180738956
   45      H      -0.0623668123    -0.9922138395    -4.1920614699
   46      H      -1.4812361238     0.0976822390    -4.3108970441
   47      H       0.2998518999     0.5394323987    -2.1788340622
   48      H      -3.4975812325    -1.6783455158     2.8489058838
   49      H      -4.9217435087    -0.5604686451     2.8310244625
   50      H       3.2662124203     0.9212168847    -3.1596468346
   51      H       2.7053873511    -0.3916390250    -4.2700121190
   52      H       4.2485178147    -0.5767828011    -3.3442626997
   53      H       1.4178312886     3.6574248893    -0.3060192868
   54      H       0.8557386531     4.3486828546     1.2855662055
   55      H      -1.5344896096     3.7186772486     0.7224018743
   56      H      -0.8450293035     4.7776033945    -0.5906112877
 ----------------------------------------------------------------

   11   -1510.3056379974      7.63E-09 Convergence criterion met
 Total energy in the final basis set = -1510.30563800
 Final energy is   -1510.30563799740
 **  OPTIMIZATION CONVERGED  **

                    Orbital Energies (a.u.)
 --------------------------------------------------------------

 Alpha MOs
 -- Occupied --
-18.948 -18.938 -18.935 -18.909 -18.891 -18.890 -18.874 -18.874
-18.867 -18.847 -10.112 -10.105 -10.096 -10.079 -10.075 -10.074
-10.064 -10.063 -10.056 -10.046 -10.043 -10.041 -10.040 -10.039
-10.022 -10.019 -10.010 -10.008 -10.001  -9.996  -1.029  -1.013
 -1.009  -0.986  -0.974  -0.951  -0.950  -0.936  -0.936  -0.912
 -0.767  -0.744  -0.727  -0.720  -0.704  -0.699  -0.683  -0.664
 -0.645  -0.619  -0.593  -0.570  -0.548  -0.540  -0.528  -0.520
 -0.515  -0.500  -0.486  -0.471  -0.461  -0.458  -0.443  -0.439
 -0.433  -0.426  -0.417  -0.414  -0.411  -0.406  -0.398  -0.395
 -0.392  -0.381  -0.372  -0.366  -0.359  -0.356  -0.349  -0.345
 -0.340  -0.335  -0.332  -0.330  -0.322  -0.318  -0.313  -0.308
 -0.307  -0.304  -0.295  -0.289  -0.285  -0.278  -0.274  -0.266
 -0.260  -0.256  -0.252  -0.244  -0.236  -0.231  -0.213  -0.200
 -0.178  -0.171  -0.165  -0.157  -0.154  -0.150  -0.145  -0.128
 -0.124

          Ground-State Mulliken Net Atomic Charges

     Atom                 Charge (a.u.)
  ----------------------------------------
      1 O                    -0.222848
      2 C                     0.223242
      3 C                    -0.080504
      4 C                    -0.081580
      5 C                     0.210132
      6 O                    -0.168312
      7 C                    -0.052985
      8 C                    -0.053659
      9 O                    -0.170407
     10 C                     0.210453
     11 C                    -0.092900
     12 C                    -0.084296
     13 C                     0.210317
     14 O                    -0.220912
     15 O                    -0.166474
     16 O                    -0.172962
     17 O                    -0.219749
     18 C                    -0.129126
     19 C                     0.023390
     20 C                    -0.148035
     21 C                    -0.143785
     22 C                     0.024350
     23 O                    -0.192971
     24 H                     0.116672
     25 H                     0.097680
     26 H                     0.083182
     27 H                     0.070079
     28 H                     0.087414
     29 H                     0.072204
     30 H                     0.072250
     31 H                     0.080240
     32 O                    -0.208124
     33 C                    -0.127659
     34 C                     0.025653
     35 C                    -0.144875
     36 C                    -0.141426
     37 C                     0.021676
     38 O                    -0.187238
     39 H                     0.086647
     40 H                     0.087486
     41 H                     0.095483
     42 H                     0.082569
     43 H                     0.078910
     44 H                     0.072887
     45 H                     0.081417
     46 H                     0.072929
     47 H                     0.105451
     48 H                     0.088423
     49 H                     0.090020
     50 H                     0.089326
     51 H                     0.081339
     52 H                     0.084859
     53 H                     0.102186
     54 H                     0.091025
     55 H                     0.099614
     56 H                     0.091322
  ----------------------------------------
  Sum of atomic charges =    -0.000000

                    Cartesian Multipole Moments
 -----------------------------------------------------------------
    Charge (ESU x 10^10)
                 0.0000
    Dipole Moment (Debye)
         X      -4.4040      Y       0.6688      Z      -1.5840
       Tot       4.7277
    Quadrupole Moments (Debye-Ang)
        XX    -168.3071     XY      -0.2943     YY    -145.7968
        XZ      -2.6369     YZ       0.8663     ZZ    -152.2016

 Total job time:  164.73s(wall), 7854.56s(cpu)
        *  Thank you very much for using Q-Chem.  Have a nice day.  *
