 Q-Chem 5.0, Q-Chem, Inc., Pleasanton, CA (2017)
 Q-Chem 5.0.1 for Intel X86 EM64T Linux

User input:
--------------------------------------------------------------
$molecule
0  1
O -3.94934 -3.66094 2.70899
C -3.26408 -4.56952 2.26188
C -3.36658 -6.02376 2.66595
C -2.27432 -6.57256 3.5985
C -1.30151 -5.56245 4.16542
O -0.50592 -6.15921 5.10155
C 0.79897 -6.48129 4.60882
C 1.45391 -7.53005 5.50173
O 0.9742 -7.39451 6.84873
C 1.65964 -8.09618 7.78519
C 0.85744 -9.2328 8.37277
C 1.46198 -9.86776 9.63358
C 2.55484 -9.07 10.31617
O 2.67019 -8.91435 11.52325
O -2.2921 -4.27487 1.35826
O 3.72374 -8.95203 9.63228
O 2.85195 -8.25664 7.57901
C 4.90415 -8.3863 10.08448
C -0.52988 -8.81346 8.90782
C -1.45959 -10.0247 8.90938
C -0.85049 -10.84493 10.02801
C 0.21357 -9.8646 10.53875
O -0.3341 -8.59469 10.28276
H 0.71887 -9.97777 7.55606
H 1.8676 -10.88618 9.44569
H -0.99822 -7.97804 8.34356
H -2.45905 -9.65993 9.23935
H -1.56851 -10.55349 7.93806
H -1.6345 -11.02491 10.79666
H -0.39134 -11.80795 9.71569
H 0.4542 -10.08627 11.60153
O -1.18498 -4.38164 3.87828
C -2.03354 -3.00708 0.88074
C -4.61607 -6.28061 3.54029
C -5.00913 -7.75619 3.47825
C -3.90642 -8.3738 4.30734
C -3.15429 -7.11438 4.74668
O -4.15787 -6.1385 4.86004
H -3.48293 -6.60863 1.72616
H -1.67372 -7.37812 3.12086
H -1.74929 -2.33332 1.71717
H -5.48926 -5.65299 3.25598
H -5.9701 -7.86772 4.03009
H -5.12425 -8.1703 2.45351
H -4.36739 -8.87305 5.18884
H -3.247 -9.08822 3.76858
H -2.5845 -7.33049 5.67671
H -2.92896 -2.60394 0.36113
H -1.19243 -3.05481 0.15916
H 5.18871 -7.55511 9.40699
H 5.70601 -9.15265 10.06381
H 4.82373 -7.98022 11.11503
H 1.13438 -8.53667 5.15208
H 2.55738 -7.44221 5.38321
H 1.39618 -5.54597 4.68674
H 0.81781 -6.81866 3.54675
$end

$opt
CONSTRAINT
tors           1           2           3           4    -104.134
tors           3           4           5           6    +172.181
tors           4           5           6           7    +101.564
tors           5           6           7           8    -161.053
tors           6           7           8           9     -29.791
tors           7           8           9          10    -168.106
tors           8           9          10          11    -111.428
tors           9          10          11          12    -167.579
tors          11          12          13          14    +137.702
ENDCONSTRAINT
$end

$rem
JOBTYPE                   OPT
METHOD                    B3LYP
DFT_D                     d3_op
BASIS                     STO-3G
GEOM_OPT_MAX_CYCLES       100
GEOM_OPT_TOL_GRADIENT     300
GEOM_OPT_TOL_DISPLACEMENT 1200
GEOM_OPT_TOL_ENERGY       100
SYMMETRY                  False
THRESH                    12
SCF_CONVERGENCE           8
MAX_SUB_FILE_NUM          128
MEM_STATIC                400
MEM_TOTAL                 4000
$end
--------------------------------------------------------------

   15   -1510.0753704896      7.68E-09 Convergence criterion met
 Total energy in the final basis set = -1510.07537049
   14   -1510.1504530709      6.69E-09 Convergence criterion met
 Total energy in the final basis set = -1510.15045307
   14   -1510.1913469489      7.81E-09 Convergence criterion met
 Total energy in the final basis set = -1510.19134695
    2   -1510.1913469489      2.10E-09 Convergence criterion met
 Total energy in the final basis set = -1510.19134695
   14   -1510.2115441925      9.76E-09 Convergence criterion met
 Total energy in the final basis set = -1510.21154419
   14   -1510.2225621376      4.22E-09 Convergence criterion met
 Total energy in the final basis set = -1510.22256214
   13   -1510.2278846779      6.17E-09 Convergence criterion met
 Total energy in the final basis set = -1510.22788468
   12   -1510.2309557923      9.60E-09 Convergence criterion met
   12   -1510.2404868967      2.22E-09 Convergence criterion met
 Total energy in the final basis set = -1510.24048690
   11   -1510.2405191145      6.27E-09 Convergence criterion met
 Total energy in the final basis set = -1510.24051911
   11   -1510.2405270632      2.96E-09 Convergence criterion met
 Total energy in the final basis set = -1510.24052706
    9   -1510.2405304369      2.74E-09 Convergence criterion met
 Total energy in the final basis set = -1510.24053044
    9   -1510.2405372841      6.42E-09 Convergence criterion met
 Total energy in the final basis set = -1510.24053728
    9   -1510.2405393960      4.18E-09 Convergence criterion met
 Total energy in the final basis set = -1510.24053940

             Standard Nuclear Orientation (Angstroms)
    I     Atom           X                Y                Z
 ----------------------------------------------------------------
    1      O      -6.0461440838     0.1097093234     1.3821319475
    2      C      -5.5779442852     0.4646055482     0.2801505847
    3      C      -4.7768690859    -0.4186438608    -0.7467511591
    4      C      -3.2178201823    -0.1529576711    -0.7680422801
    5      C      -2.7181333461     0.8591580714     0.3253655460
    6      O      -1.2605245701     0.9095628160     0.3609776392
    7      C      -0.8041517833     2.1245025998    -0.3490949735
    8      C       0.7091516405     1.8861013311    -0.7097788055
    9      O       1.2611260725     1.0028055474     0.3365702236
   10      C       2.7143976919     0.9704772600     0.2230706402
   11      C       3.1883225772    -0.4534570552    -0.2565860561
   12      C       4.7422743389    -0.6697336897    -0.1072735609
   13      C       5.6051729253     0.6431270872    -0.0833297735
   14      O       6.5712866740     0.9003513324     0.6652834191
   15      O      -5.8027849123     1.7460426571    -0.3266432003
   16      O       5.2780599784     1.3976486725    -1.2626372949
   17      O       3.4431051070     1.9209165548     0.5733922238
   18      C       6.0812030452     2.6385926804    -1.3035143854
   19      C       2.6604301441    -1.4929127996     0.8251083919
   20      C       3.0158855416    -2.9673997253     0.3793746036
   21      C       4.5411677898    -3.0509712146     0.7631819794
   22      C       4.8123240459    -1.5610419139     1.2043054007
   23      O       3.5809445645    -1.2190694252     1.9559236953
   24      H       2.8085926680    -0.6448898711    -1.2760997620
   25      H       5.1109802064    -1.2526538359    -0.9724204856
   26      H       1.6074413147    -1.3235157831     1.1242096299
   27      H       2.4128401574    -3.6979785695     0.9413323811
   28      H       2.8424425235    -3.1214247415    -0.6979463353
   29      H       4.7035325988    -3.7364940490     1.6103588646
   30      H       5.1792226874    -3.3670338968    -0.0773986575
   31      H       5.7132530373    -1.3903408158     1.8257605697
   32      O      -3.4376420367     1.4846849060     1.1308401276
   33      C      -6.5110953218     2.6299835017     0.6250646212
   34      C      -4.8129068067    -1.9557218948    -0.3540840009
   35      C      -4.4250124842    -2.8026546682    -1.6284538156
   36      C      -2.8780859018    -2.5243839676    -1.7173197620
   37      C      -2.6589547053    -1.6071738812    -0.4499608741
   38      O      -3.6369749394    -2.1214357085     0.5340394938
   39      H      -5.2071515387    -0.2455467683    -1.7492482168
   40      H      -2.8711493881     0.2082321462    -1.7537700642
   41      H      -5.8972985305     2.8194588916     1.5296189836
   42      H      -5.7366724475    -2.2685094253     0.1698899592
   43      H      -4.6319229515    -3.8709476386    -1.4564511892
   44      H      -4.9699504617    -2.4774276646    -2.5290147911
   45      H      -2.2927917392    -3.4532114563    -1.6256176051
   46      H      -2.5894714464    -2.0168316705    -2.6517407517
   47      H      -1.6340191448    -1.6079965727    -0.0297795321
   48      H      -7.4823420153     2.1975961430     0.9417661984
   49      H      -6.6860034735     3.5815219176     0.0898800907
   50      H       5.7870905181     3.3318520490    -0.4886615619
   51      H       5.8716745908     3.1101432956    -2.2813363902
   52      H       7.1666554582     2.4289603382    -1.2140490662
   53      H       0.7869391357     1.3931099275    -1.7066429066
   54      H       1.2400862973     2.8634706449    -0.7637669344
   55      H      -0.9077792367     3.0217778510     0.3031481771
   56      H      -1.3780859494     2.3106030060    -1.2848067677
 ----------------------------------------------------------------

    9   -1510.2405395499      5.08E-09 Convergence criterion met
 Total energy in the final basis set = -1510.24053955
 Final energy is   -1510.24053954990
 **  OPTIMIZATION CONVERGED  **

                    Orbital Energies (a.u.)
 --------------------------------------------------------------

 Alpha MOs
 -- Occupied --
-18.923 -18.922 -18.917 -18.911 -18.910 -18.909 -18.889 -18.885
-18.868 -18.864 -10.116 -10.112 -10.095 -10.092 -10.082 -10.081
-10.063 -10.059 -10.059 -10.058 -10.057 -10.055 -10.043 -10.040
-10.035 -10.035 -10.024 -10.022 -10.021 -10.019  -1.018  -1.014
 -1.001  -0.999  -0.972  -0.969  -0.952  -0.936  -0.929  -0.926
 -0.765  -0.763  -0.727  -0.724  -0.715  -0.706  -0.699  -0.657
 -0.656  -0.609  -0.602  -0.583  -0.548  -0.545  -0.540  -0.537
 -0.519  -0.508  -0.489  -0.470  -0.459  -0.457  -0.457  -0.450
 -0.444  -0.434  -0.431  -0.413  -0.408  -0.405  -0.404  -0.401
 -0.395  -0.387  -0.376  -0.367  -0.364  -0.358  -0.353  -0.348
 -0.344  -0.340  -0.339  -0.333  -0.332  -0.330  -0.326  -0.318
 -0.312  -0.310  -0.309  -0.303  -0.297  -0.282  -0.280  -0.278
 -0.274  -0.256  -0.249  -0.247  -0.243  -0.235  -0.232  -0.172
 -0.169  -0.167  -0.167  -0.161  -0.160  -0.147  -0.146  -0.144
 -0.143

          Ground-State Mulliken Net Atomic Charges

     Atom                 Charge (a.u.)
  ----------------------------------------
      1 O                    -0.214217
      2 C                     0.214240
      3 C                    -0.082658
      4 C                    -0.080381
      5 C                     0.226807
      6 O                    -0.189018
      7 C                    -0.042734
      8 C                    -0.042194
      9 O                    -0.186508
     10 C                     0.227859
     11 C                    -0.077750
     12 C                    -0.081984
     13 C                     0.215518
     14 O                    -0.214744
     15 O                    -0.177148
     16 O                    -0.177765
     17 O                    -0.177618
     18 C                    -0.128888
     19 C                     0.022966
     20 C                    -0.145221
     21 C                    -0.142050
     22 C                     0.023267
     23 O                    -0.190664
     24 H                     0.083432
     25 H                     0.082869
     26 H                     0.092838
     27 H                     0.079214
     28 H                     0.071806
     29 H                     0.078765
     30 H                     0.072735
     31 H                     0.091262
     32 O                    -0.170921
     33 C                    -0.128712
     34 C                     0.025028
     35 C                    -0.143788
     36 C                    -0.144096
     37 C                     0.024268
     38 O                    -0.187681
     39 H                     0.083069
     40 H                     0.080656
     41 H                     0.092884
     42 H                     0.089674
     43 H                     0.078610
     44 H                     0.073030
     45 H                     0.078108
     46 H                     0.071541
     47 H                     0.089772
     48 H                     0.087117
     49 H                     0.085920
     50 H                     0.090659
     51 H                     0.085702
     52 H                     0.088792
     53 H                     0.072801
     54 H                     0.085062
     55 H                     0.084473
     56 H                     0.075995
  ----------------------------------------
  Sum of atomic charges =    -0.000000

                    Cartesian Multipole Moments
 -----------------------------------------------------------------
    Charge (ESU x 10^10)
                -0.0000
    Dipole Moment (Debye)
         X      -0.3625      Y      -0.1883      Z      -6.2279
       Tot       6.2412
    Quadrupole Moments (Debye-Ang)
        XX    -169.1061     XY      -7.8352     YY    -149.3725
        XZ       0.8377     YZ      -0.8361     ZZ    -164.6087

 Total job time:  115.11s(wall), 5487.46s(cpu)
        *  Thank you very much for using Q-Chem.  Have a nice day.  *
