 Q-Chem 5.0, Q-Chem, Inc., Pleasanton, CA (2017)
 Q-Chem 5.0.1 for Intel X86 EM64T Linux

User input:
--------------------------------------------------------------
$molecule
0  1
O 4.3011650232 -1.2350122894 1.1310398069
C 4.8904296996 -0.4601966637 0.3470720808
C 4.496835274 1.005537781 -0.041624998
C 3.0743841318 1.1298899773 -0.7704154658
C 2.4408440436 -0.3116752535 -0.9922501537
O 1.7561607342 -0.9443950664 0.1249696766
C 0.2786930678 -0.8687225453 0.0680291115
C -0.4609812356 0.3993322365 -0.498370008
O -1.9090259737 0.2154230356 -0.2325136035
C -2.6070714893 -0.112893188 -1.4394894215
C -4.1403265871 -0.196314701 -1.1445024017
C -4.572131255 -0.9552849038 0.1841411665
C -3.4089756014 -1.5876958131 1.0298292546
O -2.8643783769 -1.1279846772 2.0552204911
O 6.0859275166 -0.8025118885 -0.3674621472
O -3.0572206401 -2.8340677643 0.4129538151
O -2.0548596509 -0.2454205875 -2.5544322258
C -2.0312158841 -3.5413427193 1.2128557903
C -4.7329504285 1.2552244467 -0.8521890003
C -6.3058415518 1.1929827768 -0.9897826319
C -6.7016188023 0.4687039185 0.3504100238
C -5.279158032 0.2175490185 0.9871818359
O -4.5103155066 1.4226053526 0.5988203583
H -4.6139089665 -0.6523035035 -2.0321134885
H -5.2839348427 -1.762686671 -0.0646991687
H -4.243943233 2.0713079006 -1.4190464239
H -6.7261524318 2.2100630546 -1.0407515327
H -6.6220271762 0.6354067689 -1.8858077089
H -7.3047139437 1.1231165239 0.9998698735
H -7.2538915223 -0.4696404823 0.1820670284
H -5.2588098874 0.0884904404 2.0865349506
O 2.6285523077 -0.9334363977 -2.0622275355
C 6.4795778196 -2.1959365459 -0.0536363519
C 4.2741071238 1.9126110681 1.2430512171
C 4.3681867034 3.4206003091 0.7887859719
C 3.0122866949 3.5746794294 0.0072309228
C 2.3655378948 2.1451893149 0.2189049535
O 2.8398498841 1.7328034455 1.5560331644
H 5.2995280309 1.4080252811 -0.6839653912
H 3.2003380965 1.5638954851 -1.7784458587
H 5.7027526776 -2.9195605828 -0.3753682586
H 4.8973493308 1.636253824 2.1153945307
H 4.4070075416 4.0859419974 1.6658846604
H 5.2507080034 3.6113124929 0.1575602619
H 2.3722724445 4.3516224012 0.4542725474
H 3.1593355161 3.8087634404 -1.059113783
H 1.2652015257 2.1533863026 0.1899193761
H 6.661152395 -2.3353192316 1.0316232157
H 7.4140662147 -2.3832407451 -0.6138815951
H -1.5675059777 -4.287202259 0.5412056021
H -2.4942898445 -4.0638876255 2.0754416481
H -1.2591456921 -2.8470952222 1.5975204773
H -0.1774961291 1.3163300941 0.0482435278
H -0.2868000394 0.5168013628 -1.5893327918
H -0.045647269 -1.0015019695 1.1221746483
H -0.1095686407 -1.7384871039 -0.5143981909
$end

$rem
JOBTYPE                   OPT
METHOD                    B3LYP
DFT_D                     d3_op
BASIS                     STO-3G
GEOM_OPT_MAX_CYCLES       100
GEOM_OPT_TOL_GRADIENT     300
GEOM_OPT_TOL_DISPLACEMENT 1200
GEOM_OPT_TOL_ENERGY       100
SYMMETRY                  False
THRESH                    12
SCF_CONVERGENCE           8
MAX_SUB_FILE_NUM          128
MEM_STATIC                400
MEM_TOTAL                 4000
$end
--------------------------------------------------------------

   16   -1510.2488398808      5.67E-09 Convergence criterion met
 Total energy in the final basis set = -1510.24883988
   14   -1510.2534761394      3.40E-09 Convergence criterion met
 Total energy in the final basis set = -1510.25347614
   14   -1510.2596889107      2.95E-09 Convergence criterion met
 Total energy in the final basis set = -1510.25968891
   13   -1510.2654489505      5.01E-09 Convergence criterion met
 Total energy in the final basis set = -1510.26544895
   13   -1510.2696703070      4.07E-09 Convergence criterion met
 Total energy in the final basis set = -1510.26967031
   13   -1510.2726667601      8.90E-09 Convergence criterion met
 Total energy in the final basis set = -1510.27266676
   13   -1510.2756472322      5.88E-09 Convergence criterion met
 Total energy in the final basis set = -1510.27564723
   13   -1510.2782737077      7.67E-09 Convergence criterion met
   12   -1510.2892731625      4.09E-09 Convergence criterion met
 Total energy in the final basis set = -1510.28927316
   12   -1510.2892670035      3.39E-09 Convergence criterion met
 Total energy in the final basis set = -1510.28926700
   11   -1510.2892869174      8.59E-09 Convergence criterion met
 Total energy in the final basis set = -1510.28928692
   11   -1510.2892907631      4.49E-09 Convergence criterion met
 Total energy in the final basis set = -1510.28929076
   11   -1510.2892924971      3.01E-09 Convergence criterion met
 Total energy in the final basis set = -1510.28929250
   10   -1510.2892939088      5.12E-09 Convergence criterion met
 Total energy in the final basis set = -1510.28929391

             Standard Nuclear Orientation (Angstroms)
    I     Atom           X                Y                Z
 ----------------------------------------------------------------
    1      O       2.1222809777    -1.0029531642    -0.5248977271
    2      C       3.3005054640    -0.8682014918    -0.1198305076
    3      C       4.2197299215     0.3947351934    -0.2618730133
    4      C       3.4418063138     1.7052632682    -0.6997798121
    5      C       1.9017872632     1.4862103509    -0.9178509132
    6      O       1.2552024026     1.4538649561     0.3637023243
    7      C      -0.1328293337     0.9674836623     0.2143837763
    8      C      -1.1565599226     2.0559012170    -0.2777838581
    9      O      -2.5119043271     1.4519423617    -0.2551109664
   10      C      -2.7174823193     0.6481682375    -1.4242023938
   11      C      -4.0609832074    -0.1362989543    -1.2567418306
   12      C      -3.9925576900    -1.2867208647    -0.1575252888
   13      C      -2.6073814450    -1.4357417584     0.5688110192
   14      O      -2.3089983542    -1.0508779926     1.7212794410
   15      O       4.0404492242    -1.8964504315     0.5361811490
   16      O      -1.7177909206    -2.1486205088    -0.3000665559
   17      O      -1.9358432980     0.5992641420    -2.3987904054
   18      C      -0.4479063748    -2.4753485366     0.3977178258
   19      C      -5.2266461763     0.7645973599    -0.6616323543
   20      C      -6.6003159334     0.0198532954    -0.8993519226
   21      C      -6.5287103932    -1.1076430473     0.1973709712
   22      C      -5.1218818341    -0.8074801991     0.8488848457
   23      O      -5.0268500839     0.6690220212     0.8010456478
   24      H      -4.3270337182    -0.5560262360    -2.2426814492
   25      H      -4.2384412753    -2.2618459601    -0.6155025083
   26      H      -5.2002749920     1.8221819285    -0.9880363619
   27      H      -7.4450141506     0.7038795885    -0.7202710208
   28      H      -6.6825638895    -0.3839269234    -1.9210470207
   29      H      -7.3300245868    -0.9949688274     0.9447360154
   30      H      -6.5832252490    -2.1219936921    -0.2291578176
   31      H      -4.9850696797    -1.1676973878     1.8867771006
   32      O       1.3089764935     1.4145035609    -2.0158502659
   33      C       3.2094431857    -3.1135090107     0.6925905561
   34      C       4.8297853389     0.8534123309     1.1323571482
   35      C       6.0284095764     1.8420951350     0.8460731002
   36      C       5.2534256725     3.1439273967     0.4205570243
   37      C       3.7547190182     2.6567565399     0.5338789012
   38      O       3.7783863054     1.7309960186     1.6906440112
   39      H       5.0222866161     0.1446170952    -0.9803694414
   40      H       3.8549833487     2.1065994596    -1.6417005265
   41      H       2.7941163396    -3.4528799888    -0.2779047392
   42      H       5.0545144231     0.0168294786     1.8219045749
   43      H       6.6189258738     2.0041959603     1.7619956432
   44      H       6.6980164331     1.4654255907     0.0563850263
   45      H       5.4419645553     3.9729112073     1.1209347834
   46      H       5.5063519742     3.4773368023    -0.5986298572
   47      H       3.0068786174     3.4566738312     0.6947616355
   48      H       2.3706200154    -2.9415139958     1.3973665567
   49      H       3.8812682279    -3.8897009841     1.1027177033
   50      H       0.4134313210    -1.9876110520    -0.1101489150
   51      H      -0.3175783647    -3.5749105166     0.3730160089
   52      H      -0.5072427883    -2.1235391996     1.4470832892
   53      H      -1.1879869807     2.9200400607     0.4145145844
   54      H      -0.8820903245     2.3866180307    -1.3016813016
   55      H      -0.4428815466     0.5993968169     1.2136429760
   56      H      -0.1612001785     0.1288752781    -0.5106286813
 ----------------------------------------------------------------

    9   -1510.2892938421      4.78E-09 Convergence criterion met
 Total energy in the final basis set = -1510.28929384
 Final energy is   -1510.28929384209
 **  OPTIMIZATION CONVERGED  **

                    Orbital Energies (a.u.)
 --------------------------------------------------------------

 Alpha MOs
 -- Occupied --
-18.951 -18.926 -18.925 -18.919 -18.894 -18.889 -18.883 -18.872
-18.869 -18.863 -10.115 -10.095 -10.091 -10.091 -10.075 -10.062
-10.060 -10.058 -10.056 -10.054 -10.054 -10.044 -10.043 -10.035
-10.034 -10.033 -10.022 -10.020 -10.017 -10.016  -1.027  -1.007
 -1.002  -0.998  -0.971  -0.965  -0.950  -0.931  -0.929  -0.924
 -0.765  -0.759  -0.725  -0.720  -0.712  -0.703  -0.685  -0.672
 -0.653  -0.610  -0.595  -0.580  -0.547  -0.541  -0.538  -0.533
 -0.515  -0.506  -0.486  -0.474  -0.467  -0.457  -0.448  -0.440
 -0.435  -0.428  -0.425  -0.422  -0.413  -0.408  -0.403  -0.391
 -0.384  -0.380  -0.370  -0.363  -0.362  -0.356  -0.346  -0.344
 -0.339  -0.339  -0.332  -0.329  -0.328  -0.325  -0.320  -0.317
 -0.307  -0.305  -0.302  -0.301  -0.292  -0.285  -0.279  -0.278
 -0.270  -0.264  -0.248  -0.241  -0.236  -0.233  -0.229  -0.192
 -0.180  -0.172  -0.163  -0.156  -0.152  -0.145  -0.144  -0.140
 -0.138

          Ground-State Mulliken Net Atomic Charges

     Atom                 Charge (a.u.)
  ----------------------------------------
      1 O                    -0.210134
      2 C                     0.220453
      3 C                    -0.077339
      4 C                    -0.081578
      5 C                     0.212594
      6 O                    -0.173941
      7 C                    -0.055382
      8 C                    -0.054516
      9 O                    -0.167936
     10 C                     0.203826
     11 C                    -0.078458
     12 C                    -0.077600
     13 C                     0.207612
     14 O                    -0.213824
     15 O                    -0.166417
     16 O                    -0.172660
     17 O                    -0.205693
     18 C                    -0.149882
     19 C                     0.026780
     20 C                    -0.144173
     21 C                    -0.144190
     22 C                     0.025401
     23 O                    -0.183991
     24 H                     0.085256
     25 H                     0.084989
     26 H                     0.084055
     27 H                     0.077362
     28 H                     0.073253
     29 H                     0.077487
     30 H                     0.072548
     31 H                     0.087372
     32 O                    -0.211751
     33 C                    -0.128632
     34 C                     0.024857
     35 C                    -0.143700
     36 C                    -0.144291
     37 C                     0.026816
     38 O                    -0.186333
     39 H                     0.087507
     40 H                     0.083891
     41 H                     0.092785
     42 H                     0.088377
     43 H                     0.078419
     44 H                     0.073371
     45 H                     0.078302
     46 H                     0.073980
     47 H                     0.086377
     48 H                     0.091095
     49 H                     0.094243
     50 H                     0.104605
     51 H                     0.076854
     52 H                     0.093687
     53 H                     0.088124
     54 H                     0.099575
     55 H                     0.093830
     56 H                     0.096740
  ----------------------------------------
  Sum of atomic charges =    -0.000000

                    Cartesian Multipole Moments
 -----------------------------------------------------------------
    Charge (ESU x 10^10)
                -0.0000
    Dipole Moment (Debye)
         X       1.8433      Y      -1.7689      Z      -0.1191
       Tot       2.5575
    Quadrupole Moments (Debye-Ang)
        XX    -133.6884     XY       4.9260     YY    -147.4230
        XZ       3.8098     YZ      -3.8764     ZZ    -171.6523

 Total job time:  122.61s(wall), 5842.06s(cpu)
        *  Thank you very much for using Q-Chem.  Have a nice day.  *
