 Q-Chem 5.0, Q-Chem, Inc., Pleasanton, CA (2017)
 Q-Chem 5.0.1 for Intel X86 EM64T Linux

User input:
--------------------------------------------------------------
$molecule
0  1
O -3.94934 -3.66094 2.70899
C -3.26408 -4.56952 2.26188
C -3.36658 -6.02376 2.66595
C -3.07169 -6.36721 4.13528
C -2.88113 -5.1981 5.07601
O -4.09701 -4.70982 5.46157
C -4.4853 -5.13618 6.7718
C -4.02088 -6.56793 7.01781
O -4.56547 -7.05333 8.25502
C -3.68766 -7.13748 9.28532
C -4.29461 -7.74578 10.5272
C -5.70162 -7.23837 10.87525
C -6.42674 -6.49303 9.77282
O -7.28275 -6.96785 9.04046
O -2.30591 -4.26552 1.34517
O -6.16834 -5.16063 9.70118
O -2.57411 -6.62644 9.3009
C -7.018 -4.23847 9.12272
C -4.5571 -9.25765 10.37599
C -4.59216 -9.90914 11.75693
C -5.88965 -9.34557 12.29786
C -6.40262 -8.60537 11.05553
O -5.89892 -9.35131 9.97544
H -3.56607 -7.60559 11.35843
H -5.76271 -6.63436 11.80712
H -3.81506 -9.77016 9.72506
H -4.71973 -11.00325 11.59149
H -3.69928 -9.73967 12.3964
H -6.5564 -10.1957 12.5635
H -5.78492 -8.65494 13.16255
H -7.50996 -8.50574 11.10194
O -1.82664 -4.90953 5.62381
C -2.05743 -2.99433 0.87129
C -4.65949 -6.6148 2.19042
C -4.57461 -8.14197 2.16163
C -4.62576 -8.42324 3.63582
C -4.6137 -6.9903 4.17638
O -5.43261 -6.30325 3.26722
H -2.5549 -6.50291 2.07102
H -2.35403 -7.18896 4.3501
H -1.76244 -2.32509 1.70768
H -4.98974 -6.20671 1.20907
H -5.47592 -8.57698 1.67468
H -3.6562 -8.49788 1.64605
H -5.62655 -8.86374 3.85555
H -3.8381 -9.09375 4.04045
H -5.26179 -7.01349 5.05032
H -2.96137 -2.59029 0.36728
H -1.22707 -3.03565 0.13693
H -6.54606 -3.2353 9.15783
H -7.97241 -4.2031 9.68981
H -7.2452 -4.49891 8.07081
H -4.05712 -7.4797 6.42714
H -2.91509 -6.52091 7.07792
H -5.58834 -5.12864 6.78937
H -4.09728 -4.4448 7.55086
$end

$opt
CONSTRAINT
tors           1           2           3           4     -62.012
tors           3           4           5           6     +80.959
tors           4           5           6           7    +101.420
tors           5           6           7           8     -36.169
tors           6           7           8           9    -172.246
tors           7           8           9          10    -105.819
tors           8           9          10          11    -175.885
tors           9          10          11          12     -43.522
tors          11          12          13          14     +99.786
ENDCONSTRAINT
$end

$rem
JOBTYPE                   OPT
METHOD                    B3LYP
DFT_D                     d3_op
BASIS                     STO-3G
GEOM_OPT_MAX_CYCLES       100
GEOM_OPT_TOL_GRADIENT     300
GEOM_OPT_TOL_DISPLACEMENT 1200
GEOM_OPT_TOL_ENERGY       100
SYMMETRY                  False
THRESH                    12
SCF_CONVERGENCE           8
MAX_SUB_FILE_NUM          128
MEM_STATIC                400
MEM_TOTAL                 4000
$end
--------------------------------------------------------------

   15   -1510.0435186591      1.00E-08 Convergence criterion met
 Total energy in the final basis set = -1510.04351866
   14   -1510.1281851301      7.18E-09 Convergence criterion met
 Total energy in the final basis set = -1510.12818513
   14   -1510.1801689479      6.81E-09 Convergence criterion met
 Total energy in the final basis set = -1510.18016895
   14   -1510.2118390115      8.11E-09 Convergence criterion met
 Total energy in the final basis set = -1510.21183901
   14   -1510.2294527489      4.99E-09 Convergence criterion met
 Total energy in the final basis set = -1510.22945275
   13   -1510.2388817586      8.66E-09 Convergence criterion met
 Total energy in the final basis set = -1510.23888176
   14   -1510.2436066719      4.39E-09 Convergence criterion met
 Total energy in the final basis set = -1510.24360667
   13   -1510.2463943744      5.86E-09 Convergence criterion met
   10   -1510.2491407565      5.37E-09 Convergence criterion met
 Total energy in the final basis set = -1510.24914076
   11   -1510.2491435085      1.57E-09 Convergence criterion met
 Total energy in the final basis set = -1510.24914351
   11   -1510.2491473727      1.46E-09 Convergence criterion met
 Total energy in the final basis set = -1510.24914737
   10   -1510.2491519861      7.44E-09 Convergence criterion met
 Total energy in the final basis set = -1510.24915199
   10   -1510.2491577996      6.85E-09 Convergence criterion met
 Total energy in the final basis set = -1510.24915780
   11   -1510.2491604626      2.66E-09 Convergence criterion met
 Total energy in the final basis set = -1510.24916046

             Standard Nuclear Orientation (Angstroms)
    I     Atom           X                Y                Z
 ----------------------------------------------------------------
    1      O       4.3011650232    -1.2350122894     1.1310398069
    2      C       4.8904296996    -0.4601966637     0.3470720808
    3      C       4.4968352740     1.0055377810    -0.0416249980
    4      C       3.0743841318     1.1298899773    -0.7704154658
    5      C       2.4408440436    -0.3116752535    -0.9922501537
    6      O       1.7561607342    -0.9443950664     0.1249696766
    7      C       0.2786930678    -0.8687225453     0.0680291115
    8      C      -0.4609812356     0.3993322365    -0.4983700080
    9      O      -1.9090259737     0.2154230356    -0.2325136035
   10      C      -2.6070714893    -0.1128931880    -1.4394894215
   11      C      -4.1403265871    -0.1963147010    -1.1445024017
   12      C      -4.5721312550    -0.9552849038     0.1841411665
   13      C      -3.4089756014    -1.5876958131     1.0298292546
   14      O      -2.8643783769    -1.1279846772     2.0552204911
   15      O       6.0859275166    -0.8025118885    -0.3674621472
   16      O      -3.0572206401    -2.8340677643     0.4129538151
   17      O      -2.0548596509    -0.2454205875    -2.5544322258
   18      C      -2.0312158841    -3.5413427193     1.2128557903
   19      C      -4.7329504285     1.2552244467    -0.8521890003
   20      C      -6.3058415518     1.1929827768    -0.9897826319
   21      C      -6.7016188023     0.4687039185     0.3504100238
   22      C      -5.2791580320     0.2175490185     0.9871818359
   23      O      -4.5103155066     1.4226053526     0.5988203583
   24      H      -4.6139089665    -0.6523035035    -2.0321134885
   25      H      -5.2839348427    -1.7626866710    -0.0646991687
   26      H      -4.2439432330     2.0713079006    -1.4190464239
   27      H      -6.7261524318     2.2100630546    -1.0407515327
   28      H      -6.6220271762     0.6354067689    -1.8858077089
   29      H      -7.3047139437     1.1231165239     0.9998698735
   30      H      -7.2538915223    -0.4696404823     0.1820670284
   31      H      -5.2588098874     0.0884904404     2.0865349506
   32      O       2.6285523077    -0.9334363977    -2.0622275355
   33      C       6.4795778196    -2.1959365459    -0.0536363519
   34      C       4.2741071238     1.9126110681     1.2430512171
   35      C       4.3681867034     3.4206003091     0.7887859719
   36      C       3.0122866949     3.5746794294     0.0072309228
   37      C       2.3655378948     2.1451893149     0.2189049535
   38      O       2.8398498841     1.7328034455     1.5560331644
   39      H       5.2995280309     1.4080252811    -0.6839653912
   40      H       3.2003380965     1.5638954851    -1.7784458587
   41      H       5.7027526776    -2.9195605828    -0.3753682586
   42      H       4.8973493308     1.6362538240     2.1153945307
   43      H       4.4070075416     4.0859419974     1.6658846604
   44      H       5.2507080034     3.6113124929     0.1575602619
   45      H       2.3722724445     4.3516224012     0.4542725474
   46      H       3.1593355161     3.8087634404    -1.0591137830
   47      H       1.2652015257     2.1533863026     0.1899193761
   48      H       6.6611523950    -2.3353192316     1.0316232157
   49      H       7.4140662147    -2.3832407451    -0.6138815951
   50      H      -1.5675059777    -4.2872022590     0.5412056021
   51      H      -2.4942898445    -4.0638876255     2.0754416481
   52      H      -1.2591456921    -2.8470952222     1.5975204773
   53      H      -0.1774961291     1.3163300941     0.0482435278
   54      H      -0.2868000394     0.5168013628    -1.5893327918
   55      H      -0.0456472690    -1.0015019695     1.1221746483
   56      H      -0.1095686407    -1.7384871039    -0.5143981909
 ----------------------------------------------------------------

    9   -1510.2491619765      7.13E-09 Convergence criterion met
 Total energy in the final basis set = -1510.24916198
 Final energy is   -1510.24916197647
 **  OPTIMIZATION CONVERGED  **

                    Orbital Energies (a.u.)
 --------------------------------------------------------------

 Alpha MOs
 -- Occupied --
-18.940 -18.932 -18.930 -18.902 -18.897 -18.891 -18.890 -18.880
-18.874 -18.874 -10.106 -10.104 -10.098 -10.095 -10.071 -10.068
-10.064 -10.063 -10.062 -10.061 -10.060 -10.059 -10.042 -10.039
-10.038 -10.037 -10.022 -10.022 -10.021 -10.021  -1.018  -1.009
 -1.007  -1.001  -0.973  -0.972  -0.943  -0.933  -0.933  -0.929
 -0.765  -0.763  -0.728  -0.723  -0.711  -0.708  -0.698  -0.662
 -0.661  -0.613  -0.599  -0.588  -0.551  -0.546  -0.541  -0.539
 -0.517  -0.506  -0.487  -0.478  -0.464  -0.462  -0.449  -0.439
 -0.434  -0.434  -0.429  -0.412  -0.410  -0.408  -0.405  -0.403
 -0.387  -0.381  -0.375  -0.369  -0.364  -0.360  -0.352  -0.347
 -0.345  -0.345  -0.336  -0.335  -0.332  -0.330  -0.326  -0.313
 -0.310  -0.309  -0.307  -0.303  -0.299  -0.289  -0.281  -0.277
 -0.275  -0.253  -0.251  -0.249  -0.237  -0.236  -0.232  -0.183
 -0.175  -0.173  -0.161  -0.158  -0.151  -0.150  -0.146  -0.146
 -0.145

          Ground-State Mulliken Net Atomic Charges

     Atom                 Charge (a.u.)
  ----------------------------------------
      1 O                    -0.202919
      2 C                     0.201921
      3 C                    -0.079549
      4 C                    -0.080580
      5 C                     0.214524
      6 O                    -0.183202
      7 C                    -0.047944
      8 C                    -0.056859
      9 O                    -0.164737
     10 C                     0.207359
     11 C                    -0.077993
     12 C                    -0.078908
     13 C                     0.212268
     14 O                    -0.208382
     15 O                    -0.169831
     16 O                    -0.174603
     17 O                    -0.213254
     18 C                    -0.131648
     19 C                     0.026312
     20 C                    -0.143834
     21 C                    -0.143970
     22 C                     0.025907
     23 O                    -0.185041
     24 H                     0.087044
     25 H                     0.085239
     26 H                     0.082236
     27 H                     0.078481
     28 H                     0.074426
     29 H                     0.078458
     30 H                     0.073640
     31 H                     0.088866
     32 O                    -0.182225
     33 C                    -0.129192
     34 C                     0.026456
     35 C                    -0.143416
     36 C                    -0.144193
     37 C                     0.023531
     38 O                    -0.183666
     39 H                     0.086519
     40 H                     0.085374
     41 H                     0.090981
     42 H                     0.085086
     43 H                     0.078723
     44 H                     0.074621
     45 H                     0.078577
     46 H                     0.073833
     47 H                     0.079514
     48 H                     0.088868
     49 H                     0.089911
     50 H                     0.090620
     51 H                     0.084630
     52 H                     0.095099
     53 H                     0.087576
     54 H                     0.097225
     55 H                     0.094484
     56 H                     0.077634
  ----------------------------------------
  Sum of atomic charges =     0.000000

                    Cartesian Multipole Moments
 -----------------------------------------------------------------
    Charge (ESU x 10^10)
                 0.0000
    Dipole Moment (Debye)
         X      -0.6415      Y       1.0394      Z      -0.9030
       Tot       1.5190
    Quadrupole Moments (Debye-Ang)
        XX    -131.9431     XY       7.2163     YY    -150.6651
        XZ       2.9450     YZ      -6.1653     ZZ    -171.2594

 Total job time:  77.07s(wall), 3669.80s(cpu)
        *  Thank you very much for using Q-Chem.  Have a nice day.  *
