 Q-Chem 5.0, Q-Chem, Inc., Pleasanton, CA (2017)
 Q-Chem 5.0.1 for Intel X86 EM64T Linux

User input:
--------------------------------------------------------------
$molecule
0  1
O 4.1888414986 -2.4622142184 -0.7557589958
C 3.5709961323 -1.382601487 -0.6575850891
C 4.1381450472 0.0836288144 -0.7072594482
C 3.1824758369 1.1178577601 -0.0174591097
C 2.5428621275 0.4775127028 1.2788467926
O 1.7494716438 1.4587445315 2.0217996718
C 0.3474020986 0.9824481514 1.9208197253
C -0.1560686236 0.9956368528 0.4305187481
O -1.6316544814 0.8590550595 0.42660273
C -2.0533988629 0.2058767932 -0.7819741116
C -3.5725436812 0.4972379 -1.0507407358
C -4.5515240745 -0.663667532 -0.5656738257
C -3.8256685427 -1.8196207311 0.2096139711
O -3.9108062385 -2.0900234422 1.4265099452
O 2.1405599118 -1.2559843074 -0.81244105
O -3.0345675163 -2.5612858346 -0.7254687804
O -1.2861410463 -0.447914237 -1.5237082869
C -2.2836034638 -3.6281668424 -0.0247620441
C -4.1516426144 1.7295163199 -0.2371395476
C -5.5006736052 2.1818081675 -0.9255155302
C -6.4756875782 1.0337719547 -0.4684221349
C -5.5094707474 0.1426952385 0.4052782001
O -4.5986725057 1.1251734259 1.0384658865
H -3.6741177279 0.6430918963 -2.1415271607
H -5.0935740372 -1.0995337285 -1.4245198519
H -3.4181290677 2.5360000009 -0.0479933026
H -5.820177909 3.1620800657 -0.5373768809
H -5.4066106566 2.24938591 -2.0211369257
H -7.3020611825 1.4246220338 0.1461066548
H -6.8999042314 0.473646269 -1.3169747822
H -5.9951146762 -0.4838682491 1.1781880789
O 2.7525821125 -0.6783607802 1.6991095695
C 1.4940483679 -2.5807723793 -0.906581003
C 5.5340644746 0.4345215556 -0.0362327575
C 6.1522147354 1.5941185867 -0.9080294023
C 5.1380433691 2.7584711597 -0.5923560319
C 4.2717535045 2.1205156434 0.5658297153
O 5.1892715489 1.147707216 1.21925869
H 4.1979407677 0.3182848332 -1.7874737226
H 2.4261769638 1.5728837078 -0.6775719076
H 1.5292236954 -3.1167726159 0.0645765458
H 6.1925234078 -0.4319786095 0.1680569554
H 7.1662436723 1.8400496604 -0.5535523475
H 6.1996087889 1.3437557012 -1.9799346688
H 5.6531418724 3.6649441117 -0.2376588141
H 4.5190997099 3.0244784733 -1.4646828877
H 3.8705253576 2.8361048585 1.3097172151
H 1.9721574801 -3.2174436472 -1.6783816016
H 0.4409735619 -2.3785973887 -1.182567075
H -1.752207087 -4.1941961206 -0.8117278996
H -2.9596648133 -4.3080767038 0.5326521343
H -1.5460450774 -3.2039543886 0.6870618591
H 0.1155724072 1.9665579837 -0.0393372527
H 0.3105750404 0.1738138452 -0.158045231
H -0.2612618633 1.6881693472 2.5229852759
H 0.2281783172 -0.0384174725 2.3472965915
$end

$rem
JOBTYPE                   OPT
METHOD                    B3LYP
DFT_D                     d3_op
BASIS                     STO-3G
GEOM_OPT_MAX_CYCLES       100
GEOM_OPT_TOL_GRADIENT     300
GEOM_OPT_TOL_DISPLACEMENT 1200
GEOM_OPT_TOL_ENERGY       100
SYMMETRY                  False
THRESH                    12
SCF_CONVERGENCE           8
MAX_SUB_FILE_NUM          128
MEM_STATIC                400
MEM_TOTAL                 4000
$end
--------------------------------------------------------------

   16   -1510.2563930168      4.94E-09 Convergence criterion met
 Total energy in the final basis set = -1510.25639302
   15   -1510.2622110510      4.39E-09 Convergence criterion met
 Total energy in the final basis set = -1510.26221105
   14   -1510.2670424635      3.74E-09 Convergence criterion met
 Total energy in the final basis set = -1510.26704246
   14   -1510.2694805096      2.92E-09 Convergence criterion met
 Total energy in the final basis set = -1510.26948051
   13   -1510.2733959543      7.07E-09 Convergence criterion met
 Total energy in the final basis set = -1510.27339595
   14   -1510.2776786151      1.58E-09 Convergence criterion met
 Total energy in the final basis set = -1510.27767862
   14   -1510.2813301563      2.01E-09 Convergence criterion met
 Total energy in the final basis set = -1510.28133016
   14   -1510.2852387811      1.80E-09 Convergence criterion met
   12   -1510.2987435013      1.78E-09 Convergence criterion met
 Total energy in the final basis set = -1510.29874350
   11   -1510.2987575195      6.58E-09 Convergence criterion met
 Total energy in the final basis set = -1510.29875752
   11   -1510.2987548778      6.08E-09 Convergence criterion met
 Total energy in the final basis set = -1510.29875488
   10   -1510.2987571365      4.65E-09 Convergence criterion met
 Total energy in the final basis set = -1510.29875714
   11   -1510.2987430722      6.42E-09 Convergence criterion met
 Total energy in the final basis set = -1510.29874307
   10   -1510.2987543412      5.83E-09 Convergence criterion met
 Total energy in the final basis set = -1510.29875434

             Standard Nuclear Orientation (Angstroms)
    I     Atom           X                Y                Z
 ----------------------------------------------------------------
    1      O       2.9637179078    -2.5208784530    -1.0703280274
    2      C       2.8844732709    -1.2843333042    -1.2321405704
    3      C       4.0177522348    -0.2368333025    -0.9138442441
    4      C       3.6376404983     0.8841353434     0.1443638086
    5      C       2.1507590107     0.8004519286     0.6041520351
    6      O       1.5456779625     2.0828010482     0.4154117524
    7      C       0.0721998146     1.9887372589     0.5629801131
    8      C      -0.5258113414     1.5026979825    -0.8039639183
    9      O      -1.9415856156     1.1466110700    -0.5537302389
   10      C      -2.4599352512     0.2805413685    -1.5628274386
   11      C      -3.9569679689    -0.0053793984    -1.2113146801
   12      C      -4.1693224653    -0.4198303913     0.3055605288
   13      C      -2.8322392357    -0.6067454845     1.1128548158
   14      O      -2.5023247283    -0.0539405975     2.1836732996
   15      O       1.7447156050    -0.6283563367    -1.8067200797
   16      O      -2.0655649211    -1.6077952053     0.4384374306
   17      O      -1.8161823067    -0.1362218922    -2.5530043350
   18      C      -0.8417552821    -1.9381713214     1.2086723014
   19      C      -4.8234255195     1.3294883970    -1.2624059402
   20      C      -6.3532033852     0.9371138991    -1.1876052412
   21      C      -6.5128115632     0.6063619681     0.3431484903
   22      C      -5.0295527544     0.7965008962     0.8453311279
   23      O      -4.5499311859     1.9523958913     0.0506308640
   24      H      -4.3336039174    -0.7733809706    -1.9091663972
   25      H      -4.7362942300    -1.3669477639     0.3654208997
   26      H      -4.5553670080     2.0207665044    -2.0851094832
   27      H      -6.9845186499     1.7886868111    -1.4871460004
   28      H      -6.5902352580     0.0775353552    -1.8348089540
   29      H      -7.1834943600     1.3238348290     0.8421910844
   30      H      -6.8879095101    -0.4137620618     0.5231040866
   31      H      -4.9011117789     0.9915361739     1.9278792258
   32      O       1.5671360817    -0.2065502086     1.0659403757
   33      C       0.7386792533    -1.6451273971    -2.2134231459
   34      C       5.2095685275    -0.9644198295    -0.1651191834
   35      C       6.4805124264    -0.0298093070    -0.1854509817
   36      C       6.0848460073     1.0469253182     0.8929734441
   37      C       4.6529787848     0.5346268875     1.3203652504
   38      O       4.7738669227    -0.9368160099     1.2514663146
   39      H       4.3403713440     0.2243357765    -1.8655661267
   40      H       3.8156863703     1.8959814037    -0.2589014438
   41      H       0.5334470664    -2.3526770047    -1.3870696400
   42      H       5.3675903871    -2.0088734745    -0.4969525356
   43      H       7.3777026082    -0.5931976657     0.1159931717
   44      H       6.6574913278     0.4086026166    -1.1805642594
   45      H       6.7717399066     1.0271870421     1.7539713769
   46      H       6.0562868769     2.0698616952     0.4851881623
   47      H       4.3164931634     0.8508213362     2.3269862001
   48      H       1.0948146189    -2.2212792605    -3.0907646448
   49      H      -0.1880123189    -1.0848123285    -2.4704279554
   50      H      -0.4779574015    -2.8988835298     0.8004650177
   51      H      -1.0702297337    -2.0592615105     2.2859239184
   52      H      -0.0455388654    -1.1654231556     1.0952748488
   53      H      -0.4620327181     2.3084312877    -1.5669482126
   54      H       0.0667310379     0.6349144682    -1.1674087512
   55      H      -0.2870506964     3.0037173370     0.8225753375
   56      H      -0.2119580949     1.2749651083     1.3664078410
 ----------------------------------------------------------------

    9   -1510.2987552717      5.13E-09 Convergence criterion met
 Total energy in the final basis set = -1510.29875527
 Final energy is   -1510.29875527168
 **  OPTIMIZATION CONVERGED  **

                    Orbital Energies (a.u.)
 --------------------------------------------------------------

 Alpha MOs
 -- Occupied --
-18.944 -18.943 -18.928 -18.922 -18.889 -18.888 -18.887 -18.885
-18.874 -18.867 -10.111 -10.109 -10.097 -10.094 -10.075 -10.071
-10.063 -10.063 -10.058 -10.057 -10.042 -10.042 -10.040 -10.039
-10.039 -10.035 -10.022 -10.022 -10.021 -10.020  -1.023  -1.018
 -1.006  -1.001  -0.972  -0.970  -0.948  -0.943  -0.931  -0.928
 -0.766  -0.764  -0.731  -0.724  -0.712  -0.706  -0.698  -0.653
 -0.650  -0.618  -0.599  -0.583  -0.547  -0.546  -0.538  -0.537
 -0.518  -0.509  -0.486  -0.478  -0.462  -0.461  -0.454  -0.447
 -0.436  -0.432  -0.430  -0.414  -0.410  -0.406  -0.401  -0.399
 -0.394  -0.380  -0.372  -0.368  -0.360  -0.359  -0.356  -0.352
 -0.342  -0.335  -0.334  -0.332  -0.330  -0.328  -0.325  -0.312
 -0.310  -0.306  -0.305  -0.299  -0.295  -0.290  -0.284  -0.279
 -0.271  -0.258  -0.255  -0.246  -0.243  -0.235  -0.235  -0.188
 -0.181  -0.173  -0.172  -0.162  -0.160  -0.150  -0.147  -0.145
 -0.144

          Ground-State Mulliken Net Atomic Charges

     Atom                 Charge (a.u.)
  ----------------------------------------
      1 O                    -0.208589
      2 C                     0.210752
      3 C                    -0.078452
      4 C                    -0.080003
      5 C                     0.218246
      6 O                    -0.168536
      7 C                    -0.050359
      8 C                    -0.054236
      9 O                    -0.166558
     10 C                     0.220776
     11 C                    -0.077781
     12 C                    -0.078337
     13 C                     0.213467
     14 O                    -0.217525
     15 O                    -0.180199
     16 O                    -0.180111
     17 O                    -0.215653
     18 C                    -0.146667
     19 C                     0.025728
     20 C                    -0.144064
     21 C                    -0.143548
     22 C                     0.024343
     23 O                    -0.186686
     24 H                     0.086479
     25 H                     0.083964
     26 H                     0.081606
     27 H                     0.078073
     28 H                     0.073990
     29 H                     0.078132
     30 H                     0.073573
     31 H                     0.090733
     32 O                    -0.212804
     33 C                    -0.145910
     34 C                     0.024874
     35 C                    -0.144602
     36 C                    -0.143369
     37 C                     0.026381
     38 O                    -0.185793
     39 H                     0.084838
     40 H                     0.087711
     41 H                     0.088419
     42 H                     0.092053
     43 H                     0.078978
     44 H                     0.073472
     45 H                     0.078836
     46 H                     0.073938
     47 H                     0.083907
     48 H                     0.080624
     49 H                     0.110421
     50 H                     0.083354
     51 H                     0.084948
     52 H                     0.108480
     53 H                     0.085419
     54 H                     0.103454
     55 H                     0.095185
     56 H                     0.104629
  ----------------------------------------
  Sum of atomic charges =     0.000000

                    Cartesian Multipole Moments
 -----------------------------------------------------------------
    Charge (ESU x 10^10)
                 0.0000
    Dipole Moment (Debye)
         X      -0.3472      Y       1.6131      Z      -1.5239
       Tot       2.2461
    Quadrupole Moments (Debye-Ang)
        XX    -136.1487     XY      11.8550     YY    -164.0581
        XZ      -0.1319     YZ      -0.9315     ZZ    -163.3100

 Total job time:  127.49s(wall), 6081.12s(cpu)
        *  Thank you very much for using Q-Chem.  Have a nice day.  *
