 Q-Chem 5.0, Q-Chem, Inc., Pleasanton, CA (2017)
 Q-Chem 5.0.1 for Intel X86 EM64T Linux

User input:
--------------------------------------------------------------
$molecule
0  1
O -3.94934 -3.66094 2.70899
C -3.26408 -4.56952 2.26188
C -3.36658 -6.02376 2.66595
C -2.13616 -6.911 2.41549
C -0.87972 -6.20681 1.95338
O 0.15549 -7.09579 1.89449
C 0.62381 -7.32732 0.56171
C -0.47406 -7.97436 -0.27623
O 0.0854 -8.51196 -1.4849
C -0.75317 -8.54759 -2.55011
C -0.311 -9.52326 -3.61463
C 0.46201 -8.89796 -4.78499
C 0.98353 -7.49339 -4.55712
O 2.15977 -7.18635 -4.42772
O -2.72915 -4.36066 1.02621
O 0.04568 -6.51161 -4.4998
O -1.71655 -7.80586 -2.69448
C 0.32505 -5.18029 -4.27339
C 0.72241 -10.58309 -3.15064
C 0.6428 -11.81165 -4.05578
C 1.22962 -11.25593 -5.33514
C 1.66094 -9.86547 -4.85433
O 1.97434 -10.04754 -3.49626
H -1.22268 -10.08307 -3.9227
H -0.11982 -8.87979 -5.73245
H 0.59697 -10.89572 -2.09093
H 1.35071 -12.56335 -3.63771
H -0.36123 -12.27681 -4.15733
H 2.11006 -11.8758 -5.61536
H 0.52328 -11.1844 -6.19053
H 2.48162 -9.47739 -5.49734
O -0.61465 -5.05841 2.27727
C -2.69498 -3.14433 0.37544
C -3.51249 -6.16657 4.19455
C -4.14432 -7.51513 4.53707
C -2.99034 -8.44664 4.24235
C -1.90932 -7.43379 3.85344
O -2.19362 -6.31371 4.65296
H -4.28193 -6.41873 2.17116
H -2.35368 -7.74843 1.72129
H -2.12244 -2.40632 0.97679
H -4.10205 -5.34758 4.66162
H -4.33794 -7.52867 5.63365
H -5.0875 -7.73758 3.99311
H -2.7042 -8.95996 5.18759
H -3.17474 -9.19846 3.44477
H -0.90568 -7.88883 4.00087
H -3.72711 -2.77109 0.20351
H -2.19415 -3.27202 -0.60613
H -0.62297 -4.60436 -4.27661
H 0.98693 -4.78596 -5.0738
H 0.81499 -5.05621 -3.28384
H -0.88029 -8.83694 0.29474
H -1.28935 -7.23682 -0.44844
H 1.47299 -8.03972 0.6346
H 0.99437 -6.39243 0.08521
$end

$opt
CONSTRAINT
tors           1           2           3           4    -157.970
tors           3           4           5           6    +174.321
tors           4           5           6           7    +113.676
tors           5           6           7           8     -63.777
tors           6           7           8           9    -165.391
tors           7           8           9          10    -150.847
tors           8           9          10          11    -160.037
tors           9          10          11          12     -97.737
tors          11          12          13          14    +110.194
ENDCONSTRAINT
$end

$rem
JOBTYPE                   OPT
METHOD                    B3LYP
DFT_D                     d3_op
BASIS                     STO-3G
GEOM_OPT_MAX_CYCLES       100
GEOM_OPT_TOL_GRADIENT     300
GEOM_OPT_TOL_DISPLACEMENT 1200
GEOM_OPT_TOL_ENERGY       100
SYMMETRY                  False
THRESH                    12
SCF_CONVERGENCE           8
MAX_SUB_FILE_NUM          128
MEM_STATIC                400
MEM_TOTAL                 4000
$end
--------------------------------------------------------------

   15   -1510.1122866178      5.68E-09 Convergence criterion met
 Total energy in the final basis set = -1510.11228662
   14   -1510.1846264992      7.08E-09 Convergence criterion met
 Total energy in the final basis set = -1510.18462650
   14   -1510.2235999418      8.82E-09 Convergence criterion met
 Total energy in the final basis set = -1510.22359994
   14   -1510.2413323766      7.13E-09 Convergence criterion met
 Total energy in the final basis set = -1510.24133238
   14   -1510.2482591593      6.00E-09 Convergence criterion met
 Total energy in the final basis set = -1510.24825916
   13   -1510.2512705895      6.06E-09 Convergence criterion met
 Total energy in the final basis set = -1510.25127059
   13   -1510.2528732065      4.65E-09 Convergence criterion met
 Total energy in the final basis set = -1510.25287321
   12   -1510.2539144676      8.79E-09 Convergence criterion met
   11   -1510.2561928462      3.65E-09 Convergence criterion met
 Total energy in the final basis set = -1510.25619285
   11   -1510.2561969494      2.23E-09 Convergence criterion met
 Total energy in the final basis set = -1510.25619695
   10   -1510.2562124969      8.78E-09 Convergence criterion met
 Total energy in the final basis set = -1510.25621250
    9   -1510.2562153853      7.67E-09 Convergence criterion met
 Total energy in the final basis set = -1510.25621539
    9   -1510.2562180027      6.25E-09 Convergence criterion met
 Total energy in the final basis set = -1510.25621800
    9   -1510.2562197937      6.65E-09 Convergence criterion met
 Total energy in the final basis set = -1510.25621979

             Standard Nuclear Orientation (Angstroms)
    I     Atom           X                Y                Z
 ----------------------------------------------------------------
    1      O       4.1888414986    -2.4622142184    -0.7557589958
    2      C       3.5709961323    -1.3826014870    -0.6575850891
    3      C       4.1381450472     0.0836288144    -0.7072594482
    4      C       3.1824758369     1.1178577601    -0.0174591097
    5      C       2.5428621275     0.4775127028     1.2788467926
    6      O       1.7494716438     1.4587445315     2.0217996718
    7      C       0.3474020986     0.9824481514     1.9208197253
    8      C      -0.1560686236     0.9956368528     0.4305187481
    9      O      -1.6316544814     0.8590550595     0.4266027300
   10      C      -2.0533988629     0.2058767932    -0.7819741116
   11      C      -3.5725436812     0.4972379000    -1.0507407358
   12      C      -4.5515240745    -0.6636675320    -0.5656738257
   13      C      -3.8256685427    -1.8196207311     0.2096139711
   14      O      -3.9108062385    -2.0900234422     1.4265099452
   15      O       2.1405599118    -1.2559843074    -0.8124410500
   16      O      -3.0345675163    -2.5612858346    -0.7254687804
   17      O      -1.2861410463    -0.4479142370    -1.5237082869
   18      C      -2.2836034638    -3.6281668424    -0.0247620441
   19      C      -4.1516426144     1.7295163199    -0.2371395476
   20      C      -5.5006736052     2.1818081675    -0.9255155302
   21      C      -6.4756875782     1.0337719547    -0.4684221349
   22      C      -5.5094707474     0.1426952385     0.4052782001
   23      O      -4.5986725057     1.1251734259     1.0384658865
   24      H      -3.6741177279     0.6430918963    -2.1415271607
   25      H      -5.0935740372    -1.0995337285    -1.4245198519
   26      H      -3.4181290677     2.5360000009    -0.0479933026
   27      H      -5.8201779090     3.1620800657    -0.5373768809
   28      H      -5.4066106566     2.2493859100    -2.0211369257
   29      H      -7.3020611825     1.4246220338     0.1461066548
   30      H      -6.8999042314     0.4736462690    -1.3169747822
   31      H      -5.9951146762    -0.4838682491     1.1781880789
   32      O       2.7525821125    -0.6783607802     1.6991095695
   33      C       1.4940483679    -2.5807723793    -0.9065810030
   34      C       5.5340644746     0.4345215556    -0.0362327575
   35      C       6.1522147354     1.5941185867    -0.9080294023
   36      C       5.1380433691     2.7584711597    -0.5923560319
   37      C       4.2717535045     2.1205156434     0.5658297153
   38      O       5.1892715489     1.1477072160     1.2192586900
   39      H       4.1979407677     0.3182848332    -1.7874737226
   40      H       2.4261769638     1.5728837078    -0.6775719076
   41      H       1.5292236954    -3.1167726159     0.0645765458
   42      H       6.1925234078    -0.4319786095     0.1680569554
   43      H       7.1662436723     1.8400496604    -0.5535523475
   44      H       6.1996087889     1.3437557012    -1.9799346688
   45      H       5.6531418724     3.6649441117    -0.2376588141
   46      H       4.5190997099     3.0244784733    -1.4646828877
   47      H       3.8705253576     2.8361048585     1.3097172151
   48      H       1.9721574801    -3.2174436472    -1.6783816016
   49      H       0.4409735619    -2.3785973887    -1.1825670750
   50      H      -1.7522070870    -4.1941961206    -0.8117278996
   51      H      -2.9596648133    -4.3080767038     0.5326521343
   52      H      -1.5460450774    -3.2039543886     0.6870618591
   53      H       0.1155724072     1.9665579837    -0.0393372527
   54      H       0.3105750404     0.1738138452    -0.1580452310
   55      H      -0.2612618633     1.6881693472     2.5229852759
   56      H       0.2281783172    -0.0384174725     2.3472965915
 ----------------------------------------------------------------

    9   -1510.2562191790      7.72E-09 Convergence criterion met
 Total energy in the final basis set = -1510.25621918
 Final energy is   -1510.25621917896
 **  OPTIMIZATION CONVERGED  **

                    Orbital Energies (a.u.)
 --------------------------------------------------------------

 Alpha MOs
 -- Occupied --
-18.936 -18.936 -18.922 -18.910 -18.907 -18.888 -18.887 -18.883
-18.879 -18.872 -10.110 -10.105 -10.100 -10.097 -10.072 -10.068
-10.066 -10.061 -10.061 -10.061 -10.060 -10.057 -10.042 -10.040
-10.040 -10.036 -10.023 -10.022 -10.021 -10.021  -1.018  -1.014
 -1.011  -1.001  -0.971  -0.971  -0.945  -0.939  -0.937  -0.931
 -0.766  -0.765  -0.727  -0.725  -0.714  -0.705  -0.695  -0.665
 -0.656  -0.616  -0.601  -0.579  -0.549  -0.547  -0.539  -0.538
 -0.516  -0.509  -0.484  -0.483  -0.467  -0.460  -0.456  -0.447
 -0.436  -0.433  -0.429  -0.416  -0.409  -0.406  -0.404  -0.400
 -0.393  -0.381  -0.379  -0.372  -0.366  -0.359  -0.353  -0.350
 -0.347  -0.341  -0.340  -0.334  -0.333  -0.332  -0.322  -0.314
 -0.313  -0.309  -0.308  -0.303  -0.298  -0.286  -0.283  -0.280
 -0.275  -0.257  -0.255  -0.251  -0.246  -0.235  -0.234  -0.183
 -0.176  -0.172  -0.165  -0.163  -0.160  -0.154  -0.149  -0.146
 -0.145

          Ground-State Mulliken Net Atomic Charges

     Atom                 Charge (a.u.)
  ----------------------------------------
      1 O                    -0.212976
      2 C                     0.215898
      3 C                    -0.080894
      4 C                    -0.076826
      5 C                     0.228226
      6 O                    -0.187905
      7 C                    -0.049370
      8 C                    -0.061540
      9 O                    -0.171260
     10 C                     0.207385
     11 C                    -0.078284
     12 C                    -0.077744
     13 C                     0.206133
     14 O                    -0.208807
     15 O                    -0.181493
     16 O                    -0.168811
     17 O                    -0.209948
     18 C                    -0.128611
     19 C                     0.025419
     20 C                    -0.144101
     21 C                    -0.144335
     22 C                     0.024517
     23 O                    -0.186343
     24 H                     0.086010
     25 H                     0.085892
     26 H                     0.086903
     27 H                     0.078177
     28 H                     0.072690
     29 H                     0.078602
     30 H                     0.073121
     31 H                     0.089392
     32 O                    -0.179027
     33 C                    -0.132118
     34 C                     0.023508
     35 C                    -0.140523
     36 C                    -0.145572
     37 C                     0.021472
     38 O                    -0.191320
     39 H                     0.083487
     40 H                     0.086523
     41 H                     0.085500
     42 H                     0.091024
     43 H                     0.078919
     44 H                     0.073976
     45 H                     0.079139
     46 H                     0.073335
     47 H                     0.087948
     48 H                     0.088576
     49 H                     0.096020
     50 H                     0.091291
     51 H                     0.090634
     52 H                     0.087843
     53 H                     0.077773
     54 H                     0.102356
     55 H                     0.093386
     56 H                     0.086734
  ----------------------------------------
  Sum of atomic charges =    -0.000000

                    Cartesian Multipole Moments
 -----------------------------------------------------------------
    Charge (ESU x 10^10)
                 0.0000
    Dipole Moment (Debye)
         X      -1.9364      Y       1.8958      Z      -3.5691
       Tot       4.4813
    Quadrupole Moments (Debye-Ang)
        XX    -156.1176     XY       8.1860     YY    -154.2557
        XZ       0.1987     YZ      -3.3116     ZZ    -167.6514

 Total job time:  76.87s(wall), 3656.88s(cpu)
        *  Thank you very much for using Q-Chem.  Have a nice day.  *
