 Q-Chem 5.0, Q-Chem, Inc., Pleasanton, CA (2017)
 Q-Chem 5.0.1 for Intel X86 EM64T Linux

User input:
--------------------------------------------------------------
$molecule
0  1
O -3.94934 -3.66094 2.70899
C -3.26408 -4.56952 2.26188
C -3.36658 -6.02376 2.66595
C -2.21847 -6.60109 3.50998
C -1.18394 -5.61512 4.00567
O -0.5288 -6.13381 5.08603
C 0.65611 -5.40711 5.42829
C 1.56329 -6.26391 6.30524
O 2.65956 -5.47473 6.79339
C 3.65179 -6.16924 7.40354
C 4.46276 -5.32293 8.35577
C 4.48617 -3.82261 8.02901
C 3.4373 -3.34413 7.04533
O 3.17418 -2.17523 6.80245
O -2.3427 -4.28431 1.30313
O 3.82374 -3.87049 5.81942
O 3.672 -7.3924 7.46835
C 3.55555 -3.36528 4.5546
C 3.90639 -5.30711 9.78887
C 5.02441 -4.94175 10.76433
C 5.22012 -3.47594 10.43282
C 4.09249 -3.27075 9.41379
O 3.08827 -4.16511 9.83071
H 5.49198 -5.74818 8.35418
H 5.48101 -3.45151 7.69332
H 3.4284 -6.2663 10.08537
H 4.60131 -5.02044 11.79139
H 5.93955 -5.56878 10.69654
H 5.03105 -2.88056 11.35355
H 6.21185 -3.21254 10.00504
H 3.80083 -2.19781 9.37656
O -0.99524 -4.47935 3.58949
C -2.1265 -3.02533 0.78298
C -4.56977 -6.26404 3.6024
C -4.99307 -7.73044 3.5487
C -3.85866 -8.37224 4.31023
C -3.05586 -7.12953 4.70907
O -4.03202 -6.1374 4.89078
H -3.53999 -6.59434 1.72615
H -1.67214 -7.43975 3.02504
H -1.81176 -2.32691 1.58755
H -5.44585 -5.61856 3.37225
H -5.92578 -7.83335 4.14853
H -5.16666 -8.12972 2.52622
H -4.27994 -8.86143 5.21708
H -3.24933 -9.10275 3.73543
H -2.45581 -7.37788 5.61005
H -3.05241 -2.64791 0.29848
H -1.32182 -3.07979 0.02144
H 3.94761 -4.06737 3.79073
H 4.05298 -2.38131 4.42277
H 2.46292 -3.24022 4.41038
H 0.987 -6.65146 7.17441
H 1.91798 -7.11924 5.68582
H 0.3688 -4.47688 5.96673
H 1.24867 -5.15472 4.52112
$end

$opt
CONSTRAINT
tors           1           2           3           4    -108.681
tors           3           4           5           6    +158.551
tors           4           5           6           7    +166.756
tors           5           6           7           8    -161.385
tors           6           7           8           9    -172.269
tors           7           8           9          10    -169.677
tors           8           9          10          11    -156.855
tors           9          10          11          12     -26.236
tors          11          12          13          14    +169.231
ENDCONSTRAINT
$end

$rem
JOBTYPE                   OPT
METHOD                    B3LYP
DFT_D                     d3_op
BASIS                     STO-3G
GEOM_OPT_MAX_CYCLES       100
GEOM_OPT_TOL_GRADIENT     300
GEOM_OPT_TOL_DISPLACEMENT 1200
GEOM_OPT_TOL_ENERGY       100
SYMMETRY                  False
THRESH                    12
SCF_CONVERGENCE           8
MAX_SUB_FILE_NUM          128
MEM_STATIC                400
MEM_TOTAL                 4000
$end
--------------------------------------------------------------

   16   -1510.0828277363      4.20E-09 Convergence criterion met
 Total energy in the final basis set = -1510.08282774
   14   -1510.1590540760      4.34E-09 Convergence criterion met
 Total energy in the final basis set = -1510.15905408
   15   -1510.2029080655      3.05E-09 Convergence criterion met
 Total energy in the final basis set = -1510.20290807
   15   -1510.2312384388      1.94E-09 Convergence criterion met
 Total energy in the final basis set = -1510.23123844
   14   -1510.2459432187      6.02E-09 Convergence criterion met
 Total energy in the final basis set = -1510.24594322
   14   -1510.2548639338      2.35E-09 Convergence criterion met
 Total energy in the final basis set = -1510.25486393
   13   -1510.2606388395      8.80E-09 Convergence criterion met
 Total energy in the final basis set = -1510.26063884
   12   -1510.2643912934      7.90E-09 Convergence criterion met
   11   -1510.2726609425      8.67E-09 Convergence criterion met
 Total energy in the final basis set = -1510.27266094
   11   -1510.2727701117      3.59E-09 Convergence criterion met
 Total energy in the final basis set = -1510.27277011
   11   -1510.2728325841      3.93E-09 Convergence criterion met
 Total energy in the final basis set = -1510.27283258
   11   -1510.2728826875      5.26E-09 Convergence criterion met
 Total energy in the final basis set = -1510.27288269
   11   -1510.2729020231      3.44E-09 Convergence criterion met
 Total energy in the final basis set = -1510.27290202
   10   -1510.2729114439      8.74E-09 Convergence criterion met
 Total energy in the final basis set = -1510.27291144

             Standard Nuclear Orientation (Angstroms)
    I     Atom           X                Y                Z
 ----------------------------------------------------------------
    1      O      -4.7808903138     1.4892267559     1.9377929904
    2      C      -4.8044028908     1.2153201293     0.7192425097
    3      C      -5.0176983304    -0.1964102227     0.0591518682
    4      C      -3.7251355296    -0.8153351079    -0.6152012444
    5      C      -2.4200351435    -0.0449191483    -0.2023456741
    6      O      -1.2867515684    -0.8916047514    -0.4016035869
    7      C      -0.0349642918    -0.0953662208    -0.3265296255
    8      C       1.0847539449    -0.9436655836    -1.0099482999
    9      O       2.3514859325    -0.2203952601    -0.7558540143
   10      C       3.4186541272    -0.7789078633    -1.5392011886
   11      C       4.7951731574    -0.4404925825    -0.8609517996
   12      C       4.8047214863     0.8624569440     0.0287796560
   13      C       3.8090486616     2.0075438128    -0.3707263286
   14      O       3.5362918129     3.0207132527     0.3087695965
   15      O      -4.8295359467     2.1910070469    -0.3343483368
   16      O       3.4481658315     1.8599822781    -1.7517882062
   17      O       3.2455569289    -1.5054749954    -2.5410225367
   18      C       2.5331813873     2.9487881979    -2.1580749114
   19      C       4.9700277609    -1.5317204038     0.2920570943
   20      C       6.3750080908    -1.3630100962     0.9982264028
   21      C       6.0943662261    -0.1554896767     1.9693510684
   22      C       4.6489832255     0.2625774135     1.4949300984
   23      O       3.9932124328    -1.0514212682     1.2986281154
   24      H       5.5997570941    -0.4628688414    -1.6159904615
   25      H       5.8067639689     1.3273082734    -0.0493391118
   26      H       4.7256414956    -2.5654321979    -0.0220445753
   27      H       6.6444488969    -2.2776868472     1.5494031614
   28      H       7.1729737772    -1.1431416359     0.2707735390
   29      H       6.0691122098    -0.4850158403     3.0206121104
   30      H       6.8294090053     0.6589705321     1.8695782869
   31      H       4.0697688016     0.8941300683     2.1964046252
   32      O      -2.3443736119     1.1287418848     0.2261108409
   33      C      -4.5736442045     3.5357602058     0.2252658635
   34      C      -5.3964146895    -1.3336253955     1.0977771185
   35      C      -6.1478971630    -2.4696465940     0.3009383966
   36      C      -4.9577311330    -3.0885338487    -0.5231828824
   37      C      -3.7299863139    -2.2640255912     0.0345322002
   38      O      -4.1010622495    -1.9677617634     1.4382722615
   39      H      -5.8122497671    -0.0819707988    -0.6999394386
   40      H      -3.7948926134    -0.8395094246    -1.7182571326
   41      H      -3.5460910664     3.6067779727     0.6375626832
   42      H      -5.8995071358    -0.9666233660     2.0132764972
   43      H      -6.5806299825    -3.2063687314     0.9966424076
   44      H      -6.9505817469    -2.0711309826    -0.3397970336
   45      H      -4.8301310295    -4.1617391843    -0.3106490432
   46      H      -5.0814121403    -2.9570295310    -1.6103035158
   47      H      -2.7504473363    -2.7780529997    -0.0105430338
   48      H      -5.2952480435     3.7907867610     1.0281931392
   49      H      -4.6849633981     4.2461283928    -0.6145603330
   50      H       2.3581675999     2.8128523668    -3.2412578790
   51      H       2.9769631900     3.9482193464    -1.9726613119
   52      H       1.5665310343     2.8868129073    -1.6170873435
   53      H       1.1196116960    -1.9597419690    -0.5582176529
   54      H       0.8925751617    -1.0530731861    -2.0993951673
   55      H       0.2388975211     0.1038332972     0.7332041301
   56      H      -0.1574791892     0.8832085384    -0.8377240226
 ----------------------------------------------------------------

    9   -1510.2729136490      2.78E-09 Convergence criterion met
 Total energy in the final basis set = -1510.27291365
 Final energy is   -1510.27291364903
 **  OPTIMIZATION CONVERGED  **

                    Orbital Energies (a.u.)
 --------------------------------------------------------------

 Alpha MOs
 -- Occupied --
-18.941 -18.935 -18.929 -18.917 -18.890 -18.886 -18.884 -18.874
-18.874 -18.859 -10.107 -10.101 -10.101 -10.088 -10.078 -10.075
-10.066 -10.063 -10.062 -10.058 -10.055 -10.052 -10.040 -10.040
-10.039 -10.030 -10.024 -10.022 -10.019 -10.017  -1.021  -1.015
 -1.006  -0.995  -0.973  -0.967  -0.945  -0.937  -0.934  -0.922
 -0.766  -0.761  -0.731  -0.723  -0.712  -0.706  -0.696  -0.663
 -0.652  -0.613  -0.598  -0.580  -0.547  -0.543  -0.540  -0.536
 -0.519  -0.509  -0.489  -0.473  -0.467  -0.459  -0.453  -0.445
 -0.434  -0.432  -0.429  -0.412  -0.409  -0.408  -0.404  -0.400
 -0.396  -0.382  -0.374  -0.365  -0.361  -0.360  -0.351  -0.346
 -0.343  -0.340  -0.333  -0.331  -0.329  -0.325  -0.317  -0.314
 -0.310  -0.309  -0.306  -0.298  -0.297  -0.294  -0.275  -0.274
 -0.272  -0.259  -0.255  -0.246  -0.242  -0.237  -0.232  -0.185
 -0.183  -0.169  -0.164  -0.159  -0.156  -0.149  -0.145  -0.142
 -0.139

          Ground-State Mulliken Net Atomic Charges

     Atom                 Charge (a.u.)
  ----------------------------------------
      1 O                    -0.217603
      2 C                     0.214732
      3 C                    -0.082049
      4 C                    -0.076453
      5 C                     0.216464
      6 O                    -0.172634
      7 C                    -0.044886
      8 C                    -0.045027
      9 O                    -0.173626
     10 C                     0.218749
     11 C                    -0.076241
     12 C                    -0.078842
     13 C                     0.214911
     14 O                    -0.215218
     15 O                    -0.175357
     16 O                    -0.169856
     17 O                    -0.215001
     18 C                    -0.127463
     19 C                     0.023573
     20 C                    -0.145260
     21 C                    -0.141394
     22 C                     0.026092
     23 O                    -0.189709
     24 H                     0.087070
     25 H                     0.084110
     26 H                     0.082462
     27 H                     0.078972
     28 H                     0.074344
     29 H                     0.078838
     30 H                     0.074401
     31 H                     0.089576
     32 O                    -0.205950
     33 C                    -0.128325
     34 C                     0.023712
     35 C                    -0.142906
     36 C                    -0.144929
     37 C                     0.023440
     38 O                    -0.190896
     39 H                     0.083141
     40 H                     0.086480
     41 H                     0.091569
     42 H                     0.089274
     43 H                     0.077732
     44 H                     0.072933
     45 H                     0.078005
     46 H                     0.072723
     47 H                     0.089146
     48 H                     0.086945
     49 H                     0.085212
     50 H                     0.090582
     51 H                     0.091035
     52 H                     0.086866
     53 H                     0.088771
     54 H                     0.092552
     55 H                     0.095215
     56 H                     0.090000
  ----------------------------------------
  Sum of atomic charges =     0.000000

                    Cartesian Multipole Moments
 -----------------------------------------------------------------
    Charge (ESU x 10^10)
                 0.0000
    Dipole Moment (Debye)
         X       1.1200      Y      -0.4132      Z      -2.4249
       Tot       2.7028
    Quadrupole Moments (Debye-Ang)
        XX    -137.8766     XY       3.1834     YY    -157.9888
        XZ      11.6531     YZ      -5.3348     ZZ    -167.4119

 Total job time:  61.58s(wall), 2926.26s(cpu)
        *  Thank you very much for using Q-Chem.  Have a nice day.  *
