 Q-Chem 5.0, Q-Chem, Inc., Pleasanton, CA (2017)
 Q-Chem 5.0.1 for Intel X86 EM64T Linux

User input:
--------------------------------------------------------------
$molecule
0  1
O -4.7808903138 1.4892267559 1.9377929904
C -4.8044028908 1.2153201293 0.7192425097
C -5.0176983304 -0.1964102227 0.0591518682
C -3.7251355296 -0.8153351079 -0.6152012444
C -2.4200351435 -0.0449191483 -0.2023456741
O -1.2867515684 -0.8916047514 -0.4016035869
C -0.0349642918 -0.0953662208 -0.3265296255
C 1.0847539449 -0.9436655836 -1.0099482999
O 2.3514859325 -0.2203952601 -0.7558540143
C 3.4186541272 -0.7789078633 -1.5392011886
C 4.7951731574 -0.4404925825 -0.8609517996
C 4.8047214863 0.862456944 0.028779656
C 3.8090486616 2.0075438128 -0.3707263286
O 3.5362918129 3.0207132527 0.3087695965
O -4.8295359467 2.1910070469 -0.3343483368
O 3.4481658315 1.8599822781 -1.7517882062
O 3.2455569289 -1.5054749954 -2.5410225367
C 2.5331813873 2.9487881979 -2.1580749114
C 4.9700277609 -1.5317204038 0.2920570943
C 6.3750080908 -1.3630100962 0.9982264028
C 6.0943662261 -0.1554896767 1.9693510684
C 4.6489832255 0.2625774135 1.4949300984
O 3.9932124328 -1.0514212682 1.2986281154
H 5.5997570941 -0.4628688414 -1.6159904615
H 5.8067639689 1.3273082734 -0.0493391118
H 4.7256414956 -2.5654321979 -0.0220445753
H 6.6444488969 -2.2776868472 1.5494031614
H 7.1729737772 -1.1431416359 0.270773539
H 6.0691122098 -0.4850158403 3.0206121104
H 6.8294090053 0.6589705321 1.8695782869
H 4.0697688016 0.8941300683 2.1964046252
O -2.3443736119 1.1287418848 0.2261108409
C -4.5736442045 3.5357602058 0.2252658635
C -5.3964146895 -1.3336253955 1.0977771185
C -6.147897163 -2.469646594 0.3009383966
C -4.957731133 -3.0885338487 -0.5231828824
C -3.7299863139 -2.2640255912 0.0345322002
O -4.1010622495 -1.9677617634 1.4382722615
H -5.8122497671 -0.0819707988 -0.6999394386
H -3.7948926134 -0.8395094246 -1.7182571326
H -3.5460910664 3.6067779727 0.6375626832
H -5.8995071358 -0.966623366 2.0132764972
H -6.5806299825 -3.2063687314 0.9966424076
H -6.9505817469 -2.0711309826 -0.3397970336
H -4.8301310295 -4.1617391843 -0.3106490432
H -5.0814121403 -2.957029531 -1.6103035158
H -2.7504473363 -2.7780529997 -0.0105430338
H -5.2952480435 3.790786761 1.0281931392
H -4.6849633981 4.2461283928 -0.614560333
H 2.3581675999 2.8128523668 -3.241257879
H 2.97696319 3.9482193464 -1.9726613119
H 1.5665310343 2.8868129073 -1.6170873435
H 1.119611696 -1.959741969 -0.5582176529
H 0.8925751617 -1.0530731861 -2.0993951673
H 0.2388975211 0.1038332972 0.7332041301
H -0.1574791892 0.8832085384 -0.8377240226
$end

$rem
JOBTYPE                   OPT
METHOD                    B3LYP
DFT_D                     d3_op
BASIS                     STO-3G
GEOM_OPT_MAX_CYCLES       100
GEOM_OPT_TOL_GRADIENT     300
GEOM_OPT_TOL_DISPLACEMENT 1200
GEOM_OPT_TOL_ENERGY       100
SYMMETRY                  False
THRESH                    12
SCF_CONVERGENCE           8
MAX_SUB_FILE_NUM          128
MEM_STATIC                400
MEM_TOTAL                 4000
$end
--------------------------------------------------------------

   16   -1510.2728349634      5.23E-09 Convergence criterion met
 Total energy in the final basis set = -1510.27283496
   13   -1510.2765747642      4.12E-09 Convergence criterion met
 Total energy in the final basis set = -1510.27657476
   13   -1510.2790381641      8.75E-09 Convergence criterion met
 Total energy in the final basis set = -1510.27903816
   13   -1510.2813312877      3.51E-09 Convergence criterion met
 Total energy in the final basis set = -1510.28133129
   13   -1510.2830600666      3.36E-09 Convergence criterion met
 Total energy in the final basis set = -1510.28306007
   13   -1510.2844653276      6.32E-09 Convergence criterion met
 Total energy in the final basis set = -1510.28446533
   13   -1510.2854999862      7.93E-09 Convergence criterion met
 Total energy in the final basis set = -1510.28549999
   12   -1510.2861843912      8.69E-09 Convergence criterion met
   13   -1510.2986744140      2.19E-09 Convergence criterion met
 Total energy in the final basis set = -1510.29867441
   12   -1510.2987482518      4.92E-09 Convergence criterion met
 Total energy in the final basis set = -1510.29874825
   12   -1510.2987901303      3.61E-09 Convergence criterion met
 Total energy in the final basis set = -1510.29879013
   10   -1510.2987963399      8.29E-09 Convergence criterion met
 Total energy in the final basis set = -1510.29879634
   10   -1510.2988014299      6.82E-09 Convergence criterion met
 Total energy in the final basis set = -1510.29880143
    9   -1510.2988042481      5.30E-09 Convergence criterion met
 Total energy in the final basis set = -1510.29880425

             Standard Nuclear Orientation (Angstroms)
    I     Atom           X                Y                Z
 ----------------------------------------------------------------
    1      O      -3.1242922036     2.3122328927    -0.2996413512
    2      C      -2.9406012223     1.2283219956    -0.8934397747
    3      C      -3.9906089483     0.0615332079    -1.0358955693
    4      C      -3.5469554515    -1.3453248855    -0.4496616156
    5      C      -2.1218931172    -1.2964240338     0.1804840979
    6      O      -1.3380975667    -2.3629575093    -0.3610069314
    7      C       0.0919492141    -2.1699048609    -0.0136406102
    8      C       0.7060051308    -1.1393285050    -1.0251996539
    9      O       2.0098260148    -0.7125764338    -0.4665764836
   10      C       2.5063932265     0.4559606720    -1.1193729275
   11      C       3.8991071346     0.7894661198    -0.4922836066
   12      C       3.8762340596     0.8049666432     1.0933854264
   13      C       2.4450888477     0.6126670167     1.7166704047
   14      O       2.0903992275    -0.2338340363     2.5642650342
   15      O      -1.7440940632     0.9022602389    -1.6183964950
   16      O       1.6062852158     1.6452263063     1.1918933389
   17      O       1.9210158127     1.0615488412    -2.0467179408
   18      C       0.2630946870     1.5953321391     1.8199201397
   19      C       4.9384709416    -0.3889238901    -0.7500639378
   20      C       6.3838149831     0.1264432658    -0.3688468976
   21      C       6.3251432379     0.0705851385     1.2035787400
   22      C       4.8385899313    -0.4061495091     1.4313021181
   23      O       4.6144905243    -1.3593460326     0.3177994697
   24      H       4.2445015620     1.7496468164    -0.9132475371
   25      H       4.2854230340     1.7596864423     1.4718880989
   26      H       4.8563341605    -0.8647839950    -1.7467537347
   27      H       7.1525754334    -0.5523484990    -0.7710063522
   28      H       6.5732696741     1.1416778991    -0.7523330479
   29      H       7.0335805034    -0.6709697954     1.6061001757
   30      H       6.5284097468     1.0459559126     1.6736850232
   31      H       4.6234404065    -0.8907394083     2.4035339596
   32      O      -1.7120077788    -0.4649109657     1.0222196884
   33      C      -0.8544675043     2.0919919357    -1.6877531086
   34      C      -5.2723656428     0.3670323295    -0.1529543258
   35      C      -6.4580382917    -0.5477887758    -0.6504926078
   36      C      -6.0172214801    -1.9490943115    -0.0843167256
   37      C      -4.6719104228    -1.5711566454     0.6529955581
   38      O      -4.9215336815    -0.2079605712     1.1672496522
   39      H      -4.2448681897    -0.0348801855    -2.1076665820
   40      H      -3.5600037951    -2.1334266757    -1.2226727283
   41      H      -0.8473368139     2.6353035164    -0.7239612195
   42      H      -5.4968157809     1.4468656956    -0.0544808756
   43      H      -7.4111869557    -0.2161090598    -0.2089626348
   44      H      -6.5562591429    -0.5425257956    -1.7478152490
   45      H      -6.7517031389    -2.3443172210     0.6354214942
   46      H      -5.8593182613    -2.6988812595    -0.8758431346
   47      H      -4.3767834896    -2.2502106326     1.4764257188
   48      H      -1.2028317745     2.7839469614    -2.4808122138
   49      H       0.1669913243     1.7187035519    -1.9270968712
   50      H      -0.2335474880     2.5442191492     1.5469849515
   51      H       0.3417120037     1.5259941355     2.9228873028
   52      H      -0.3486081103     0.7391054314     1.4508494529
   53      H       0.8460709247    -1.6058233750    -2.0241655397
   54      H      -0.0021840562    -0.2885758657    -1.1381907716
   55      H       0.5763621662    -3.1619930622    -0.0985871883
   56      H       0.2061765833    -1.7831265868     1.0222592141
 ----------------------------------------------------------------

    9   -1510.2988049224      5.81E-09 Convergence criterion met
 Total energy in the final basis set = -1510.29880492
 Final energy is   -1510.29880492242
 **  OPTIMIZATION CONVERGED  **

                    Orbital Energies (a.u.)
 --------------------------------------------------------------

 Alpha MOs
 -- Occupied --
-18.944 -18.942 -18.928 -18.922 -18.889 -18.888 -18.887 -18.884
-18.875 -18.866 -10.110 -10.108 -10.098 -10.093 -10.075 -10.071
-10.063 -10.062 -10.058 -10.057 -10.042 -10.041 -10.040 -10.039
-10.038 -10.035 -10.022 -10.021 -10.021 -10.019  -1.023  -1.018
 -1.006  -1.000  -0.972  -0.970  -0.948  -0.943  -0.933  -0.927
 -0.766  -0.764  -0.730  -0.724  -0.712  -0.706  -0.698  -0.653
 -0.649  -0.618  -0.598  -0.582  -0.547  -0.546  -0.538  -0.537
 -0.518  -0.509  -0.486  -0.476  -0.462  -0.461  -0.454  -0.447
 -0.436  -0.432  -0.430  -0.414  -0.409  -0.407  -0.401  -0.399
 -0.393  -0.379  -0.373  -0.368  -0.360  -0.359  -0.356  -0.352
 -0.341  -0.336  -0.334  -0.332  -0.330  -0.328  -0.324  -0.312
 -0.310  -0.306  -0.305  -0.299  -0.295  -0.289  -0.284  -0.279
 -0.271  -0.258  -0.255  -0.245  -0.243  -0.235  -0.234  -0.187
 -0.181  -0.174  -0.170  -0.161  -0.160  -0.152  -0.146  -0.145
 -0.143

          Ground-State Mulliken Net Atomic Charges

     Atom                 Charge (a.u.)
  ----------------------------------------
      1 O                    -0.208426
      2 C                     0.210983
      3 C                    -0.078510
      4 C                    -0.079416
      5 C                     0.217776
      6 O                    -0.168214
      7 C                    -0.050278
      8 C                    -0.054375
      9 O                    -0.166755
     10 C                     0.220873
     11 C                    -0.078005
     12 C                    -0.078404
     13 C                     0.213376
     14 O                    -0.216341
     15 O                    -0.180919
     16 O                    -0.180093
     17 O                    -0.216024
     18 C                    -0.145852
     19 C                     0.025769
     20 C                    -0.144017
     21 C                    -0.143581
     22 C                     0.024258
     23 O                    -0.186633
     24 H                     0.086420
     25 H                     0.083988
     26 H                     0.081414
     27 H                     0.078016
     28 H                     0.073939
     29 H                     0.078062
     30 H                     0.073560
     31 H                     0.090886
     32 O                    -0.212247
     33 C                    -0.147869
     34 C                     0.024721
     35 C                    -0.144150
     36 C                    -0.143699
     37 C                     0.026475
     38 O                    -0.185718
     39 H                     0.084717
     40 H                     0.087832
     41 H                     0.090332
     42 H                     0.092035
     43 H                     0.078947
     44 H                     0.073414
     45 H                     0.078852
     46 H                     0.073951
     47 H                     0.083972
     48 H                     0.078621
     49 H                     0.110801
     50 H                     0.083814
     51 H                     0.084636
     52 H                     0.109094
     53 H                     0.085188
     54 H                     0.102702
     55 H                     0.094780
     56 H                     0.105320
  ----------------------------------------
  Sum of atomic charges =     0.000000

                    Cartesian Multipole Moments
 -----------------------------------------------------------------
    Charge (ESU x 10^10)
                 0.0000
    Dipole Moment (Debye)
         X       0.5226      Y      -0.8729      Z      -2.1098
       Tot       2.3422
    Quadrupole Moments (Debye-Ang)
        XX    -138.9077     XY      12.3431     YY    -160.6853
        XZ       7.1029     YZ       2.5051     ZZ    -163.2820

 Total job time:  213.44s(wall), 10180.41s(cpu)
        *  Thank you very much for using Q-Chem.  Have a nice day.  *
