 Q-Chem 5.0, Q-Chem, Inc., Pleasanton, CA (2017)
 Q-Chem 5.0.1 for Intel X86 EM64T Linux

User input:
--------------------------------------------------------------
$molecule
0  1
O 2.0460713228 -1.6342466418 0.8006907758
C 2.8879674772 -1.6508576917 -0.1217423321
C 4.2566016832 -0.8806885427 -0.1996211018
C 4.1636200347 0.6737876829 -0.5289611636
C 2.8292049551 1.2217797009 -1.1376055742
O 1.7175596634 0.6618112514 -0.4456023631
C 0.457766556 1.3810128432 -0.7403751127
C -0.3741180357 1.4310316608 0.5895708979
O -1.5447009992 0.5470721766 0.3888508707
C -2.5317491183 0.7703261566 1.4039048689
C -3.6734088134 -0.2889833584 1.2071381433
C -4.626605966 -0.0192159576 -0.0335867444
C -4.1461845552 1.1449771757 -0.9728792173
O -4.1195540988 1.1458062374 -2.2215172993
O 2.7106807415 -2.3683808639 -1.3509633932
O -3.757964879 2.2612840904 -0.1638374328
O -2.4167456196 1.5952704193 2.3354832232
C -3.194338917 3.3378628215 -1.008909095
C -3.1281237157 -1.7396941043 0.8497927536
C -4.2644112421 -2.7831169794 1.185286063
C -5.2788012019 -2.5129661175 0.0121166958
C -4.5137196371 -1.3987490813 -0.8051083201
O -3.0839776508 -1.7496382901 -0.630086779
H -4.2601402119 -0.3029731369 2.1424914626
H -5.6597459196 0.1963722431 0.296712646
H -2.1301434685 -1.9718596964 1.2690183084
H -3.8655399687 -3.8093546077 1.1441708999
H -4.7064733671 -2.6155252099 2.1802914455
H -5.4306507607 -3.4110166156 -0.6076358124
H -6.2598379634 -2.1626894256 0.3712952877
H -4.7653653719 -1.3262739704 -1.8812704381
O 2.7351265623 2.0937054914 -2.0314189907
C 1.3849286209 -3.0300146118 -1.3578981712
C 4.855198368 -0.8109321208 1.2705399236
C 6.3377129056 -0.2653555884 1.2223803319
C 6.0940368831 1.2778962296 1.0317364113
C 4.522397074 1.310988978 0.8916260135
O 4.0784001508 0.2989962038 1.8718408024
H 4.9180576744 -1.3979875715 -0.916400387
H 4.9512192239 0.9362746352 -1.2583364587
H 0.5647273943 -2.3003665682 -1.1981744688
H 4.7140133338 -1.7375862327 1.8598897083
H 6.8628377763 -0.4811742286 2.1662233109
H 6.9091804776 -0.7088229195 0.3911635532
H 6.4089268272 1.8473765961 1.9208967769
H 6.605386468 1.6886846824 0.1466799975
H 4.0454213211 2.2891215244 1.0963143264
H 1.314707804 -3.8130627737 -0.5752319935
H 1.2799444646 -3.4959359662 -2.354886699
H -2.9030730362 4.1476210453 -0.3149395652
H -3.9397655361 3.719389151 -1.7361317105
H -2.3025399697 2.9869216036 -1.5674572897
H 0.2579956608 1.0643273362 1.4293310563
H -0.7030220719 2.4657203575 0.8267575516
H -0.1246733567 0.8275763739 -1.510484675
H 0.6883943449 2.3933562944 -1.135924849
$end

$rem
JOBTYPE                   OPT
METHOD                    B3LYP
DFT_D                     d3_op
BASIS                     STO-3G
GEOM_OPT_MAX_CYCLES       100
GEOM_OPT_TOL_GRADIENT     300
GEOM_OPT_TOL_DISPLACEMENT 1200
GEOM_OPT_TOL_ENERGY       100
SYMMETRY                  False
THRESH                    12
SCF_CONVERGENCE           8
MAX_SUB_FILE_NUM          128
MEM_STATIC                400
MEM_TOTAL                 4000
$end
--------------------------------------------------------------

   16   -1510.2774433118      3.69E-09 Convergence criterion met
 Total energy in the final basis set = -1510.27744331
   14   -1510.2800410983      1.71E-09 Convergence criterion met
 Total energy in the final basis set = -1510.28004110
   14   -1510.2828523493      1.88E-09 Convergence criterion met
 Total energy in the final basis set = -1510.28285235
   14   -1510.2851130392      2.34E-09 Convergence criterion met
 Total energy in the final basis set = -1510.28511304
   13   -1510.2871029593      3.37E-09 Convergence criterion met
 Total energy in the final basis set = -1510.28710296
   13   -1510.2888886263      4.49E-09 Convergence criterion met
 Total energy in the final basis set = -1510.28888863
   13   -1510.2903109071      5.62E-09 Convergence criterion met
 Total energy in the final basis set = -1510.29031091
   13   -1510.2915430458      3.54E-09 Convergence criterion met
   11   -1510.3011602796      6.44E-09 Convergence criterion met
 Total energy in the final basis set = -1510.30116028
   12   -1510.3011871396      9.22E-09 Convergence criterion met
 Total energy in the final basis set = -1510.30118714
   12   -1510.3011391782      7.39E-09 Convergence criterion met
 Total energy in the final basis set = -1510.30113918
   11   -1510.3012339733      6.58E-09 Convergence criterion met
 Total energy in the final basis set = -1510.30123397
   11   -1510.3012409325      6.47E-09 Convergence criterion met
 Total energy in the final basis set = -1510.30124093
   10   -1510.3012425122      6.11E-09 Convergence criterion met
 Total energy in the final basis set = -1510.30124251

             Standard Nuclear Orientation (Angstroms)
    I     Atom           X                Y                Z
 ----------------------------------------------------------------
    1      O      -0.9601478574     1.6976914501     0.3894693644
    2      C      -1.8524425944     1.3373143801    -0.4128024308
    3      C      -3.3752008847     1.1522690091    -0.0777598316
    4      C      -3.9723937272    -0.2208493082    -0.5969909643
    5      C      -2.9262302418    -1.1337634197    -1.3215585286
    6      O      -1.7995404999    -1.3253971693    -0.4512686425
    7      C      -0.7961906060    -2.1871530663    -1.1198798122
    8      C       0.4847540877    -2.2205938099    -0.2309460430
    9      O       1.2102765379    -0.9246381087    -0.2510100963
   10      C       1.4977814885    -0.5145568527     1.1081924198
   11      C       2.4812451375     0.6993007381     1.1007307674
   12      C       3.8534583758     0.4018577333     0.3574426245
   13      C       3.9254409727    -1.0260245713    -0.2869198177
   14      O       4.1095612442    -1.3179209739    -1.4872915302
   15      O      -1.6693262140     1.0645686133    -1.7975862769
   16      O       3.7727470550    -1.9885422454     0.7688965001
   17      O       1.0181717862    -1.0823820692     2.1126004241
   18      C       3.8869763176    -3.3673475949     0.2415901673
   19      C       1.9434150237     1.9309282347     0.2532481041
   20      C       2.7815347461     3.2046950705     0.6602899280
   21      C       4.1540026127     2.9168726770    -0.0579204529
   22      C       3.8486520493     1.5316667397    -0.7515192345
   23      O       2.4196435540     1.6347392715    -1.1174884028
   24      H       2.6518697778     0.9763873317     2.1555222753
   25      H       4.7044211049     0.5091729745     1.0547520465
   26      H       0.8308416167     2.0241447825     0.2739067570
   27      H       2.3064158618     4.1178174783     0.2674277650
   28      H       2.8852974552     3.3046158181     1.7524587903
   29      H       4.3836194632     3.6834085463    -0.8149503206
   30      H       4.9988920969     2.8518236703     0.6461842098
   31      H       4.4606570516     1.2875647583    -1.6416958960
   32      O      -3.0416358494    -1.6707867268    -2.4439549753
   33      C      -0.2321717685     1.0668174099    -2.1675657000
   34      C      -3.6100708339     1.0216677264     1.4836554674
   35      C      -5.1444126365     1.2497387153     1.7750924968
   36      C      -5.7558422673    -0.1039121415     1.2533997296
   37      C      -4.4550319304    -0.8635167887     0.7761363177
   38      O      -3.4201101307    -0.4258671334     1.7385480843
   39      H      -3.9310183720     2.0076579864    -0.5047673819
   40      H      -4.8132273932    -0.0610186815    -1.2940646211
   41      H       0.3664657181     0.3994978451    -1.5049119202
   42      H      -2.9035564393     1.6179851668     2.0933173917
   43      H      -5.3165155484     1.3811297444     2.8552215880
   44      H      -5.5421886444     2.1289465735     1.2435847813
   45      H      -6.2519863051    -0.6621411893     2.0632249200
   46      H      -6.4759591710     0.0426918690     0.4325024286
   47      H      -4.5330503112    -1.9679539722     0.7639704661
   48      H       0.1941048295     2.0886320754    -2.1273210832
   49      H      -0.1939233829     0.6991522254    -3.2091971159
   50      H       3.0847156714    -3.9771371901     0.6987884309
   51      H       4.8711455109    -3.7948621955     0.5215245080
   52      H       3.7932785663    -3.3614741551    -0.8631496076
   53      H       0.2249503808    -2.4486502702     0.8264850411
   54      H       1.1663214813    -3.0037621673    -0.6258162264
   55      H      -0.5641974158    -1.8100220715    -2.1389231183
   56      H      -1.1837392736    -3.2255408883    -1.2248130009
 ----------------------------------------------------------------

    9   -1510.3012434153      7.51E-09 Convergence criterion met
 Total energy in the final basis set = -1510.30124342
 Final energy is   -1510.30124341525
 **  OPTIMIZATION CONVERGED  **

                    Orbital Energies (a.u.)
 --------------------------------------------------------------

 Alpha MOs
 -- Occupied --
-18.937 -18.932 -18.931 -18.929 -18.887 -18.883 -18.880 -18.877
-18.877 -18.870 -10.107 -10.100 -10.099 -10.097 -10.073 -10.068
-10.061 -10.060 -10.057 -10.053 -10.045 -10.038 -10.037 -10.036
-10.035 -10.032 -10.020 -10.019 -10.014 -10.011  -1.018  -1.014
 -1.006  -1.003  -0.969  -0.963  -0.940  -0.939  -0.936  -0.930
 -0.764  -0.759  -0.727  -0.720  -0.711  -0.701  -0.694  -0.661
 -0.654  -0.611  -0.596  -0.575  -0.546  -0.541  -0.536  -0.531
 -0.513  -0.508  -0.485  -0.481  -0.467  -0.461  -0.441  -0.440
 -0.431  -0.427  -0.421  -0.417  -0.409  -0.406  -0.402  -0.402
 -0.394  -0.381  -0.374  -0.366  -0.365  -0.352  -0.351  -0.349
 -0.346  -0.344  -0.334  -0.329  -0.326  -0.322  -0.318  -0.309
 -0.305  -0.301  -0.299  -0.297  -0.293  -0.289  -0.284  -0.274
 -0.269  -0.253  -0.250  -0.247  -0.244  -0.233  -0.224  -0.182
 -0.175  -0.174  -0.171  -0.162  -0.158  -0.153  -0.148  -0.142
 -0.137

          Ground-State Mulliken Net Atomic Charges

     Atom                 Charge (a.u.)
  ----------------------------------------
      1 O                    -0.215105
      2 C                     0.225762
      3 C                    -0.077847
      4 C                    -0.078985
      5 C                     0.213026
      6 O                    -0.173626
      7 C                    -0.047609
      8 C                    -0.056229
      9 O                    -0.175222
     10 C                     0.219272
     11 C                    -0.079107
     12 C                    -0.078131
     13 C                     0.214044
     14 O                    -0.212606
     15 O                    -0.171669
     16 O                    -0.175081
     17 O                    -0.203500
     18 C                    -0.135742
     19 C                     0.005592
     20 C                    -0.144706
     21 C                    -0.144693
     22 C                     0.024413
     23 O                    -0.196127
     24 H                     0.086509
     25 H                     0.084796
     26 H                     0.111991
     27 H                     0.075149
     28 H                     0.072332
     29 H                     0.075889
     30 H                     0.071362
     31 H                     0.086833
     32 O                    -0.215068
     33 C                    -0.140482
     34 C                     0.024496
     35 C                    -0.143917
     36 C                    -0.143898
     37 C                     0.025831
     38 O                    -0.185184
     39 H                     0.085128
     40 H                     0.085483
     41 H                     0.112532
     42 H                     0.090752
     43 H                     0.078333
     44 H                     0.072920
     45 H                     0.078098
     46 H                     0.073757
     47 H                     0.082329
     48 H                     0.089546
     49 H                     0.087091
     50 H                     0.086530
     51 H                     0.084852
     52 H                     0.098985
     53 H                     0.108589
     54 H                     0.082494
     55 H                     0.093587
     56 H                     0.086230
  ----------------------------------------
  Sum of atomic charges =    -0.000000

                    Cartesian Multipole Moments
 -----------------------------------------------------------------
    Charge (ESU x 10^10)
                -0.0000
    Dipole Moment (Debye)
         X      -0.1931      Y       0.4746      Z       0.5248
       Tot       0.7335
    Quadrupole Moments (Debye-Ang)
        XX    -143.1659     XY      -3.8876     YY    -148.7420
        XZ       0.5661     YZ       1.0482     ZZ    -171.9351

 Total job time:  165.48s(wall), 7896.07s(cpu)
        *  Thank you very much for using Q-Chem.  Have a nice day.  *
