 Q-Chem 5.0, Q-Chem, Inc., Pleasanton, CA (2017)
 Q-Chem 5.0.1 for Intel X86 EM64T Linux

User input:
--------------------------------------------------------------
$molecule
0  1
O -3.94934 -3.66094 2.70899
C -3.26408 -4.56952 2.26188
C -3.36658 -6.02376 2.66595
C -2.7597 -6.42077 4.02165
C -2.27617 -5.28925 4.9014
O -3.19324 -4.27712 4.90148
C -2.97529 -3.31982 5.94327
C -4.31 -2.84262 6.50626
O -4.53225 -1.47103 6.14262
C -5.52355 -0.84126 6.82073
C -5.79307 0.55346 6.30811
C -4.72895 1.59651 6.67953
C -3.4097 1.04476 7.18139
O -2.30251 1.43709 6.84262
O -2.43201 -4.30116 1.22124
O -3.48177 0.23787 8.27441
O -6.26017 -1.39907 7.62514
C -2.39105 -0.31653 8.91108
C -5.81821 0.69464 4.77435
C -6.65775 1.91015 4.38702
C -5.75995 3.03692 4.86016
C -4.52178 2.24175 5.29471
O -4.51845 1.1211 4.44108
H -6.78486 0.85394 6.71848
H -5.09644 2.29754 7.46099
H -6.18693 -0.21678 4.25495
H -6.69769 1.93039 3.27412
H -7.69359 1.92954 4.78888
H -5.53059 3.69017 3.98922
H -6.16255 3.64495 5.69919
H -3.61914 2.88976 5.2552
O -1.16785 -5.24607 5.42144
C -2.24244 -3.04607 0.68164
C -4.82497 -6.47432 2.84954
C -4.92562 -7.99564 2.72975
C -4.30549 -8.42325 4.04409
C -4.00756 -7.05823 4.67045
O -5.06933 -6.2521 4.21583
H -2.88362 -6.61342 1.85354
H -1.93647 -7.1658 3.94237
H -1.84243 -2.35469 1.45404
H -5.52263 -5.98189 2.13695
H -6.00407 -8.2721 2.74146
H -4.44574 -8.41374 1.81873
H -5.08433 -8.94188 4.64686
H -3.40392 -9.06759 3.95951
H -3.90709 -7.15479 5.77439
H -3.20164 -2.65082 0.28406
H -1.51188 -3.11417 -0.15028
H -2.74286 -0.93256 9.76375
H -1.72365 0.483 9.29756
H -1.83075 -0.96856 8.20701
H -5.16141 -3.50944 6.24443
H -4.19647 -2.86877 7.61655
H -2.34923 -2.47027 5.59302
H -2.43071 -3.78346 6.80196
$end

$opt
CONSTRAINT
tors           1           2           3           4     -76.138
tors           3           4           5           6     +43.782
tors           4           5           6           7    +165.866
tors           5           6           7           8    -142.414
tors           6           7           8           9    -110.797
tors           7           8           9          10    -165.849
tors           8           9          10          11    -174.729
tors           9          10          11          12     -73.701
tors          11          12          13          14    +135.806
ENDCONSTRAINT
$end

$rem
JOBTYPE                   OPT
METHOD                    B3LYP
DFT_D                     d3_op
BASIS                     STO-3G
GEOM_OPT_MAX_CYCLES       100
GEOM_OPT_TOL_GRADIENT     300
GEOM_OPT_TOL_DISPLACEMENT 1200
GEOM_OPT_TOL_ENERGY       100
SYMMETRY                  False
THRESH                    12
SCF_CONVERGENCE           8
MAX_SUB_FILE_NUM          128
MEM_STATIC                400
MEM_TOTAL                 4000
$end
--------------------------------------------------------------

   15   -1510.1479919287      6.13E-09 Convergence criterion met
 Total energy in the final basis set = -1510.14799193
   14   -1510.2171331676      6.03E-09 Convergence criterion met
 Total energy in the final basis set = -1510.21713317
   14   -1510.2533557380      7.54E-09 Convergence criterion met
 Total energy in the final basis set = -1510.25335574
   14   -1510.2687026657      7.09E-09 Convergence criterion met
 Total energy in the final basis set = -1510.26870267
   14   -1510.2738711724      5.00E-09 Convergence criterion met
 Total energy in the final basis set = -1510.27387117
    2   -1510.2738711723      1.67E-09 Convergence criterion met
 Total energy in the final basis set = -1510.27387117
   12   -1510.2757737412      8.78E-09 Convergence criterion met
 Total energy in the final basis set = -1510.27577374
    2   -1510.2757737413      6.66E-09 Convergence criterion met
   12   -1510.2773466836      9.60E-09 Convergence criterion met
 Total energy in the final basis set = -1510.27734668
   12   -1510.2773965161      3.66E-09 Convergence criterion met
 Total energy in the final basis set = -1510.27739652
   10   -1510.2774111798      9.16E-09 Convergence criterion met
 Total energy in the final basis set = -1510.27741118
   10   -1510.2774238660      8.69E-09 Convergence criterion met
 Total energy in the final basis set = -1510.27742387
    9   -1510.2774271903      4.26E-09 Convergence criterion met
 Total energy in the final basis set = -1510.27742719
    9   -1510.2774285921      7.44E-09 Convergence criterion met
 Total energy in the final basis set = -1510.27742859

             Standard Nuclear Orientation (Angstroms)
    I     Atom           X                Y                Z
 ----------------------------------------------------------------
    1      O       2.0460713228    -1.6342466418     0.8006907758
    2      C       2.8879674772    -1.6508576917    -0.1217423321
    3      C       4.2566016832    -0.8806885427    -0.1996211018
    4      C       4.1636200347     0.6737876829    -0.5289611636
    5      C       2.8292049551     1.2217797009    -1.1376055742
    6      O       1.7175596634     0.6618112514    -0.4456023631
    7      C       0.4577665560     1.3810128432    -0.7403751127
    8      C      -0.3741180357     1.4310316608     0.5895708979
    9      O      -1.5447009992     0.5470721766     0.3888508707
   10      C      -2.5317491183     0.7703261566     1.4039048689
   11      C      -3.6734088134    -0.2889833584     1.2071381433
   12      C      -4.6266059660    -0.0192159576    -0.0335867444
   13      C      -4.1461845552     1.1449771757    -0.9728792173
   14      O      -4.1195540988     1.1458062374    -2.2215172993
   15      O       2.7106807415    -2.3683808639    -1.3509633932
   16      O      -3.7579648790     2.2612840904    -0.1638374328
   17      O      -2.4167456196     1.5952704193     2.3354832232
   18      C      -3.1943389170     3.3378628215    -1.0089090950
   19      C      -3.1281237157    -1.7396941043     0.8497927536
   20      C      -4.2644112421    -2.7831169794     1.1852860630
   21      C      -5.2788012019    -2.5129661175     0.0121166958
   22      C      -4.5137196371    -1.3987490813    -0.8051083201
   23      O      -3.0839776508    -1.7496382901    -0.6300867790
   24      H      -4.2601402119    -0.3029731369     2.1424914626
   25      H      -5.6597459196     0.1963722431     0.2967126460
   26      H      -2.1301434685    -1.9718596964     1.2690183084
   27      H      -3.8655399687    -3.8093546077     1.1441708999
   28      H      -4.7064733671    -2.6155252099     2.1802914455
   29      H      -5.4306507607    -3.4110166156    -0.6076358124
   30      H      -6.2598379634    -2.1626894256     0.3712952877
   31      H      -4.7653653719    -1.3262739704    -1.8812704381
   32      O       2.7351265623     2.0937054914    -2.0314189907
   33      C       1.3849286209    -3.0300146118    -1.3578981712
   34      C       4.8551983680    -0.8109321208     1.2705399236
   35      C       6.3377129056    -0.2653555884     1.2223803319
   36      C       6.0940368831     1.2778962296     1.0317364113
   37      C       4.5223970740     1.3109889780     0.8916260135
   38      O       4.0784001508     0.2989962038     1.8718408024
   39      H       4.9180576744    -1.3979875715    -0.9164003870
   40      H       4.9512192239     0.9362746352    -1.2583364587
   41      H       0.5647273943    -2.3003665682    -1.1981744688
   42      H       4.7140133338    -1.7375862327     1.8598897083
   43      H       6.8628377763    -0.4811742286     2.1662233109
   44      H       6.9091804776    -0.7088229195     0.3911635532
   45      H       6.4089268272     1.8473765961     1.9208967769
   46      H       6.6053864680     1.6886846824     0.1466799975
   47      H       4.0454213211     2.2891215244     1.0963143264
   48      H       1.3147078040    -3.8130627737    -0.5752319935
   49      H       1.2799444646    -3.4959359662    -2.3548866990
   50      H      -2.9030730362     4.1476210453    -0.3149395652
   51      H      -3.9397655361     3.7193891510    -1.7361317105
   52      H      -2.3025399697     2.9869216036    -1.5674572897
   53      H       0.2579956608     1.0643273362     1.4293310563
   54      H      -0.7030220719     2.4657203575     0.8267575516
   55      H      -0.1246733567     0.8275763739    -1.5104846750
   56      H       0.6883943449     2.3933562944    -1.1359248490
 ----------------------------------------------------------------

    9   -1510.2774294455      2.88E-09 Convergence criterion met
 Total energy in the final basis set = -1510.27742945
 Final energy is   -1510.27742944553
 **  OPTIMIZATION CONVERGED  **

                    Orbital Energies (a.u.)
 --------------------------------------------------------------

 Alpha MOs
 -- Occupied --
-18.941 -18.935 -18.925 -18.924 -18.889 -18.885 -18.880 -18.873
-18.867 -18.865 -10.103 -10.100 -10.094 -10.091 -10.072 -10.069
-10.068 -10.062 -10.059 -10.057 -10.057 -10.056 -10.038 -10.038
-10.036 -10.033 -10.021 -10.020 -10.019 -10.018  -1.017  -1.014
 -1.002  -1.001  -0.971  -0.968  -0.941  -0.939  -0.928  -0.926
 -0.763  -0.761  -0.727  -0.722  -0.712  -0.704  -0.694  -0.666
 -0.657  -0.611  -0.597  -0.580  -0.545  -0.543  -0.537  -0.535
 -0.515  -0.513  -0.485  -0.482  -0.467  -0.460  -0.443  -0.441
 -0.432  -0.430  -0.419  -0.416  -0.408  -0.406  -0.404  -0.399
 -0.391  -0.386  -0.377  -0.365  -0.362  -0.352  -0.351  -0.348
 -0.344  -0.337  -0.334  -0.331  -0.329  -0.326  -0.321  -0.309
 -0.308  -0.306  -0.305  -0.298  -0.294  -0.290  -0.286  -0.275
 -0.272  -0.252  -0.249  -0.246  -0.239  -0.234  -0.232  -0.181
 -0.177  -0.170  -0.168  -0.158  -0.155  -0.146  -0.145  -0.141
 -0.141

          Ground-State Mulliken Net Atomic Charges

     Atom                 Charge (a.u.)
  ----------------------------------------
      1 O                    -0.206611
      2 C                     0.212076
      3 C                    -0.078779
      4 C                    -0.079511
      5 C                     0.206525
      6 O                    -0.169981
      7 C                    -0.049846
      8 C                    -0.048883
      9 O                    -0.176291
     10 C                     0.214667
     11 C                    -0.080170
     12 C                    -0.078059
     13 C                     0.214246
     14 O                    -0.209777
     15 O                    -0.173153
     16 O                    -0.168444
     17 O                    -0.216855
     18 C                    -0.127714
     19 C                     0.025675
     20 C                    -0.143544
     21 C                    -0.144607
     22 C                     0.023678
     23 O                    -0.189308
     24 H                     0.083834
     25 H                     0.085564
     26 H                     0.087365
     27 H                     0.077499
     28 H                     0.073836
     29 H                     0.077739
     30 H                     0.072976
     31 H                     0.089510
     32 O                    -0.216326
     33 C                    -0.129554
     34 C                     0.026428
     35 C                    -0.145415
     36 C                    -0.142234
     37 C                     0.026065
     38 O                    -0.184208
     39 H                     0.085575
     40 H                     0.084694
     41 H                     0.094557
     42 H                     0.084234
     43 H                     0.078183
     44 H                     0.073841
     45 H                     0.078266
     46 H                     0.074619
     47 H                     0.082382
     48 H                     0.085632
     49 H                     0.088845
     50 H                     0.092952
     51 H                     0.091439
     52 H                     0.089049
     53 H                     0.099658
     54 H                     0.089284
     55 H                     0.094547
     56 H                     0.093831
  ----------------------------------------
  Sum of atomic charges =     0.000000

                    Cartesian Multipole Moments
 -----------------------------------------------------------------
    Charge (ESU x 10^10)
                -0.0000
    Dipole Moment (Debye)
         X       0.2465      Y      -0.5819      Z      -0.0056
       Tot       0.6320
    Quadrupole Moments (Debye-Ang)
        XX    -136.4050     XY       2.0238     YY    -151.6987
        XZ      -0.7019     YZ      -1.7104     ZZ    -172.3399

 Total job time:  68.70s(wall), 3270.78s(cpu)
        *  Thank you very much for using Q-Chem.  Have a nice day.  *
