 Q-Chem 5.0, Q-Chem, Inc., Pleasanton, CA (2017)
 Q-Chem 5.0.1 for Intel X86 EM64T Linux

User input:
--------------------------------------------------------------
$molecule
0  1
O -3.94934 -3.66094 2.70899
C -3.26408 -4.56952 2.26188
C -3.36658 -6.02376 2.66595
C -3.7849 -6.32259 4.11494
C -4.22606 -5.13907 4.94726
O -4.96659 -5.57007 6.01088
C -5.29136 -4.52347 6.93197
C -4.0407 -3.72318 7.28051
O -4.0497 -3.38427 8.6762
C -3.30851 -2.30126 9.01807
C -2.98006 -2.25435 10.49136
C -4.05912 -1.61162 11.37499
C -5.42248 -1.44223 10.73525
O -6.49244 -1.4847 11.32512
O -2.22512 -4.25617 1.44371
O -5.43643 -0.84527 9.51208
O -2.67923 -1.62921 8.20915
C -6.57597 -0.51068 8.80983
C -2.82277 -3.62915 11.17154
C -1.95583 -3.48985 12.42143
C -2.89698 -2.73082 13.3344
C -4.16 -2.69917 12.46517
O -4.09136 -3.89112 11.71894
H -2.01861 -1.69842 10.58485
H -3.75866 -0.61571 11.76831
H -2.40505 -4.40855 10.49728
H -1.81245 -4.51528 12.83181
H -0.9624 -3.01694 12.26556
H -3.0625 -3.34027 14.25052
H -2.56788 -1.70586 13.61155
H -5.05915 -2.57908 13.1083
O -3.4957 -4.16235 4.94434
C -1.93651 -2.97998 1.0075
C -4.52505 -6.69434 1.89752
C -4.29579 -8.2015 1.82055
C -4.54915 -8.59273 3.25815
C -4.99928 -7.24445 3.83469
O -5.62963 -6.60036 2.75868
H -2.42434 -6.53301 2.35961
H -2.98765 -6.84597 4.68805
H -1.72171 -2.31813 1.87361
H -4.67053 -6.28255 0.87396
H -5.1121 -8.62055 1.18904
H -3.31471 -8.51946 1.40677
H -5.38099 -9.33174 3.27747
H -3.66886 -8.99533 3.80458
H -5.63939 -7.43293 4.72249
H -2.79115 -2.57266 0.42594
H -1.04201 -3.01299 0.35231
H -6.28458 -0.04731 7.84505
H -7.18423 0.21777 9.38729
H -7.1757 -1.42247 8.60151
H -3.12857 -4.35991 7.20072
H -4.01187 -2.80602 6.6455
H -5.66126 -5.04253 7.84204
H -6.10626 -3.86084 6.56676
$end

$opt
CONSTRAINT
tors           1           2           3           4     -31.707
tors           3           4           5           6    +160.042
tors           4           5           6           7    +173.194
tors           5           6           7           8     -48.861
tors           6           7           8           9    -140.577
tors           7           8           9          10    -156.483
tors           8           9          10          11    -161.053
tors           9          10          11          12     -85.263
tors          11          12          13          14    +148.512
ENDCONSTRAINT
$end

$rem
JOBTYPE                   OPT
METHOD                    B3LYP
DFT_D                     d3_op
BASIS                     STO-3G
GEOM_OPT_MAX_CYCLES       100
GEOM_OPT_TOL_GRADIENT     300
GEOM_OPT_TOL_DISPLACEMENT 1200
GEOM_OPT_TOL_ENERGY       100
SYMMETRY                  False
THRESH                    12
SCF_CONVERGENCE           8
MAX_SUB_FILE_NUM          128
MEM_STATIC                400
MEM_TOTAL                 4000
$end
--------------------------------------------------------------

   15   -1510.1145435296      9.15E-09 Convergence criterion met
 Total energy in the final basis set = -1510.11454353
   14   -1510.1902629531      6.57E-09 Convergence criterion met
 Total energy in the final basis set = -1510.19026295
   14   -1510.2318516848      8.41E-09 Convergence criterion met
 Total energy in the final basis set = -1510.23185168
   14   -1510.2540937281      4.92E-09 Convergence criterion met
 Total energy in the final basis set = -1510.25409373
   14   -1510.2632779478      5.70E-09 Convergence criterion met
 Total energy in the final basis set = -1510.26327795
   13   -1510.2672055717      8.22E-09 Convergence criterion met
 Total energy in the final basis set = -1510.26720557
   13   -1510.2692821282      5.16E-09 Convergence criterion met
 Total energy in the final basis set = -1510.26928213
   12   -1510.2702055364      8.24E-09 Convergence criterion met
   12   -1510.2728165638      4.13E-09 Convergence criterion met
 Total energy in the final basis set = -1510.27281656
   11   -1510.2728489473      9.10E-09 Convergence criterion met
 Total energy in the final basis set = -1510.27284895
   11   -1510.2728784812      5.28E-09 Convergence criterion met
 Total energy in the final basis set = -1510.27287848
   11   -1510.2729097289      7.04E-09 Convergence criterion met
 Total energy in the final basis set = -1510.27290973
   10   -1510.2729207498      5.40E-09 Convergence criterion met
 Total energy in the final basis set = -1510.27292075
    9   -1510.2729263695      6.70E-09 Convergence criterion met
 Total energy in the final basis set = -1510.27292637

             Standard Nuclear Orientation (Angstroms)
    I     Atom           X                Y                Z
 ----------------------------------------------------------------
    1      O       4.2652277121    -1.8915524526     0.8170657203
    2      C       4.8287464002    -1.4237658713    -0.1943070207
    3      C       4.8831684862     0.0675645262    -0.6795943886
    4      C       3.6070095075     0.9282435873    -0.3227494912
    5      C       2.3045215116     0.1141583320     0.0045596854
    6      O       1.4302896099     0.9801510408     0.7377235898
    7      C       0.0954570565     0.3732055470     0.9660635091
    8      C      -0.5973204944    -0.2500895532    -0.3043601305
    9      O      -2.0371963594     0.0943654343    -0.1963742015
   10      C      -2.8313550258    -0.8373386242    -0.9516064691
   11      C      -4.2443167225    -0.2029648580    -1.2289711463
   12      C      -5.3322667183    -0.3851182707    -0.0859225586
   13      C      -4.7962246506    -0.9473666163     1.2811201981
   14      O      -5.2414258991    -0.6862698321     2.4190800552
   15      O       5.5967209519    -2.2079957717    -1.1181062407
   16      O      -3.7296439843    -1.8661449693     1.0339575190
   17      O      -2.3863167963    -1.8892073371    -1.4605778757
   18      C      -3.1417571424    -2.3447229832     2.3048807685
   19      C      -4.2254635965     1.3801828434    -1.3696230771
   20      C      -5.5007218922     1.8052459372    -2.1987564657
   21      C      -6.6391437741     1.5757029317    -1.1359510542
   22      C      -5.8006025935     1.1151730422     0.1198547408
   23      O      -4.5295124941     1.8679647261    -0.0049998023
   24      H      -4.6077235657    -0.6750023691    -2.1593166590
   25      H      -6.1601604486    -1.0348260417    -0.4264654268
   26      H      -3.2644596496     1.7984468985    -1.7251255255
   27      H      -5.4323161841     2.8646796343    -2.4932158120
   28      H      -5.6328823157     1.1935946949    -3.1056871120
   29      H      -7.1820350621     2.5085922633    -0.9158519435
   30      H      -7.3664760723     0.8100404712    -1.4506699825
   31      H      -6.2683029008     1.3003269782     1.1067595727
   32      O       2.0082982980    -1.0406539390    -0.3678778677
   33      C       5.6036017906    -3.6257205479    -0.6898262210
   34      C       5.9718474190     0.8174229589     0.2108342928
   35      C       6.2172601576     2.2720570194    -0.3584962749
   36      C       4.9530069682     3.0358062539     0.1851816439
   37      C       4.1581875318     1.8476996198     0.8529509772
   38      O       5.2331230826     1.0413253335     1.4751019301
   39      H       5.1248063398     0.0900658190    -1.7561594915
   40      H       3.3470459611     1.5652124849    -1.1899284154
   41      H       4.5768480638    -4.0433519371    -0.6491864353
   42      H       6.8904458497     0.2271781047     0.3963145310
   43      H       7.1523652383     2.6930095620     0.0435202590
   44      H       6.2743249262     2.2767170223    -1.4589764475
   45      H       5.2313281542     3.7835859017     0.9451781445
   46      H       4.3770866146     3.5355031142    -0.6100302591
   47      H       3.3941749087     2.1350732631     1.6006952115
   48      H       6.0723717281    -3.7504357698     0.3078005447
   49      H       6.1958887222    -4.1714590294    -1.4471856684
   50      H      -2.3588965586    -3.0720962971     2.0212160040
   51      H      -3.9013545077    -2.8408348802     2.9424914692
   52      H      -2.6863708921    -1.5108196822     2.8771112871
   53      H      -0.1847102201     0.2086408795    -1.2304808121
   54      H      -0.4537464208    -1.3480294226    -0.3663136060
   55      H      -0.5348689192     1.2091701872     1.3336542787
   56      H       0.1618336899    -0.3957334490     1.7667479564
 ----------------------------------------------------------------

    9   -1510.2729263799      6.25E-09 Convergence criterion met
 Total energy in the final basis set = -1510.27292638
 Final energy is   -1510.27292637990
 **  OPTIMIZATION CONVERGED  **

                    Orbital Energies (a.u.)
 --------------------------------------------------------------

 Alpha MOs
 -- Occupied --
-18.944 -18.934 -18.927 -18.919 -18.887 -18.886 -18.879 -18.877
-18.868 -18.863 -10.104 -10.102 -10.095 -10.092 -10.072 -10.068
-10.065 -10.060 -10.059 -10.058 -10.058 -10.058 -10.039 -10.038
-10.036 -10.034 -10.021 -10.020 -10.019 -10.019  -1.018  -1.013
 -1.003  -1.000  -0.970  -0.969  -0.941  -0.939  -0.928  -0.927
 -0.763  -0.762  -0.725  -0.722  -0.714  -0.705  -0.691  -0.665
 -0.658  -0.615  -0.597  -0.581  -0.545  -0.544  -0.537  -0.537
 -0.514  -0.511  -0.482  -0.471  -0.468  -0.458  -0.448  -0.442
 -0.435  -0.432  -0.426  -0.415  -0.408  -0.407  -0.406  -0.397
 -0.388  -0.381  -0.373  -0.371  -0.360  -0.357  -0.352  -0.350
 -0.340  -0.338  -0.332  -0.330  -0.329  -0.326  -0.319  -0.312
 -0.310  -0.306  -0.303  -0.298  -0.295  -0.292  -0.287  -0.277
 -0.272  -0.254  -0.250  -0.246  -0.240  -0.234  -0.233  -0.182
 -0.180  -0.170  -0.165  -0.158  -0.156  -0.146  -0.143  -0.142
 -0.140

          Ground-State Mulliken Net Atomic Charges

     Atom                 Charge (a.u.)
  ----------------------------------------
      1 O                    -0.208696
      2 C                     0.212421
      3 C                    -0.078887
      4 C                    -0.079035
      5 C                     0.213146
      6 O                    -0.173566
      7 C                    -0.049011
      8 C                    -0.051813
      9 O                    -0.180352
     10 C                     0.216160
     11 C                    -0.080914
     12 C                    -0.077791
     13 C                     0.214036
     14 O                    -0.210845
     15 O                    -0.172718
     16 O                    -0.165350
     17 O                    -0.218031
     18 C                    -0.126481
     19 C                     0.025733
     20 C                    -0.143639
     21 C                    -0.144584
     22 C                     0.023626
     23 O                    -0.189473
     24 H                     0.083667
     25 H                     0.085895
     26 H                     0.084646
     27 H                     0.077367
     28 H                     0.073297
     29 H                     0.078185
     30 H                     0.073272
     31 H                     0.089675
     32 O                    -0.209822
     33 C                    -0.128915
     34 C                     0.025379
     35 C                    -0.145038
     36 C                    -0.142490
     37 C                     0.024867
     38 O                    -0.188641
     39 H                     0.086673
     40 H                     0.083431
     41 H                     0.091307
     42 H                     0.082526
     43 H                     0.078117
     44 H                     0.073713
     45 H                     0.078165
     46 H                     0.073249
     47 H                     0.091985
     48 H                     0.087316
     49 H                     0.088533
     50 H                     0.095438
     51 H                     0.092643
     52 H                     0.090620
     53 H                     0.079962
     54 H                     0.106771
     55 H                     0.097855
     56 H                     0.086413
  ----------------------------------------
  Sum of atomic charges =    -0.000000

                    Cartesian Multipole Moments
 -----------------------------------------------------------------
    Charge (ESU x 10^10)
                 0.0000
    Dipole Moment (Debye)
         X       0.0752      Y       1.0220      Z      -2.0991
       Tot       2.3359
    Quadrupole Moments (Debye-Ang)
        XX    -143.5202     XY       3.0408     YY    -156.7000
        XZ       0.1971     YZ      -7.1420     ZZ    -161.9614

 Total job time:  54.80s(wall), 2601.12s(cpu)
        *  Thank you very much for using Q-Chem.  Have a nice day.  *
