 Q-Chem 5.0, Q-Chem, Inc., Pleasanton, CA (2017)
 Q-Chem 5.0.1 for Intel X86 EM64T Linux

User input:
--------------------------------------------------------------
$molecule
0  1
O 4.2652277121 -1.8915524526 0.8170657203
C 4.8287464002 -1.4237658713 -0.1943070207
C 4.8831684862 0.0675645262 -0.6795943886
C 3.6070095075 0.9282435873 -0.3227494912
C 2.3045215116 0.114158332 0.0045596854
O 1.4302896099 0.9801510408 0.7377235898
C 0.0954570565 0.373205547 0.9660635091
C -0.5973204944 -0.2500895532 -0.3043601305
O -2.0371963594 0.0943654343 -0.1963742015
C -2.8313550258 -0.8373386242 -0.9516064691
C -4.2443167225 -0.202964858 -1.2289711463
C -5.3322667183 -0.3851182707 -0.0859225586
C -4.7962246506 -0.9473666163 1.2811201981
O -5.2414258991 -0.6862698321 2.4190800552
O 5.5967209519 -2.2079957717 -1.1181062407
O -3.7296439843 -1.8661449693 1.033957519
O -2.3863167963 -1.8892073371 -1.4605778757
C -3.1417571424 -2.3447229832 2.3048807685
C -4.2254635965 1.3801828434 -1.3696230771
C -5.5007218922 1.8052459372 -2.1987564657
C -6.6391437741 1.5757029317 -1.1359510542
C -5.8006025935 1.1151730422 0.1198547408
O -4.5295124941 1.8679647261 -0.0049998023
H -4.6077235657 -0.6750023691 -2.159316659
H -6.1601604486 -1.0348260417 -0.4264654268
H -3.2644596496 1.7984468985 -1.7251255255
H -5.4323161841 2.8646796343 -2.493215812
H -5.6328823157 1.1935946949 -3.105687112
H -7.1820350621 2.5085922633 -0.9158519435
H -7.3664760723 0.8100404712 -1.4506699825
H -6.2683029008 1.3003269782 1.1067595727
O 2.008298298 -1.040653939 -0.3678778677
C 5.6036017906 -3.6257205479 -0.689826221
C 5.971847419 0.8174229589 0.2108342928
C 6.2172601576 2.2720570194 -0.3584962749
C 4.9530069682 3.0358062539 0.1851816439
C 4.1581875318 1.8476996198 0.8529509772
O 5.2331230826 1.0413253335 1.4751019301
H 5.1248063398 0.090065819 -1.7561594915
H 3.3470459611 1.5652124849 -1.1899284154
H 4.5768480638 -4.0433519371 -0.6491864353
H 6.8904458497 0.2271781047 0.396314531
H 7.1523652383 2.693009562 0.043520259
H 6.2743249262 2.2767170223 -1.4589764475
H 5.2313281542 3.7835859017 0.9451781445
H 4.3770866146 3.5355031142 -0.6100302591
H 3.3941749087 2.1350732631 1.6006952115
H 6.0723717281 -3.7504357698 0.3078005447
H 6.1958887222 -4.1714590294 -1.4471856684
H -2.3588965586 -3.0720962971 2.021216004
H -3.9013545077 -2.8408348802 2.9424914692
H -2.6863708921 -1.5108196822 2.8771112871
H -0.1847102201 0.2086408795 -1.2304808121
H -0.4537464208 -1.3480294226 -0.366313606
H -0.5348689192 1.2091701872 1.3336542787
H 0.1618336899 -0.395733449 1.7667479564
$end

$rem
JOBTYPE                   OPT
METHOD                    B3LYP
DFT_D                     d3_op
BASIS                     STO-3G
GEOM_OPT_MAX_CYCLES       100
GEOM_OPT_TOL_GRADIENT     300
GEOM_OPT_TOL_DISPLACEMENT 1200
GEOM_OPT_TOL_ENERGY       100
SYMMETRY                  False
THRESH                    12
SCF_CONVERGENCE           8
MAX_SUB_FILE_NUM          128
MEM_STATIC                400
MEM_TOTAL                 4000
$end
--------------------------------------------------------------

   16   -1510.2728162119      5.12E-09 Convergence criterion met
 Total energy in the final basis set = -1510.27281621
   14   -1510.2762255622      2.98E-09 Convergence criterion met
 Total energy in the final basis set = -1510.27622556
   14   -1510.2785316054      2.18E-09 Convergence criterion met
 Total energy in the final basis set = -1510.27853161
   14   -1510.2799602286      2.22E-09 Convergence criterion met
 Total energy in the final basis set = -1510.27996023
   14   -1510.2812061142      1.84E-09 Convergence criterion met
 Total energy in the final basis set = -1510.28120611
   13   -1510.2823545932      2.52E-09 Convergence criterion met
 Total energy in the final basis set = -1510.28235459
   13   -1510.2832672688      3.77E-09 Convergence criterion met
 Total energy in the final basis set = -1510.28326727
   13   -1510.2841903517      5.97E-09 Convergence criterion met
   12   -1510.2937765681      9.57E-09 Convergence criterion met
 Total energy in the final basis set = -1510.29377657
   12   -1510.2937330809      7.64E-09 Convergence criterion met
 Total energy in the final basis set = -1510.29373308
   12   -1510.2937982895      5.44E-09 Convergence criterion met
 Total energy in the final basis set = -1510.29379829
   12   -1510.2938008180      6.67E-09 Convergence criterion met
 Total energy in the final basis set = -1510.29380082
   11   -1510.2938184926      7.58E-09 Convergence criterion met
 Total energy in the final basis set = -1510.29381849
   10   -1510.2938161720      6.66E-09 Convergence criterion met
 Total energy in the final basis set = -1510.29381617

             Standard Nuclear Orientation (Angstroms)
    I     Atom           X                Y                Z
 ----------------------------------------------------------------
    1      O      -3.6786534706     1.8485495088     1.7475606108
    2      C      -3.7726443536     1.4650371787     0.5626779481
    3      C      -4.5245197287     0.1879516337     0.0308906895
    4      C      -3.5953282939    -1.0434846245    -0.3223352747
    5      C      -2.0793577832    -0.7847726912    -0.0354036265
    6      O      -1.3586259429    -1.9757308584    -0.3432847802
    7      C       0.0927041322    -1.8008939037    -0.0923865360
    8      C       0.8305011605    -1.3413748132    -1.3985730785
    9      O       2.2172471360    -1.0576517191    -0.9692540295
   10      C       2.9436472672    -0.3419848366    -1.9783229993
   11      C       4.3262723196     0.0339326152    -1.3495721043
   12      C       4.1708724475     0.7075885351     0.0790892815
   13      C       2.6764127315     0.9701120488     0.4980244285
   14      O       2.1021192352     0.6236154182     1.5517514507
   15      O      -3.3206863213     2.2198811712    -0.5720310511
   16      O       2.0769297062     1.7595115881    -0.5362670888
   17      O       2.5120168795    -0.1017026105    -3.1246453738
   18      C       0.7020358610     2.1665713965    -0.1619532968
   19      C       5.1548555212    -1.2674352414    -0.9606240695
   20      C       6.6315241441    -0.8322450807    -0.5990696895
   21      C       6.4297646012    -0.2270148111     0.8404742003
   22      C       4.8675320459    -0.3690602232     1.0090654788
   23      O       4.5714466816    -1.6586918754     0.3411729432
   24      H       4.8710097292     0.6794934951    -2.0600411226
   25      H       4.7068517689     1.6740839777     0.1109000356
   26      H       5.0739312080    -2.0983634047    -1.6883150484
   27      H       7.2981202611    -1.7089651059    -0.5813811503
   28      H       7.0318950921    -0.0981300368    -1.3164681412
   29      H       6.9551980711    -0.8219627253     1.6043827963
   30      H       6.7654221229     0.8198136733     0.9141251261
   31      H       4.4874370194    -0.3759842236     2.0492798041
   32      O      -1.5627838046     0.2661294929     0.4125405656
   33      C      -2.6354865652     3.4464923850    -0.1083468109
   34      C      -5.4401476428    -0.4441040906     1.1614790570
   35      C      -6.4932721750    -1.4003847807     0.4774138881
   36      C      -5.5833917846    -2.6256702044     0.0913644152
   37      C      -4.1840792735    -2.1555165624     0.6534572443
   38      O      -4.5315307222    -1.3811197177     1.8644349967
   39      H      -5.1140295398     0.4879495187    -0.8536949694
   40      H      -3.6987668443    -1.3456197310    -1.3804643624
   41      H      -1.8347276880     3.2121942733     0.6208255232
   42      H      -5.8531797819     0.2953439806     1.8743918475
   43      H      -7.2744124075    -1.6909295915     1.1979825487
   44      H      -6.9745967004    -0.9344010577    -0.3973838859
   45      H      -5.9086436109    -3.5478038009     0.5985385722
   46      H      -5.5534485931    -2.8109855446    -0.9942622202
   47      H      -3.4703726421    -2.9673497918     0.8940286662
   48      H      -3.3460378802     4.1544125762     0.3664407377
   49      H      -2.1973149765     3.9152709149    -1.0086538405
   50      H       0.3188397512     2.7387938464    -1.0263456688
   51      H       0.7133879940     2.8229877730     0.7317696757
   52      H       0.0230829642     1.3065441648     0.0431626709
   53      H       0.8025670843    -2.1387480726    -2.1732923097
   54      H       0.3516246743    -0.4312162229    -1.8213665976
   55      H       0.4758132601    -2.7881525697     0.2348041169
   56      H       0.2694899881    -1.0493352314     0.7073709894
 ----------------------------------------------------------------

    8   -1510.2938167219      8.84E-09 Convergence criterion met
 Total energy in the final basis set = -1510.29381672
 Final energy is   -1510.29381672188
 **  OPTIMIZATION CONVERGED  **

                    Orbital Energies (a.u.)
 --------------------------------------------------------------

 Alpha MOs
 -- Occupied --
-18.950 -18.934 -18.924 -18.922 -18.898 -18.889 -18.886 -18.878
-18.868 -18.863 -10.117 -10.101 -10.095 -10.092 -10.077 -10.076
-10.063 -10.061 -10.058 -10.056 -10.056 -10.045 -10.045 -10.037
-10.035 -10.034 -10.022 -10.020 -10.020 -10.019  -1.028  -1.015
 -1.001  -1.000  -0.972  -0.969  -0.953  -0.939  -0.930  -0.926
 -0.766  -0.763  -0.731  -0.723  -0.713  -0.705  -0.697  -0.658
 -0.652  -0.619  -0.597  -0.582  -0.547  -0.545  -0.539  -0.536
 -0.519  -0.509  -0.487  -0.476  -0.467  -0.459  -0.456  -0.442
 -0.434  -0.433  -0.429  -0.412  -0.409  -0.405  -0.404  -0.401
 -0.398  -0.380  -0.371  -0.369  -0.362  -0.357  -0.349  -0.348
 -0.346  -0.339  -0.336  -0.335  -0.330  -0.327  -0.325  -0.315
 -0.309  -0.306  -0.304  -0.302  -0.291  -0.290  -0.278  -0.276
 -0.273  -0.262  -0.251  -0.247  -0.244  -0.236  -0.233  -0.192
 -0.178  -0.175  -0.167  -0.164  -0.156  -0.146  -0.146  -0.143
 -0.142

          Ground-State Mulliken Net Atomic Charges

     Atom                 Charge (a.u.)
  ----------------------------------------
      1 O                    -0.214941
      2 C                     0.214943
      3 C                    -0.081615
      4 C                    -0.077328
      5 C                     0.220956
      6 O                    -0.169303
      7 C                    -0.051280
      8 C                    -0.047455
      9 O                    -0.171208
     10 C                     0.215194
     11 C                    -0.078398
     12 C                    -0.078033
     13 C                     0.214507
     14 O                    -0.216150
     15 O                    -0.175694
     16 O                    -0.179218
     17 O                    -0.210449
     18 C                    -0.143263
     19 C                     0.025648
     20 C                    -0.144080
     21 C                    -0.143613
     22 C                     0.024274
     23 O                    -0.186879
     24 H                     0.085643
     25 H                     0.083365
     26 H                     0.081590
     27 H                     0.077752
     28 H                     0.073677
     29 H                     0.077972
     30 H                     0.073203
     31 H                     0.090424
     32 O                    -0.206318
     33 C                    -0.128662
     34 C                     0.025331
     35 C                    -0.144023
     36 C                    -0.143773
     37 C                     0.025400
     38 O                    -0.187897
     39 H                     0.084375
     40 H                     0.088009
     41 H                     0.093237
     42 H                     0.089313
     43 H                     0.078636
     44 H                     0.073477
     45 H                     0.078979
     46 H                     0.073666
     47 H                     0.087248
     48 H                     0.084574
     49 H                     0.085535
     50 H                     0.083265
     51 H                     0.080919
     52 H                     0.106249
     53 H                     0.086792
     54 H                     0.090070
     55 H                     0.096491
     56 H                     0.108866
  ----------------------------------------
  Sum of atomic charges =    -0.000000

                    Cartesian Multipole Moments
 -----------------------------------------------------------------
    Charge (ESU x 10^10)
                 0.0000
    Dipole Moment (Debye)
         X       0.1047      Y      -0.2372      Z      -2.2193
       Tot       2.2344
    Quadrupole Moments (Debye-Ang)
        XX    -135.9394     XY       5.9870     YY    -153.7654
        XZ       8.0060     YZ       2.1202     ZZ    -172.9891

 Total job time:  96.51s(wall), 4591.49s(cpu)
        *  Thank you very much for using Q-Chem.  Have a nice day.  *
