 Q-Chem 5.0, Q-Chem, Inc., Pleasanton, CA (2017)
 Q-Chem 5.0.1 for Intel X86 EM64T Linux

User input:
--------------------------------------------------------------
$molecule
0  1
O -3.94934 -3.66094 2.70899
C -3.26408 -4.56952 2.26188
C -3.36658 -6.02376 2.66595
C -2.11256 -6.89412 2.48223
C -0.84419 -6.17353 2.08214
O 0.24204 -6.94602 2.38014
C 0.60929 -7.83443 1.31943
C 1.48652 -8.96039 1.85685
O 2.87216 -8.60431 1.73003
C 3.7362 -9.64587 1.64215
C 5.17671 -9.23272 1.82897
C 5.64248 -8.08188 0.92515
C 4.54405 -7.29016 0.24447
O 3.53891 -6.85858 0.79037
O -2.84142 -4.39296 0.9773
O 4.68332 -7.11336 -1.09542
O 3.40489 -10.80797 1.44271
C 3.77007 -6.45149 -1.88929
C 5.45667 -8.62922 3.22058
C 6.943 -8.76517 3.54799
C 7.53707 -7.75889 2.58249
C 6.25603 -7.15642 1.99261
O 5.32315 -7.24154 3.04269
H 5.8028 -10.14663 1.71133
H 6.38565 -8.397 0.15911
H 4.83832 -9.08219 4.02634
H 7.08046 -8.38561 4.58606
H 7.35981 -9.79287 3.4778
H 8.0994 -6.99952 3.16987
H 8.18682 -8.18718 1.78874
H 6.45125 -6.13433 1.59789
O -0.68551 -4.97309 1.94707
C -2.8658 -3.19423 0.29269
C -3.60235 -6.17448 4.18274
C -4.25915 -7.52124 4.47655
C -3.09939 -8.45707 4.22451
C -1.98665 -7.44622 3.92583
O -2.3146 -6.33445 4.71957
H -4.24568 -6.43247 2.11836
H -2.29029 -7.70725 1.74729
H -2.24427 -2.44064 0.8218
H -4.21478 -5.35701 4.62204
H -4.50106 -7.54206 5.56352
H -5.17937 -7.7345 3.89121
H -2.88059 -9.00427 5.16871
H -3.24105 -9.17992 3.39213
H -1.00698 -7.92139 4.145
H -3.90931 -2.82443 0.20048
H -2.45205 -3.34875 -0.72481
H 4.13062 -6.45362 -2.9383
H 3.66018 -5.39914 -1.55032
H 2.785 -6.96402 -1.848
H 1.20915 -9.30972 2.87515
H 1.28527 -9.79797 1.14754
H 1.02509 -7.3159 0.42875
H -0.31604 -8.35178 0.97878
$end

$opt
CONSTRAINT
tors           1           2           3           4    -154.921
tors           3           4           5           6    +160.042
tors           4           5           6           7     +88.795
tors           5           6           7           8    -161.053
tors           6           7           8           9     -92.704
tors           7           8           9          10    -154.187
tors           8           9          10          11    -166.826
tors           9          10          11          12     -52.500
tors          11          12          13          14     +46.962
ENDCONSTRAINT
$end

$rem
JOBTYPE                   OPT
METHOD                    B3LYP
DFT_D                     d3_op
BASIS                     STO-3G
GEOM_OPT_MAX_CYCLES       100
GEOM_OPT_TOL_GRADIENT     300
GEOM_OPT_TOL_DISPLACEMENT 1200
GEOM_OPT_TOL_ENERGY       100
SYMMETRY                  False
THRESH                    12
SCF_CONVERGENCE           8
MAX_SUB_FILE_NUM          128
MEM_STATIC                400
MEM_TOTAL                 4000
$end
--------------------------------------------------------------

   15   -1510.0947711290      6.28E-09 Convergence criterion met
 Total energy in the final basis set = -1510.09477113
   14   -1510.1663272146      5.68E-09 Convergence criterion met
 Total energy in the final basis set = -1510.16632721
   14   -1510.2083309121      6.76E-09 Convergence criterion met
 Total energy in the final basis set = -1510.20833091
   14   -1510.2293066192      5.51E-09 Convergence criterion met
 Total energy in the final basis set = -1510.22930662
   14   -1510.2378192923      2.13E-09 Convergence criterion met
 Total energy in the final basis set = -1510.23781929
   14   -1510.2413882671      2.36E-09 Convergence criterion met
 Total energy in the final basis set = -1510.24138827
   13   -1510.2433718539      9.95E-09 Convergence criterion met
 Total energy in the final basis set = -1510.24337185
   13   -1510.2443796743      6.31E-09 Convergence criterion met
   11   -1510.2475549988      1.94E-09 Convergence criterion met
 Total energy in the final basis set = -1510.24755500
   10   -1510.2475628240      8.74E-09 Convergence criterion met
 Total energy in the final basis set = -1510.24756282
   10   -1510.2475719958      7.75E-09 Convergence criterion met
 Total energy in the final basis set = -1510.24757200
    9   -1510.2475789986      6.46E-09 Convergence criterion met
 Total energy in the final basis set = -1510.24757900
    9   -1510.2475830635      8.59E-09 Convergence criterion met
 Total energy in the final basis set = -1510.24758306
    9   -1510.2475845614      5.10E-09 Convergence criterion met
 Total energy in the final basis set = -1510.24758456

             Standard Nuclear Orientation (Angstroms)
    I     Atom           X                Y                Z
 ----------------------------------------------------------------
    1      O      -6.0106111756     1.4711579425     1.2922665113
    2      C      -5.1312301239     1.1139658145     0.4788869926
    3      C      -4.8910436225    -0.3415152688    -0.0613326886
    4      C      -3.4383646074    -0.6867765152    -0.5620699533
    5      C      -2.3037510659     0.1030191208     0.2200422340
    6      O      -0.9988812143    -0.5404645352     0.0914803038
    7      C      -0.3176181582    -0.0161875538    -1.1125144117
    8      C       0.8139604857    -1.0272855209    -1.5061804850
    9      O       2.0561602109    -0.5666436828    -0.8449459391
   10      C       3.2119509254    -1.0041302413    -1.5551258665
   11      C       4.4725126439    -0.7872485383    -0.6490918829
   12      C       4.6810924823     0.6634813520    -0.0337644895
   13      C       3.8080689060     1.8433383154    -0.5915327297
   14      O       2.5819598295     1.9221521876    -0.8149470425
   15      O      -4.4019198840     2.0273759787    -0.3547058072
   16      O       4.7105602926     2.9430286761    -0.8032549107
   17      O       3.1934277917    -1.5257243262    -2.6934043302
   18      C       3.9643350168     4.1236187440    -1.2950932892
   19      C       4.3003166479    -1.6361121438     0.6883027541
   20      C       5.6881802825    -1.6991510937     1.4435438379
   21      C       5.7474082589    -0.2687192853     2.0971197590
   22      C       4.4280764950     0.3766962822     1.5173005075
   23      O       3.4706943641    -0.7492243353     1.5325428464
   24      H       5.3582567525    -1.1011414368    -1.2288702224
   25      H       5.7293153275     0.9766183315    -0.1850962485
   26      H       3.7991311618    -2.6132515349     0.5459829517
   27      H       5.6799364415    -2.4950393441     2.2050672928
   28      H       6.5242297684    -1.8819481425     0.7496246592
   29      H       5.6925467145    -0.3255452099     3.1961748621
   30      H       6.6509134051     0.2950515959     1.8154285645
   31      H       4.0271307380     1.2353091142     2.0898925187
   32      O      -2.4959209802     0.9900148157     1.0748815198
   33      C      -4.6669238210     3.4194788541     0.0686764991
   34      C      -5.1808369887    -1.5358485683     0.9436380052
   35      C      -5.7040926130    -2.7428959193     0.0736792011
   36      C      -4.3935314345    -3.1138197656    -0.7185848168
   37      C      -3.3272147567    -2.1790894014    -0.0198076943
   38      O      -3.8399263432    -2.0082803188     1.3641594991
   39      H      -5.5823636775    -0.4286744922    -0.9222537066
   40      H      -3.3168829497    -0.5953826952    -1.6556194321
   41      H      -4.2293025182     3.6254567621     1.0669514015
   42      H      -5.7988714589    -1.2611449761     1.8205890724
   43      H      -6.0268678352    -3.5719509981     0.7239170924
   44      H      -6.5403953077    -2.4617251187    -0.5862381801
   45      H      -4.1237764656    -4.1737152220    -0.5885432337
   46      H      -4.4786273707    -2.9026972064    -1.7969526633
   47      H      -2.2878264400    -2.5607616088    -0.0038060282
   48      H      -5.7539736459     3.6363649197     0.1074144399
   49      H      -4.1825917692     4.0670750420    -0.6851567600
   50      H       4.7118466421     4.9290761500    -1.4159890064
   51      H       3.1849483471     4.4456176870    -0.5743874791
   52      H       3.4764607431     3.9216330339    -2.2706690434
   53      H       0.5475542218    -2.0480054366    -1.1525134436
   54      H       0.9623207524    -1.0602616368    -2.6074694828
   55      H       0.1510954235     0.9764121494    -0.9154267523
   56      H      -1.0246699062     0.0910472674    -1.9658626522
 ----------------------------------------------------------------

    9   -1510.2475843404      7.00E-09 Convergence criterion met
 Total energy in the final basis set = -1510.24758434
 Final energy is   -1510.24758434041
 **  OPTIMIZATION CONVERGED  **

                    Orbital Energies (a.u.)
 --------------------------------------------------------------

 Alpha MOs
 -- Occupied --
-18.932 -18.929 -18.924 -18.903 -18.897 -18.890 -18.884 -18.877
-18.868 -18.867 -10.103 -10.098 -10.095 -10.094 -10.068 -10.067
-10.064 -10.061 -10.060 -10.057 -10.057 -10.056 -10.038 -10.037
-10.036 -10.034 -10.021 -10.020 -10.020 -10.018  -1.012  -1.007
 -1.005  -0.998  -0.971  -0.967  -0.938  -0.934  -0.928  -0.926
 -0.762  -0.761  -0.725  -0.721  -0.711  -0.703  -0.694  -0.663
 -0.655  -0.605  -0.598  -0.578  -0.544  -0.543  -0.538  -0.536
 -0.516  -0.509  -0.485  -0.478  -0.459  -0.457  -0.450  -0.435
 -0.433  -0.430  -0.415  -0.412  -0.411  -0.407  -0.404  -0.402
 -0.386  -0.385  -0.372  -0.367  -0.363  -0.351  -0.350  -0.344
 -0.340  -0.337  -0.336  -0.333  -0.329  -0.329  -0.322  -0.312
 -0.310  -0.307  -0.306  -0.302  -0.293  -0.284  -0.280  -0.273
 -0.271  -0.255  -0.249  -0.243  -0.239  -0.234  -0.229  -0.178
 -0.173  -0.170  -0.157  -0.151  -0.149  -0.146  -0.145  -0.142
 -0.142

          Ground-State Mulliken Net Atomic Charges

     Atom                 Charge (a.u.)
  ----------------------------------------
      1 O                    -0.216080
      2 C                     0.215162
      3 C                    -0.080872
      4 C                    -0.079576
      5 C                     0.226553
      6 O                    -0.192709
      7 C                    -0.046343
      8 C                    -0.046499
      9 O                    -0.158015
     10 C                     0.205514
     11 C                    -0.078853
     12 C                    -0.079851
     13 C                     0.206351
     14 O                    -0.207735
     15 O                    -0.173444
     16 O                    -0.172002
     17 O                    -0.219757
     18 C                    -0.129624
     19 C                     0.027050
     20 C                    -0.144711
     21 C                    -0.142682
     22 C                     0.027451
     23 O                    -0.180771
     24 H                     0.084443
     25 H                     0.086614
     26 H                     0.082611
     27 H                     0.078607
     28 H                     0.073905
     29 H                     0.078597
     30 H                     0.074229
     31 H                     0.084750
     32 O                    -0.171728
     33 C                    -0.128144
     34 C                     0.023477
     35 C                    -0.141376
     36 C                    -0.146007
     37 C                     0.021580
     38 O                    -0.190942
     39 H                     0.082387
     40 H                     0.080798
     41 H                     0.091119
     42 H                     0.090676
     43 H                     0.078293
     44 H                     0.073069
     45 H                     0.078411
     46 H                     0.072156
     47 H                     0.089336
     48 H                     0.088557
     49 H                     0.087295
     50 H                     0.089683
     51 H                     0.088692
     52 H                     0.087626
     53 H                     0.086840
     54 H                     0.093413
     55 H                     0.099595
     56 H                     0.072880
  ----------------------------------------
  Sum of atomic charges =    -0.000000

                    Cartesian Multipole Moments
 -----------------------------------------------------------------
    Charge (ESU x 10^10)
                 0.0000
    Dipole Moment (Debye)
         X       1.5775      Y       0.3223      Z      -2.7049
       Tot       3.1479
    Quadrupole Moments (Debye-Ang)
        XX    -146.0311     XY       6.7775     YY    -147.6735
        XZ      16.9272     YZ      -2.7042     ZZ    -165.8365

 Total job time:  68.02s(wall), 3234.46s(cpu)
        *  Thank you very much for using Q-Chem.  Have a nice day.  *
