 Q-Chem 5.0, Q-Chem, Inc., Pleasanton, CA (2017)
 Q-Chem 5.0.1 for Intel X86 EM64T Linux

User input:
--------------------------------------------------------------
$molecule
0  1
O -6.0106111756 1.4711579425 1.2922665113
C -5.1312301239 1.1139658145 0.4788869926
C -4.8910436225 -0.3415152688 -0.0613326886
C -3.4383646074 -0.6867765152 -0.5620699533
C -2.3037510659 0.1030191208 0.220042234
O -0.9988812143 -0.5404645352 0.0914803038
C -0.3176181582 -0.0161875538 -1.1125144117
C 0.8139604857 -1.0272855209 -1.506180485
O 2.0561602109 -0.5666436828 -0.8449459391
C 3.2119509254 -1.0041302413 -1.5551258665
C 4.4725126439 -0.7872485383 -0.6490918829
C 4.6810924823 0.663481352 -0.0337644895
C 3.808068906 1.8433383154 -0.5915327297
O 2.5819598295 1.9221521876 -0.8149470425
O -4.401919884 2.0273759787 -0.3547058072
O 4.7105602926 2.9430286761 -0.8032549107
O 3.1934277917 -1.5257243262 -2.6934043302
C 3.9643350168 4.123618744 -1.2950932892
C 4.3003166479 -1.6361121438 0.6883027541
C 5.6881802825 -1.6991510937 1.4435438379
C 5.7474082589 -0.2687192853 2.097119759
C 4.428076495 0.3766962822 1.5173005075
O 3.4706943641 -0.7492243353 1.5325428464
H 5.3582567525 -1.1011414368 -1.2288702224
H 5.7293153275 0.9766183315 -0.1850962485
H 3.7991311618 -2.6132515349 0.5459829517
H 5.6799364415 -2.4950393441 2.2050672928
H 6.5242297684 -1.8819481425 0.7496246592
H 5.6925467145 -0.3255452099 3.1961748621
H 6.6509134051 0.2950515959 1.8154285645
H 4.027130738 1.2353091142 2.0898925187
O -2.4959209802 0.9900148157 1.0748815198
C -4.666923821 3.4194788541 0.0686764991
C -5.1808369887 -1.5358485683 0.9436380052
C -5.704092613 -2.7428959193 0.0736792011
C -4.3935314345 -3.1138197656 -0.7185848168
C -3.3272147567 -2.1790894014 -0.0198076943
O -3.8399263432 -2.0082803188 1.3641594991
H -5.5823636775 -0.4286744922 -0.9222537066
H -3.3168829497 -0.5953826952 -1.6556194321
H -4.2293025182 3.6254567621 1.0669514015
H -5.7988714589 -1.2611449761 1.8205890724
H -6.0268678352 -3.5719509981 0.7239170924
H -6.5403953077 -2.4617251187 -0.5862381801
H -4.1237764656 -4.173715222 -0.5885432337
H -4.4786273707 -2.9026972064 -1.7969526633
H -2.28782644 -2.5607616088 -0.0038060282
H -5.7539736459 3.6363649197 0.1074144399
H -4.1825917692 4.067075042 -0.68515676
H 4.7118466421 4.92907615 -1.4159890064
H 3.1849483471 4.445617687 -0.5743874791
H 3.4764607431 3.9216330339 -2.2706690434
H 0.5475542218 -2.0480054366 -1.1525134436
H 0.9623207524 -1.0602616368 -2.6074694828
H 0.1510954235 0.9764121494 -0.9154267523
H -1.0246699062 0.0910472674 -1.9658626522
$end

$rem
JOBTYPE                   OPT
METHOD                    B3LYP
DFT_D                     d3_op
BASIS                     STO-3G
GEOM_OPT_MAX_CYCLES       100
GEOM_OPT_TOL_GRADIENT     300
GEOM_OPT_TOL_DISPLACEMENT 1200
GEOM_OPT_TOL_ENERGY       100
SYMMETRY                  False
THRESH                    12
SCF_CONVERGENCE           8
MAX_SUB_FILE_NUM          128
MEM_STATIC                400
MEM_TOTAL                 4000
$end
--------------------------------------------------------------

   16   -1510.2475629658      4.94E-09 Convergence criterion met
 Total energy in the final basis set = -1510.24756297
   14   -1510.2515574127      7.34E-09 Convergence criterion met
 Total energy in the final basis set = -1510.25155741
   15   -1510.2547245986      2.46E-09 Convergence criterion met
 Total energy in the final basis set = -1510.25472460
   13   -1510.2572147522      5.29E-09 Convergence criterion met
 Total energy in the final basis set = -1510.25721475
   14   -1510.2594389288      5.08E-09 Convergence criterion met
 Total energy in the final basis set = -1510.25943893
   14   -1510.2614665124      5.75E-09 Convergence criterion met
 Total energy in the final basis set = -1510.26146651
   13   -1510.2633533737      7.15E-09 Convergence criterion met
 Total energy in the final basis set = -1510.26335337
   13   -1510.2657178607      9.66E-09 Convergence criterion met
   11   -1510.2892655141      8.64E-09 Convergence criterion met
 Total energy in the final basis set = -1510.28926551
   11   -1510.2892804793      8.11E-09 Convergence criterion met
 Total energy in the final basis set = -1510.28928048
   11   -1510.2892799870      6.62E-09 Convergence criterion met
 Total energy in the final basis set = -1510.28927999
    9   -1510.2892809027      9.77E-09 Convergence criterion met
 Total energy in the final basis set = -1510.28928090
    9   -1510.2892823786      9.66E-09 Convergence criterion met
 Total energy in the final basis set = -1510.28928238
    9   -1510.2892840326      6.52E-09 Convergence criterion met
 Total energy in the final basis set = -1510.28928403

             Standard Nuclear Orientation (Angstroms)
    I     Atom           X                Y                Z
 ----------------------------------------------------------------
    1      O      -3.0583580543     1.0658463482     2.3880237063
    2      C      -2.0931327146     1.1140835012     1.5971702442
    3      C      -2.1084198505     0.8562485551     0.0445538029
    4      C      -1.6574060389    -0.5928604486    -0.4070366465
    5      C      -1.2905205251    -1.5052694123     0.8208469455
    6      O      -1.0653383227    -2.9062218734     0.6082374085
    7      C      -0.5709017525    -3.2870714744    -0.7364292396
    8      C       0.9723035905    -3.5703328407    -0.6583319342
    9      O       1.6225747186    -2.4172062331    -0.0002568837
   10      C       2.6517348562    -1.8588339676    -0.8247271676
   11      C       3.2987753313    -0.6489056710    -0.0527587205
   12      C       2.5211731631     0.7172441696    -0.2583824672
   13      C       1.4726567105     0.6839843566    -1.4072716835
   14      O       0.8470010746    -0.3114004368    -1.8508903085
   15      O      -0.8082902034     1.6896088466     1.9317233434
   16      O       1.3107144794     2.0052214222    -1.9193441995
   17      O       3.0015090877    -2.3230783268    -1.9326697866
   18      C       0.3256205926     2.0127322977    -3.0266459040
   19      C       3.1474981217    -0.8286560323     1.5148180953
   20      C       3.9748051786     0.3007802265     2.2522428212
   21      C       3.0136490431     1.5395116272     2.1004449286
   22      C       1.8773774230     0.9258637657     1.1957453446
   23      O       1.7366167742    -0.4413672729     1.7350313184
   24      H       4.3499212751    -0.5589230094    -0.3799290405
   25      H       3.2220659728     1.5410963518    -0.4792709462
   26      H       3.3306794297    -1.8588829540     1.8750830255
   27      H       4.1344403191     0.0353860335     3.3091231555
   28      H       4.9558305556     0.4663964424     1.7785481636
   29      H       2.5978496364     1.8446209657     3.0741160042
   30      H       3.5059548334     2.4099718353     1.6379579516
   31      H       0.8783213730     1.4227302893     1.2406817011
   32      O      -1.2942348438    -1.0969890376     2.0065604582
   33      C      -0.6792207608     1.8433202112     3.3960181429
   34      C      -3.5894499304     0.9061275148    -0.5234658788
   35      C      -3.5235179882     1.0940059604    -2.0891461351
   36      C      -3.0486694259    -0.3349315913    -2.5463140328
   37      C      -2.9700484496    -1.0868259145    -1.1587059018
   38      O      -4.0665501069    -0.4870646534    -0.3677709981
   39      H      -1.4632950916     1.6205612761    -0.4247948714
   40      H      -0.7810113896    -0.5263019970    -1.0868518028
   41      H      -0.0807711554     1.0050599198     3.8075202892
   42      H      -4.2590115410     1.6038713163     0.0154917817
   43      H      -4.5214046418     1.3330732876    -2.4896737837
   44      H      -2.8261975067     1.8945321359    -2.3838461897
   45      H      -3.7888321473    -0.8142754508    -3.2063669345
   46      H      -2.0742967359    -0.3183365704    -3.0606237223
   47      H      -3.0957422660    -2.1852694658    -1.2095315886
   48      H      -1.6857713313     1.8408226914     3.8599215568
   49      H      -0.1622259238     2.8013467090     3.5950624238
   50      H       0.3594428451     3.0297274342    -3.4582032042
   51      H      -0.6990450014     1.8032895873    -2.6588896863
   52      H       0.5818943618     1.2647755859    -3.8037267056
   53      H       1.1611745699    -4.4736460125    -0.0406817884
   54      H       1.4060532070    -3.7103746239    -1.6734282994
   55      H      -0.7660549288    -2.5219946278    -1.5094322246
   56      H      -1.0993775481    -4.2221408034    -1.0205758278
 ----------------------------------------------------------------

    9   -1510.2892844768      6.28E-09 Convergence criterion met
 Total energy in the final basis set = -1510.28928448
 Final energy is   -1510.28928447683
 **  OPTIMIZATION CONVERGED  **

                    Orbital Energies (a.u.)
 --------------------------------------------------------------

 Alpha MOs
 -- Occupied --
-18.957 -18.929 -18.929 -18.920 -18.894 -18.887 -18.882 -18.879
-18.870 -18.860 -10.118 -10.099 -10.098 -10.092 -10.080 -10.076
-10.067 -10.060 -10.057 -10.056 -10.048 -10.044 -10.041 -10.038
-10.032 -10.024 -10.022 -10.021 -10.017 -10.015  -1.031  -1.011
 -1.002  -0.994  -0.969  -0.965  -0.954  -0.939  -0.929  -0.923
 -0.763  -0.760  -0.724  -0.721  -0.715  -0.704  -0.698  -0.675
 -0.651  -0.612  -0.597  -0.585  -0.545  -0.544  -0.539  -0.535
 -0.516  -0.512  -0.489  -0.476  -0.468  -0.460  -0.454  -0.446
 -0.436  -0.432  -0.426  -0.422  -0.418  -0.411  -0.408  -0.398
 -0.397  -0.386  -0.383  -0.366  -0.363  -0.362  -0.351  -0.346
 -0.342  -0.338  -0.335  -0.329  -0.326  -0.324  -0.320  -0.315
 -0.311  -0.307  -0.305  -0.302  -0.294  -0.284  -0.281  -0.274
 -0.268  -0.263  -0.246  -0.241  -0.235  -0.233  -0.226  -0.194
 -0.178  -0.172  -0.163  -0.159  -0.153  -0.148  -0.143  -0.140
 -0.138

          Ground-State Mulliken Net Atomic Charges

     Atom                 Charge (a.u.)
  ----------------------------------------
      1 O                    -0.215648
      2 C                     0.223626
      3 C                    -0.081946
      4 C                    -0.100184
      5 C                     0.224428
      6 O                    -0.168560
      7 C                    -0.047750
      8 C                    -0.052062
      9 O                    -0.168003
     10 C                     0.212739
     11 C                    -0.079294
     12 C                    -0.082840
     13 C                     0.218121
     14 O                    -0.222276
     15 O                    -0.180808
     16 O                    -0.162258
     17 O                    -0.220704
     18 C                    -0.129592
     19 C                     0.027396
     20 C                    -0.145894
     21 C                    -0.143308
     22 C                     0.008907
     23 O                    -0.184537
     24 H                     0.083883
     25 H                     0.087247
     26 H                     0.085454
     27 H                     0.077352
     28 H                     0.071386
     29 H                     0.076008
     30 H                     0.071193
     31 H                     0.110010
     32 O                    -0.188191
     33 C                    -0.133343
     34 C                     0.025473
     35 C                    -0.144049
     36 C                    -0.145730
     37 C                     0.020932
     38 O                    -0.186985
     39 H                     0.076684
     40 H                     0.101600
     41 H                     0.091729
     42 H                     0.088034
     43 H                     0.078870
     44 H                     0.067722
     45 H                     0.077488
     46 H                     0.072721
     47 H                     0.080991
     48 H                     0.101317
     49 H                     0.080669
     50 H                     0.095544
     51 H                     0.086113
     52 H                     0.094345
     53 H                     0.086147
     54 H                     0.100119
     55 H                     0.092411
     56 H                     0.087303
  ----------------------------------------
  Sum of atomic charges =     0.000000

                    Cartesian Multipole Moments
 -----------------------------------------------------------------
    Charge (ESU x 10^10)
                 0.0000
    Dipole Moment (Debye)
         X       2.4066      Y       1.9371      Z      -3.2648
       Tot       4.4948
    Quadrupole Moments (Debye-Ang)
        XX    -165.2078     XY       0.7493     YY    -152.8652
        XZ      15.7097     YZ       1.6791     ZZ    -159.7821

 Total job time:  210.82s(wall), 10050.35s(cpu)
        *  Thank you very much for using Q-Chem.  Have a nice day.  *
