 Q-Chem 5.0, Q-Chem, Inc., Pleasanton, CA (2017)
 Q-Chem 5.0.1 for Intel X86 EM64T Linux

User input:
--------------------------------------------------------------
$molecule
0  1
O 5.0863779917 -1.7926973648 -1.3109270647
C 4.27615713 -0.8420112104 -1.3310551598
C 4.3736056082 0.5084672811 -0.5332484092
C 3.0844806354 0.8888240989 0.2940516761
C 2.2252029567 -0.3865434595 0.6436225389
O 1.4448873956 -0.1124167741 1.8064045121
C 0.1057419245 -0.7633629309 1.8723563961
C -0.539086549 -1.3444300048 0.5569801868
O -1.6872874063 -0.4637008509 0.2361063857
C -2.499217255 -1.0578004444 -0.7880320352
C -3.5318132069 0.0101338677 -1.3003869627
C -4.8750451948 0.1299109536 -0.4607700657
C -4.8750335171 -0.6191538582 0.9221518885
O -5.4255273203 -0.2382946642 1.9770728364
O 3.2300163115 -0.6901442416 -2.3061440069
O -4.1713132991 -1.8572769445 0.7930689648
O -2.2808568023 -2.1811530177 -1.2914751646
C -4.0863806177 -2.5480890669 2.0993775175
C -3.0110292759 1.5110938842 -1.2414641386
C -3.8508137362 2.3529560422 -2.2813122303
C -5.2377073172 2.4452019946 -1.5417424
C -4.9178424213 1.6911466565 -0.1924188647
O -3.4932747679 2.009762684 0.0661956886
H -3.7744396904 -0.2785137635 -2.3388632506
H -5.7447927336 -0.2206848639 -1.0470720021
H -1.9121640436 1.6198464079 -1.3172966701
H -3.401142024 3.3491516339 -2.419483009
H -3.9214130062 1.8564634066 -3.2621297153
H -5.5218065592 3.4905636793 -1.3421579015
H -6.0521849431 1.9595767467 -2.1029426189
H -5.5427747783 1.9708994502 0.6782300873
O 2.2591720899 -1.4881002006 0.0470991658
C 3.0785900381 -1.9420938548 -3.0780123509
C 5.4936346299 0.5558036155 0.5891038831
C 5.935274801 2.0622805427 0.7322869037
C 4.6331845424 2.6832718148 1.3653934794
C 3.7653611169 1.3897459136 1.636972979
O 4.7654857828 0.3150862951 1.8589303051
H 4.5643173535 1.2944243411 -1.2873722953
H 2.4478500772 1.643592911 -0.2022456204
H 2.7059832552 -2.7651517449 -2.4339463093
H 6.3053946263 -0.1856552883 0.4550997097
H 6.7932215222 2.1462600452 1.4185839801
H 6.2040811172 2.520190225 -0.2328700097
H 4.8488247708 3.2113170783 2.3075123943
H 4.1221929113 3.3795103128 0.6809527014
H 3.0652574495 1.4545849401 2.4918019182
H 4.0359071939 -2.2596727912 -3.5395487759
H 2.3360595564 -1.7294417523 -3.8691267723
H -3.5668036989 -3.5041299165 1.9034969198
H -5.0926131398 -2.7477753455 2.520276833
H -3.5065133543 -1.9521080332 2.8335603875
H 0.1957415543 -1.3782907782 -0.2750635035
H -0.8852732448 -2.3845007551 0.7353962333
H -0.5755285622 0.0223726628 2.2651180522
H 0.1660831744 -1.5733311519 2.6330249885
$end

$rem
JOBTYPE                   OPT
METHOD                    B3LYP
DFT_D                     d3_op
BASIS                     STO-3G
GEOM_OPT_MAX_CYCLES       100
GEOM_OPT_TOL_GRADIENT     300
GEOM_OPT_TOL_DISPLACEMENT 1200
GEOM_OPT_TOL_ENERGY       100
SYMMETRY                  False
THRESH                    12
SCF_CONVERGENCE           8
MAX_SUB_FILE_NUM          128
MEM_STATIC                400
MEM_TOTAL                 4000
$end
--------------------------------------------------------------

   16   -1510.2643567628      4.22E-09 Convergence criterion met
 Total energy in the final basis set = -1510.26435676
   14   -1510.2684989698      2.86E-09 Convergence criterion met
 Total energy in the final basis set = -1510.26849897
   13   -1510.2715831991      7.28E-09 Convergence criterion met
 Total energy in the final basis set = -1510.27158320
   13   -1510.2741750894      5.42E-09 Convergence criterion met
 Total energy in the final basis set = -1510.27417509
   13   -1510.2764350798      3.83E-09 Convergence criterion met
 Total energy in the final basis set = -1510.27643508
   13   -1510.2785321654      3.57E-09 Convergence criterion met
 Total energy in the final basis set = -1510.27853217
   13   -1510.2805784522      3.97E-09 Convergence criterion met
 Total energy in the final basis set = -1510.28057845
   13   -1510.2826406997      3.54E-09 Convergence criterion met
   12   -1510.3049193120      5.12E-09 Convergence criterion met
 Total energy in the final basis set = -1510.30491931
   11   -1510.3049991904      6.82E-09 Convergence criterion met
 Total energy in the final basis set = -1510.30499919
   10   -1510.3049887528      7.79E-09 Convergence criterion met
 Total energy in the final basis set = -1510.30498875
   10   -1510.3049944099      9.49E-09 Convergence criterion met
 Total energy in the final basis set = -1510.30499441
   11   -1510.3049958916      3.22E-09 Convergence criterion met
 Total energy in the final basis set = -1510.30499589
    9   -1510.3049976044      8.16E-09 Convergence criterion met
 Total energy in the final basis set = -1510.30499760

             Standard Nuclear Orientation (Angstroms)
    I     Atom           X                Y                Z
 ----------------------------------------------------------------
    1      O       3.6793880074    -1.0333622009    -1.9164557873
    2      C       2.7090441068    -0.2780862149    -1.7055709052
    3      C       2.6580821880     1.0300766160    -0.8363541917
    4      C       1.8517342571     0.8797485837     0.5159679260
    5      C       1.4823494822    -0.6088856423     0.8122246946
    6      O       0.8325189461    -0.6792521991     2.0813071685
    7      C       0.3885612060    -2.0633154291     2.3718059391
    8      C      -0.6872767333    -2.5886029757     1.3419914887
    9      O      -1.3742164795    -1.4168951564     0.7487772275
   10      C      -1.4828729338    -1.5546515702    -0.6719148669
   11      C      -2.1296526436    -0.2643498027    -1.2717273742
   12      C      -3.1298341350     0.5077964439    -0.3163450902
   13      C      -3.5186872435    -0.2400826989     1.0093098779
   14      O      -3.4076281251     0.1806344959     2.1797038859
   15      O       1.4419795808    -0.3763023396    -2.3923897489
   16      O      -4.1490509506    -1.4800504917     0.6500060650
   17      O      -1.0447379436    -2.5398391249    -1.3106687264
   18      C      -4.5513359043    -2.2113978823     1.8712710867
   19      C      -0.9980229989     0.8383620122    -1.4649439273
   20      C      -1.5804359586     2.0239519545    -2.3310056269
   21      C      -2.4689520231     2.7868166418    -1.2774422381
   22      C      -2.3188523332     1.8402546189    -0.0261447741
   23      O      -0.9017547206     1.4163337586    -0.1052128112
   24      H      -2.6023380115    -0.5408296443    -2.2304127457
   25      H      -4.0669282593     0.7280666633    -0.8604666429
   26      H      -0.0147198482     0.4203861380    -1.8081447054
   27      H      -0.7639648653     2.6600828366    -2.7080623342
   28      H      -2.1643143012     1.6581678302    -3.1905674901
   29      H      -2.0615372092     3.7859880645    -1.0544223051
   30      H      -3.5172758890     2.8960969085    -1.5979704007
   31      H      -2.5371660293     2.2894579733     0.9624000018
   32      O       1.6947652077    -1.6023449659     0.0787751248
   33      C       1.2858736984    -1.6814582040    -3.0732205587
   34      C       4.0822379294     1.4700063883    -0.2935519824
   35      C       4.0034303867     3.0050296799     0.0626560587
   36      C       3.1115654760     2.9638564097     1.3598544734
   37      C       2.9218086194     1.4070164530     1.5568488362
   38      O       4.1812424681     0.8224886040     1.0357132853
   39      H       2.2065795348     1.8226738255    -1.4595927332
   40      H       0.8968880795     1.4503805079     0.5025952578
   41      H       2.2178266063    -2.2693157755    -2.9616890056
   42      H       4.9302732800     1.1637381295    -0.9361993435
   43      H       5.0087225264     3.4006885139     0.2789870907
   44      H       3.5549308312     3.6024035721    -0.7469956253
   45      H       3.6322280972     3.4037664378     2.2251288981
   46      H       2.1463982571     3.4784336813     1.2272682023
   47      H       2.7380638992     1.0792952886     2.5984236091
   48      H       1.0807761781    -1.5015064739    -4.1467860593
   49      H       0.4250466937    -2.2101566582    -2.6042196927
   50      H      -4.9812830444    -3.1703390551     1.5276404639
   51      H      -5.3134238241    -1.6523362245     2.4522975410
   52      H      -3.6844284440    -2.4095217131     2.5338918308
   53      H      -0.2208226741    -3.1697566681     0.5184503490
   54      H      -1.4333554194    -3.2242095090     1.8644479071
   55      H      -0.0474728774    -2.0050544326     3.3885110224
   56      H       1.2510143031    -2.7651815644     2.3846570005
 ----------------------------------------------------------------

    9   -1510.3049969177      7.82E-09 Convergence criterion met
 Total energy in the final basis set = -1510.30499692
 Final energy is   -1510.30499691768
 **  OPTIMIZATION CONVERGED  **

                    Orbital Energies (a.u.)
 --------------------------------------------------------------

 Alpha MOs
 -- Occupied --
-18.945 -18.940 -18.928 -18.923 -18.890 -18.885 -18.879 -18.879
-18.870 -18.866 -10.108 -10.101 -10.099 -10.094 -10.078 -10.073
-10.064 -10.059 -10.053 -10.052 -10.043 -10.041 -10.039 -10.037
-10.028 -10.023 -10.020 -10.017 -10.015 -10.014  -1.026  -1.013
 -1.005  -0.998  -0.972  -0.963  -0.947  -0.938  -0.933  -0.927
 -0.764  -0.757  -0.729  -0.719  -0.710  -0.702  -0.694  -0.662
 -0.648  -0.618  -0.597  -0.579  -0.546  -0.539  -0.537  -0.531
 -0.513  -0.503  -0.491  -0.468  -0.466  -0.455  -0.447  -0.440
 -0.437  -0.429  -0.425  -0.421  -0.411  -0.407  -0.403  -0.400
 -0.396  -0.377  -0.372  -0.367  -0.364  -0.358  -0.353  -0.348
 -0.344  -0.338  -0.331  -0.330  -0.325  -0.323  -0.318  -0.309
 -0.306  -0.306  -0.302  -0.300  -0.296  -0.291  -0.275  -0.274
 -0.268  -0.257  -0.252  -0.244  -0.240  -0.230  -0.221  -0.187
 -0.179  -0.173  -0.167  -0.161  -0.155  -0.150  -0.148  -0.146
 -0.138

          Ground-State Mulliken Net Atomic Charges

     Atom                 Charge (a.u.)
  ----------------------------------------
      1 O                    -0.212536
      2 C                     0.223444
      3 C                    -0.083351
      4 C                    -0.090034
      5 C                     0.216676
      6 O                    -0.162159
      7 C                    -0.046496
      8 C                    -0.055634
      9 O                    -0.167319
     10 C                     0.220616
     11 C                    -0.078848
     12 C                    -0.079302
     13 C                     0.218523
     14 O                    -0.216456
     15 O                    -0.184129
     16 O                    -0.176805
     17 O                    -0.213437
     18 C                    -0.128202
     19 C                     0.002420
     20 C                    -0.145746
     21 C                    -0.143910
     22 C                     0.026176
     23 O                    -0.198082
     24 H                     0.086495
     25 H                     0.083820
     26 H                     0.114457
     27 H                     0.075211
     28 H                     0.072864
     29 H                     0.076016
     30 H                     0.072995
     31 H                     0.090564
     32 O                    -0.214406
     33 C                    -0.142162
     34 C                     0.023960
     35 C                    -0.143125
     36 C                    -0.144050
     37 C                     0.023445
     38 O                    -0.192179
     39 H                     0.082393
     40 H                     0.116269
     41 H                     0.099507
     42 H                     0.087438
     43 H                     0.076682
     44 H                     0.072045
     45 H                     0.076666
     46 H                     0.075202
     47 H                     0.085619
     48 H                     0.078121
     49 H                     0.102335
     50 H                     0.088742
     51 H                     0.087320
     52 H                     0.085256
     53 H                     0.110178
     54 H                     0.082905
     55 H                     0.092077
     56 H                     0.091931
  ----------------------------------------
  Sum of atomic charges =    -0.000000

                    Cartesian Multipole Moments
 -----------------------------------------------------------------
    Charge (ESU x 10^10)
                -0.0000
    Dipole Moment (Debye)
         X      -3.0365      Y       1.0999      Z      -0.0257
       Tot       3.2296
    Quadrupole Moments (Debye-Ang)
        XX    -164.5890     XY       8.4475     YY    -152.0636
        XZ       2.3726     YZ     -10.6503     ZZ    -156.6972

 Total job time:  152.77s(wall), 7277.25s(cpu)
        *  Thank you very much for using Q-Chem.  Have a nice day.  *
