 Q-Chem 5.0, Q-Chem, Inc., Pleasanton, CA (2017)
 Q-Chem 5.0.1 for Intel X86 EM64T Linux

User input:
--------------------------------------------------------------
$molecule
0  1
O -3.94934 -3.66094 2.70899
C -3.26408 -4.56952 2.26188
C -3.36658 -6.02376 2.66595
C -2.06656 -6.73014 3.08406
C -0.83902 -5.85712 3.22222
O 0.05152 -6.44071 4.07766
C 1.41644 -6.18054 3.73331
C 1.51081 -5.69151 2.29175
O 2.13367 -6.69489 1.47435
C 2.49543 -6.29208 0.23096
C 2.89728 -7.43909 -0.66544
C 4.36418 -7.87575 -0.53965
C 5.10295 -7.36605 0.68147
O 5.9457 -7.98876 1.3112
O -2.49916 -4.31922 1.16384
O 5.06358 -6.02033 0.8797
O 2.25423 -5.17814 -0.21947
C 5.73804 -5.35268 1.88086
C 2.17161 -8.7729 -0.39597
C 2.19357 -9.6342 -1.65714
C 3.66008 -10.01157 -1.71614
C 4.15716 -9.39793 -0.40131
O 3.04263 -9.4766 0.45581
H 2.67551 -7.11616 -1.70882
H 4.96855 -7.58105 -1.42557
H 1.12761 -8.64167 -0.0361
H 1.5997 -10.54936 -1.43279
H 1.79047 -9.15392 -2.57456
H 3.73676 -11.1213 -1.69076
H 4.22007 -9.60942 -2.58814
H 5.07392 -9.92578 -0.0589
O -0.85952 -4.6359 3.12749
C -2.34652 -3.07602 0.58642
C -4.2401 -6.23672 3.91686
C -4.77825 -7.66565 3.94092
C -3.52108 -8.43132 4.28408
C -2.52979 -7.27623 4.46203
O -3.31827 -6.23185 4.9764
H -3.83143 -6.53743 1.79441
H -1.78697 -7.5555 2.39262
H -1.9011 -2.36768 1.31729
H -5.08512 -5.51893 3.99824
H -5.4853 -7.74356 4.79783
H -5.29189 -7.98646 3.00912
H -3.68229 -8.9484 5.25655
H -3.18344 -9.16318 3.51873
H -1.70235 -7.62117 5.11723
H -3.32923 -2.69082 0.23988
H -1.6679 -3.16198 -0.28683
H 5.5166 -4.26831 1.80685
H 6.8335 -5.50266 1.7735
H 5.40233 -5.71867 2.87479
H 0.781 -5.08902 1.71688
H 2.3071 -4.91546 2.3844
H 2.06383 -7.0658 3.91197
H 1.75181 -5.38119 4.43197
$end

$opt
CONSTRAINT
tors           1           2           3           4    -128.481
tors           3           4           5           6    +155.571
tors           4           5           6           7    +146.738
tors           5           6           7           8     -17.254
tors           6           7           8           9    -110.286
tors           7           8           9          10    -168.517
tors           8           9          10          11    -169.023
tors           9          10          11          12     -85.263
tors          11          12          13          14    +143.935
ENDCONSTRAINT
$end

$rem
JOBTYPE                   OPT
METHOD                    B3LYP
DFT_D                     d3_op
BASIS                     STO-3G
GEOM_OPT_MAX_CYCLES       100
GEOM_OPT_TOL_GRADIENT     300
GEOM_OPT_TOL_DISPLACEMENT 1200
GEOM_OPT_TOL_ENERGY       100
SYMMETRY                  False
THRESH                    12
SCF_CONVERGENCE           8
MAX_SUB_FILE_NUM          128
MEM_STATIC                400
MEM_TOTAL                 4000
$end
--------------------------------------------------------------

   15   -1510.0998230378      6.92E-09 Convergence criterion met
 Total energy in the final basis set = -1510.09982304
   14   -1510.1747397812      7.96E-09 Convergence criterion met
 Total energy in the final basis set = -1510.17473978
   14   -1510.2164053666      9.74E-09 Convergence criterion met
 Total energy in the final basis set = -1510.21640537
   14   -1510.2397020378      7.39E-09 Convergence criterion met
 Total energy in the final basis set = -1510.23970204
   14   -1510.2509567054      4.11E-09 Convergence criterion met
 Total energy in the final basis set = -1510.25095671
   13   -1510.2571360848      4.43E-09 Convergence criterion met
 Total energy in the final basis set = -1510.25713608
   13   -1510.2606688234      5.34E-09 Convergence criterion met
 Total energy in the final basis set = -1510.26066882
   13   -1510.2626419634      2.61E-09 Convergence criterion met
   11   -1510.2643285066      4.22E-09 Convergence criterion met
 Total energy in the final basis set = -1510.26432851
   11   -1510.2643426507      3.70E-09 Convergence criterion met
 Total energy in the final basis set = -1510.26434265
    9   -1510.2643486172      5.36E-09 Convergence criterion met
 Total energy in the final basis set = -1510.26434862
    9   -1510.2643541406      9.47E-09 Convergence criterion met
 Total energy in the final basis set = -1510.26435414
    9   -1510.2643575105      7.06E-09 Convergence criterion met
 Total energy in the final basis set = -1510.26435751
    9   -1510.2643613116      5.18E-09 Convergence criterion met
 Total energy in the final basis set = -1510.26436131

             Standard Nuclear Orientation (Angstroms)
    I     Atom           X                Y                Z
 ----------------------------------------------------------------
    1      O       5.0863779917    -1.7926973648    -1.3109270647
    2      C       4.2761571300    -0.8420112104    -1.3310551598
    3      C       4.3736056082     0.5084672811    -0.5332484092
    4      C       3.0844806354     0.8888240989     0.2940516761
    5      C       2.2252029567    -0.3865434595     0.6436225389
    6      O       1.4448873956    -0.1124167741     1.8064045121
    7      C       0.1057419245    -0.7633629309     1.8723563961
    8      C      -0.5390865490    -1.3444300048     0.5569801868
    9      O      -1.6872874063    -0.4637008509     0.2361063857
   10      C      -2.4992172550    -1.0578004444    -0.7880320352
   11      C      -3.5318132069     0.0101338677    -1.3003869627
   12      C      -4.8750451948     0.1299109536    -0.4607700657
   13      C      -4.8750335171    -0.6191538582     0.9221518885
   14      O      -5.4255273203    -0.2382946642     1.9770728364
   15      O       3.2300163115    -0.6901442416    -2.3061440069
   16      O      -4.1713132991    -1.8572769445     0.7930689648
   17      O      -2.2808568023    -2.1811530177    -1.2914751646
   18      C      -4.0863806177    -2.5480890669     2.0993775175
   19      C      -3.0110292759     1.5110938842    -1.2414641386
   20      C      -3.8508137362     2.3529560422    -2.2813122303
   21      C      -5.2377073172     2.4452019946    -1.5417424000
   22      C      -4.9178424213     1.6911466565    -0.1924188647
   23      O      -3.4932747679     2.0097626840     0.0661956886
   24      H      -3.7744396904    -0.2785137635    -2.3388632506
   25      H      -5.7447927336    -0.2206848639    -1.0470720021
   26      H      -1.9121640436     1.6198464079    -1.3172966701
   27      H      -3.4011420240     3.3491516339    -2.4194830090
   28      H      -3.9214130062     1.8564634066    -3.2621297153
   29      H      -5.5218065592     3.4905636793    -1.3421579015
   30      H      -6.0521849431     1.9595767467    -2.1029426189
   31      H      -5.5427747783     1.9708994502     0.6782300873
   32      O       2.2591720899    -1.4881002006     0.0470991658
   33      C       3.0785900381    -1.9420938548    -3.0780123509
   34      C       5.4936346299     0.5558036155     0.5891038831
   35      C       5.9352748010     2.0622805427     0.7322869037
   36      C       4.6331845424     2.6832718148     1.3653934794
   37      C       3.7653611169     1.3897459136     1.6369729790
   38      O       4.7654857828     0.3150862951     1.8589303051
   39      H       4.5643173535     1.2944243411    -1.2873722953
   40      H       2.4478500772     1.6435929110    -0.2022456204
   41      H       2.7059832552    -2.7651517449    -2.4339463093
   42      H       6.3053946263    -0.1856552883     0.4550997097
   43      H       6.7932215222     2.1462600452     1.4185839801
   44      H       6.2040811172     2.5201902250    -0.2328700097
   45      H       4.8488247708     3.2113170783     2.3075123943
   46      H       4.1221929113     3.3795103128     0.6809527014
   47      H       3.0652574495     1.4545849401     2.4918019182
   48      H       4.0359071939    -2.2596727912    -3.5395487759
   49      H       2.3360595564    -1.7294417523    -3.8691267723
   50      H      -3.5668036989    -3.5041299165     1.9034969198
   51      H      -5.0926131398    -2.7477753455     2.5202768330
   52      H      -3.5065133543    -1.9521080332     2.8335603875
   53      H       0.1957415543    -1.3782907782    -0.2750635035
   54      H      -0.8852732448    -2.3845007551     0.7353962333
   55      H      -0.5755285622     0.0223726628     2.2651180522
   56      H       0.1660831744    -1.5733311519     2.6330249885
 ----------------------------------------------------------------

    9   -1510.2643621856      3.35E-09 Convergence criterion met
 Total energy in the final basis set = -1510.26436219
 Final energy is   -1510.26436218555
 **  OPTIMIZATION CONVERGED  **

                    Orbital Energies (a.u.)
 --------------------------------------------------------------

 Alpha MOs
 -- Occupied --
-18.946 -18.934 -18.926 -18.917 -18.892 -18.888 -18.883 -18.883
-18.866 -18.862 -10.112 -10.106 -10.098 -10.090 -10.079 -10.072
-10.071 -10.061 -10.060 -10.057 -10.055 -10.053 -10.042 -10.040
-10.037 -10.031 -10.022 -10.021 -10.019 -10.018  -1.021  -1.017
 -1.005  -0.997  -0.971  -0.967  -0.945  -0.944  -0.931  -0.924
 -0.765  -0.761  -0.729  -0.724  -0.715  -0.704  -0.695  -0.669
 -0.653  -0.619  -0.599  -0.584  -0.547  -0.543  -0.539  -0.535
 -0.517  -0.508  -0.487  -0.477  -0.471  -0.455  -0.447  -0.443
 -0.435  -0.433  -0.428  -0.419  -0.410  -0.405  -0.403  -0.400
 -0.397  -0.385  -0.377  -0.369  -0.364  -0.356  -0.355  -0.348
 -0.342  -0.337  -0.334  -0.333  -0.331  -0.328  -0.324  -0.313
 -0.311  -0.308  -0.307  -0.301  -0.298  -0.294  -0.280  -0.276
 -0.272  -0.254  -0.251  -0.246  -0.242  -0.236  -0.231  -0.185
 -0.182  -0.172  -0.164  -0.161  -0.156  -0.149  -0.143  -0.143
 -0.141

          Ground-State Mulliken Net Atomic Charges

     Atom                 Charge (a.u.)
  ----------------------------------------
      1 O                    -0.217533
      2 C                     0.215236
      3 C                    -0.082277
      4 C                    -0.075215
      5 C                     0.223455
      6 O                    -0.176535
      7 C                    -0.049725
      8 C                    -0.056463
      9 O                    -0.178775
     10 C                     0.214874
     11 C                    -0.081102
     12 C                    -0.077777
     13 C                     0.213615
     14 O                    -0.210213
     15 O                    -0.177172
     16 O                    -0.166458
     17 O                    -0.217613
     18 C                    -0.127055
     19 C                     0.025625
     20 C                    -0.143528
     21 C                    -0.144700
     22 C                     0.023636
     23 O                    -0.189826
     24 H                     0.083961
     25 H                     0.086299
     26 H                     0.084660
     27 H                     0.077606
     28 H                     0.073696
     29 H                     0.078455
     30 H                     0.073517
     31 H                     0.090152
     32 O                    -0.201839
     33 C                    -0.128661
     34 C                     0.022309
     35 C                    -0.141879
     36 C                    -0.145497
     37 C                     0.022571
     38 O                    -0.192557
     39 H                     0.082892
     40 H                     0.087095
     41 H                     0.090796
     42 H                     0.090662
     43 H                     0.077896
     44 H                     0.072963
     45 H                     0.078086
     46 H                     0.072830
     47 H                     0.091040
     48 H                     0.087436
     49 H                     0.085788
     50 H                     0.093971
     51 H                     0.092987
     52 H                     0.089778
     53 H                     0.100115
     54 H                     0.092466
     55 H                     0.099961
     56 H                     0.085970
  ----------------------------------------
  Sum of atomic charges =     0.000000

                    Cartesian Multipole Moments
 -----------------------------------------------------------------
    Charge (ESU x 10^10)
                 0.0000
    Dipole Moment (Debye)
         X      -1.9003      Y       1.9968      Z      -1.1943
       Tot       3.0042
    Quadrupole Moments (Debye-Ang)
        XX    -161.8449     XY      12.6134     YY    -159.6041
        XZ       2.3688     YZ      -7.6426     ZZ    -157.0887

 Total job time:  59.03s(wall), 2803.45s(cpu)
        *  Thank you very much for using Q-Chem.  Have a nice day.  *
