 Q-Chem 5.0, Q-Chem, Inc., Pleasanton, CA (2017)
 Q-Chem 5.0.1 for Intel X86 EM64T Linux

User input:
--------------------------------------------------------------
$molecule
0  1
O -3.94934 -3.66094 2.70899
C -3.26408 -4.56952 2.26188
C -3.36658 -6.02376 2.66595
C -2.16307 -6.92711 2.3507
C -0.92177 -6.23872 1.82784
O -0.14122 -5.83306 2.87265
C 1.18474 -5.46719 2.47613
C 2.11714 -5.48179 3.68301
O 3.26094 -4.65142 3.42787
C 4.40114 -5.01794 4.06406
C 5.41778 -3.90366 4.13814
C 6.32288 -3.77013 2.90474
C 5.86135 -4.50712 1.66356
O 5.07803 -4.0728 0.83149
O -2.42986 -4.24405 1.23838
O 6.2546 -5.80437 1.57412
O 4.48802 -6.00359 4.7866
C 5.87606 -6.66266 0.56325
C 4.82513 -2.48579 4.24137
C 5.84974 -1.54105 4.86771
C 6.8551 -1.42878 3.74028
C 6.14859 -2.25297 2.65766
O 4.77975 -2.04011 2.91029
H 6.03447 -4.10272 5.0447
H 7.39294 -4.02046 3.07822
H 3.86888 -2.45044 4.80786
H 5.35055 -0.55416 4.99857
H 6.26589 -1.8735 5.84301
H 6.91954 -0.3608 3.43441
H 7.86988 -1.82255 3.9651
H 6.50946 -1.94895 1.64989
O -0.52827 -6.36832 0.67383
C -2.24996 -2.97099 0.73735
C -3.42439 -6.2054 4.20341
C -4.12876 -7.51907 4.54058
C -3.08096 -8.52089 4.10216
C -1.93347 -7.57301 3.73352
O -2.10272 -6.47743 4.59803
H -4.33188 -6.39261 2.25237
H -2.43909 -7.6879 1.58657
H -1.86413 -2.29862 1.53313
H -3.92523 -5.36461 4.73124
H -4.21538 -7.56098 5.65037
H -5.13628 -7.65819 4.09304
H -2.81142 -9.15319 4.97704
H -3.3684 -9.16263 3.24129
H -0.95669 -8.10221 3.79155
H -3.20961 -2.57538 0.34148
H -1.5104 -3.00741 -0.08861
H 6.34108 -7.65491 0.73532
H 6.21868 -6.2719 -0.41876
H 4.77127 -6.78164 0.55635
H 1.5744 -5.00336 4.52738
H 2.33951 -6.53623 3.9631
H 1.13038 -4.4344 2.06516
H 1.6332 -6.14272 1.71162
$end

$opt
CONSTRAINT
tors           1           2           3           4    -160.986
tors           3           4           5           6     +87.585
tors           4           5           6           7    +165.866
tors           5           6           7           8    -161.053
tors           6           7           8           9    -157.807
tors           7           8           9          10    -150.847
tors           8           9          10          11    -161.053
tors           9          10          11          12     -85.263
tors          11          12          13          14     +85.863
ENDCONSTRAINT
$end

$rem
JOBTYPE                   OPT
METHOD                    B3LYP
DFT_D                     d3_op
BASIS                     STO-3G
GEOM_OPT_MAX_CYCLES       100
GEOM_OPT_TOL_GRADIENT     300
GEOM_OPT_TOL_DISPLACEMENT 1200
GEOM_OPT_TOL_ENERGY       100
SYMMETRY                  False
THRESH                    12
SCF_CONVERGENCE           8
MAX_SUB_FILE_NUM          128
MEM_STATIC                400
MEM_TOTAL                 4000
$end
--------------------------------------------------------------

   15   -1510.1423283008      6.02E-09 Convergence criterion met
 Total energy in the final basis set = -1510.14232830
   13   -1510.2123180500      8.15E-09 Convergence criterion met
 Total energy in the final basis set = -1510.21231805
   14   -1510.2497138199      7.64E-09 Convergence criterion met
 Total energy in the final basis set = -1510.24971382
   14   -1510.2656345139      5.93E-09 Convergence criterion met
 Total energy in the final basis set = -1510.26563451
   13   -1510.2707027832      9.03E-09 Convergence criterion met
 Total energy in the final basis set = -1510.27070278
   13   -1510.2724496033      4.97E-09 Convergence criterion met
 Total energy in the final basis set = -1510.27244960
   13   -1510.2731181155      2.92E-09 Convergence criterion met
 Total energy in the final basis set = -1510.27311812
   13   -1510.2733848432      2.68E-09 Convergence criterion met
   10   -1510.2745111810      9.73E-09 Convergence criterion met
 Total energy in the final basis set = -1510.27451118
   10   -1510.2745124133      8.08E-09 Convergence criterion met
 Total energy in the final basis set = -1510.27451241
   10   -1510.2745135556      8.74E-09 Convergence criterion met
 Total energy in the final basis set = -1510.27451356
   10   -1510.2745171589      6.55E-09 Convergence criterion met
 Total energy in the final basis set = -1510.27451716
   10   -1510.2745193255      7.96E-09 Convergence criterion met
 Total energy in the final basis set = -1510.27451933
    9   -1510.2745212740      6.22E-09 Convergence criterion met
 Total energy in the final basis set = -1510.27452127

             Standard Nuclear Orientation (Angstroms)
    I     Atom           X                Y                Z
 ----------------------------------------------------------------
    1      O       4.9930953985    -2.8963398841     0.3199684759
    2      C       4.5236449574    -1.8902552444    -0.2548934692
    3      C       5.1537014333    -0.4500818321    -0.2472152916
    4      C       4.2026282476     0.7631975782    -0.6265773652
    5      C       2.7664048360     0.4031965372    -1.1570878729
    6      O       1.8728774441     0.2642116714    -0.0409812297
    7      C       0.4674184405     0.2639359093    -0.5099688316
    8      C      -0.4183463811     0.6021229464     0.7346628678
    9      O      -1.7833268179     0.0917303939     0.4568092516
   10      C      -2.7669271274     0.8816066550     1.1367565706
   11      C      -4.1085632622     0.0702967894     1.2341120170
   12      C      -5.0205873621     0.2190570510    -0.0657430133
   13      C      -4.3580784276     1.1165760226    -1.1670810888
   14      O      -3.5497845678     0.7702691304    -2.0549727459
   15      O       3.3449173591    -1.9154574072    -1.0595573788
   16      O      -4.8109168941     2.4626134656    -0.9742427135
   17      O      -2.5547631882     2.0207138250     1.6086630097
   18      C      -4.1564910249     3.3615716109    -1.9529922115
   19      C      -3.8912151125    -1.5001193576     1.2613369393
   20      C      -5.2378953947    -2.1790416885     1.7337732761
   21      C      -6.1209853763    -2.0432736382     0.4375903854
   22      C      -5.1235762198    -1.2942028953    -0.5304693723
   23      O      -3.8026212104    -1.8596052228    -0.1720527382
   24      H      -4.6461818122     0.4344526004     2.1276464280
   25      H      -6.0052538722     0.6476176727     0.1915820738
   26      H      -2.9811543579    -1.8272945622     1.7994928016
   27      H      -5.0639981259    -3.2350336457     1.9947254272
   28      H      -5.6786929725    -1.6682333195     2.6048747679
   29      H      -6.3873750624    -3.0298090091     0.0260454416
   30      H      -7.0464865114    -1.4702043551     0.6090792550
   31      H      -5.3172592443    -1.4270848639    -1.6124188023
   32      O       2.3949669787     0.4253434166    -2.3507633495
   33      C       2.7113958953    -3.2524957893    -1.0292554621
   34      C       5.5572919649    -0.0595224796     1.2383587742
   35      C       6.5460681715     1.1714719056     1.1934610210
   36      C       5.5527966051     2.3491179181     0.8706521535
   37      C       4.1865223545     1.5658407751     0.7460925886
   38      O       4.3022566840     0.5115610968     1.7789501044
   39      H       6.0396127217    -0.4711119892    -0.9089577378
   40      H       4.6766439282     1.3600025424    -1.4261912046
   41      H       2.3911265517    -3.5249342651    -0.0028708623
   42      H       5.8915321668    -0.9215359587     1.8484980759
   43      H       7.0359247441     1.3096351906     2.1703175010
   44      H       7.3230954400     1.0473317918     0.4224291222
   45      H       5.5046578532     3.0749199213     1.6981820852
   46      H       5.8119162461     2.8856210986    -0.0559800212
   47      H       3.2743755407     2.1704799742     0.9116103906
   48      H       3.3991551475    -4.0361870998    -1.4072993431
   49      H       1.8268455891    -3.1821593532    -1.6888400208
   50      H      -4.5051341638     4.3823290245    -1.7110910559
   51      H      -4.4425597757     3.1087860245    -2.9946529474
   52      H      -3.0513614120     3.3168692906    -1.8715974080
   53      H      -0.0076678511     0.0821405518     1.6287830265
   54      H      -0.4484556323     1.6928619912     0.9414336123
   55      H       0.1819089835    -0.7399230955    -0.8974935753
   56      H       0.3177684665     0.9973868684    -1.3304072031
 ----------------------------------------------------------------

    9   -1510.2745222334      3.62E-09 Convergence criterion met
 Total energy in the final basis set = -1510.27452223
 Final energy is   -1510.27452223342
 **  OPTIMIZATION CONVERGED  **

                    Orbital Energies (a.u.)
 --------------------------------------------------------------

 Alpha MOs
 -- Occupied --
-18.943 -18.933 -18.931 -18.921 -18.887 -18.886 -18.877 -18.876
-18.874 -18.860 -10.102 -10.100 -10.096 -10.094 -10.068 -10.067
-10.065 -10.063 -10.060 -10.059 -10.058 -10.057 -10.039 -10.039
-10.037 -10.033 -10.021 -10.020 -10.019 -10.018  -1.016  -1.013
 -1.008  -1.000  -0.969  -0.969  -0.939  -0.938  -0.934  -0.925
 -0.763  -0.761  -0.726  -0.722  -0.712  -0.704  -0.692  -0.664
 -0.662  -0.610  -0.596  -0.576  -0.547  -0.543  -0.537  -0.536
 -0.517  -0.510  -0.486  -0.477  -0.466  -0.462  -0.447  -0.438
 -0.433  -0.432  -0.424  -0.413  -0.412  -0.408  -0.406  -0.399
 -0.392  -0.384  -0.373  -0.368  -0.358  -0.355  -0.352  -0.348
 -0.344  -0.336  -0.334  -0.331  -0.329  -0.324  -0.323  -0.311
 -0.307  -0.306  -0.305  -0.300  -0.295  -0.289  -0.280  -0.277
 -0.276  -0.254  -0.247  -0.245  -0.239  -0.233  -0.233  -0.181
 -0.177  -0.173  -0.166  -0.158  -0.156  -0.149  -0.145  -0.143
 -0.139

          Ground-State Mulliken Net Atomic Charges

     Atom                 Charge (a.u.)
  ----------------------------------------
      1 O                    -0.213708
      2 C                     0.213209
      3 C                    -0.077957
      4 C                    -0.081287
      5 C                     0.218328
      6 O                    -0.176845
      7 C                    -0.046590
      8 C                    -0.050426
      9 O                    -0.168260
     10 C                     0.205393
     11 C                    -0.077832
     12 C                    -0.078500
     13 C                     0.204280
     14 O                    -0.208134
     15 O                    -0.164575
     16 O                    -0.169455
     17 O                    -0.211824
     18 C                    -0.128530
     19 C                     0.026772
     20 C                    -0.144315
     21 C                    -0.143939
     22 C                     0.025682
     23 O                    -0.183936
     24 H                     0.086038
     25 H                     0.086107
     26 H                     0.084956
     27 H                     0.077836
     28 H                     0.073328
     29 H                     0.078000
     30 H                     0.073364
     31 H                     0.085923
     32 O                    -0.219705
     33 C                    -0.125410
     34 C                     0.024201
     35 C                    -0.144386
     36 C                    -0.143980
     37 C                     0.026058
     38 O                    -0.189561
     39 H                     0.085720
     40 H                     0.083494
     41 H                     0.091803
     42 H                     0.088473
     43 H                     0.078119
     44 H                     0.073368
     45 H                     0.077465
     46 H                     0.073276
     47 H                     0.085212
     48 H                     0.092065
     49 H                     0.095883
     50 H                     0.091039
     51 H                     0.087822
     52 H                     0.089793
     53 H                     0.087599
     54 H                     0.095985
     55 H                     0.090392
     56 H                     0.092174
  ----------------------------------------
  Sum of atomic charges =    -0.000000

                    Cartesian Multipole Moments
 -----------------------------------------------------------------
    Charge (ESU x 10^10)
                 0.0000
    Dipole Moment (Debye)
         X      -0.9414      Y       0.6097      Z       0.5176
       Tot       1.2353
    Quadrupole Moments (Debye-Ang)
        XX    -137.4742     XY       9.1200     YY    -155.9412
        XZ      -4.1057     YZ      -3.7932     ZZ    -165.5495

 Total job time:  64.14s(wall), 3052.23s(cpu)
        *  Thank you very much for using Q-Chem.  Have a nice day.  *
