 Q-Chem 5.0, Q-Chem, Inc., Pleasanton, CA (2017)
 Q-Chem 5.0.1 for Intel X86 EM64T Linux

User input:
--------------------------------------------------------------
$molecule
0  1
O 4.9930953985 -2.8963398841 0.3199684759
C 4.5236449574 -1.8902552444 -0.2548934692
C 5.1537014333 -0.4500818321 -0.2472152916
C 4.2026282476 0.7631975782 -0.6265773652
C 2.766404836 0.4031965372 -1.1570878729
O 1.8728774441 0.2642116714 -0.0409812297
C 0.4674184405 0.2639359093 -0.5099688316
C -0.4183463811 0.6021229464 0.7346628678
O -1.7833268179 0.0917303939 0.4568092516
C -2.7669271274 0.881606655 1.1367565706
C -4.1085632622 0.0702967894 1.234112017
C -5.0205873621 0.219057051 -0.0657430133
C -4.3580784276 1.1165760226 -1.1670810888
O -3.5497845678 0.7702691304 -2.0549727459
O 3.3449173591 -1.9154574072 -1.0595573788
O -4.8109168941 2.4626134656 -0.9742427135
O -2.5547631882 2.020713825 1.6086630097
C -4.1564910249 3.3615716109 -1.9529922115
C -3.8912151125 -1.5001193576 1.2613369393
C -5.2378953947 -2.1790416885 1.7337732761
C -6.1209853763 -2.0432736382 0.4375903854
C -5.1235762198 -1.2942028953 -0.5304693723
O -3.8026212104 -1.8596052228 -0.1720527382
H -4.6461818122 0.4344526004 2.127646428
H -6.0052538722 0.6476176727 0.1915820738
H -2.9811543579 -1.8272945622 1.7994928016
H -5.0639981259 -3.2350336457 1.9947254272
H -5.6786929725 -1.6682333195 2.6048747679
H -6.3873750624 -3.0298090091 0.0260454416
H -7.0464865114 -1.4702043551 0.609079255
H -5.3172592443 -1.4270848639 -1.6124188023
O 2.3949669787 0.4253434166 -2.3507633495
C 2.7113958953 -3.2524957893 -1.0292554621
C 5.5572919649 -0.0595224796 1.2383587742
C 6.5460681715 1.1714719056 1.193461021
C 5.5527966051 2.3491179181 0.8706521535
C 4.1865223545 1.5658407751 0.7460925886
O 4.302256684 0.5115610968 1.7789501044
H 6.0396127217 -0.4711119892 -0.9089577378
H 4.6766439282 1.3600025424 -1.4261912046
H 2.3911265517 -3.5249342651 -0.0028708623
H 5.8915321668 -0.9215359587 1.8484980759
H 7.0359247441 1.3096351906 2.170317501
H 7.32309544 1.0473317918 0.4224291222
H 5.5046578532 3.0749199213 1.6981820852
H 5.8119162461 2.8856210986 -0.0559800212
H 3.2743755407 2.1704799742 0.9116103906
H 3.3991551475 -4.0361870998 -1.4072993431
H 1.8268455891 -3.1821593532 -1.6888400208
H -4.5051341638 4.3823290245 -1.7110910559
H -4.4425597757 3.1087860245 -2.9946529474
H -3.051361412 3.3168692906 -1.871597408
H -0.0076678511 0.0821405518 1.6287830265
H -0.4484556323 1.6928619912 0.9414336123
H 0.1819089835 -0.7399230955 -0.8974935753
H 0.3177684665 0.9973868684 -1.3304072031
$end

$rem
JOBTYPE                   OPT
METHOD                    B3LYP
DFT_D                     d3_op
BASIS                     STO-3G
GEOM_OPT_MAX_CYCLES       100
GEOM_OPT_TOL_GRADIENT     300
GEOM_OPT_TOL_DISPLACEMENT 1200
GEOM_OPT_TOL_ENERGY       100
SYMMETRY                  False
THRESH                    12
SCF_CONVERGENCE           8
MAX_SUB_FILE_NUM          128
MEM_STATIC                400
MEM_TOTAL                 4000
$end
--------------------------------------------------------------

   16   -1510.2745400382      4.66E-09 Convergence criterion met
 Total energy in the final basis set = -1510.27454004
   14   -1510.2776282945      3.50E-09 Convergence criterion met
 Total energy in the final basis set = -1510.27762829
   13   -1510.2795055269      6.74E-09 Convergence criterion met
 Total energy in the final basis set = -1510.27950553
   13   -1510.2807855112      5.90E-09 Convergence criterion met
 Total energy in the final basis set = -1510.28078551
   14   -1510.2820921623      6.55E-09 Convergence criterion met
 Total energy in the final basis set = -1510.28209216
   13   -1510.2831501579      6.42E-09 Convergence criterion met
 Total energy in the final basis set = -1510.28315016
   13   -1510.2841175291      3.86E-09 Convergence criterion met
 Total energy in the final basis set = -1510.28411753
   13   -1510.2849765852      4.19E-09 Convergence criterion met
   13   -1510.2974730814      2.04E-09 Convergence criterion met
 Total energy in the final basis set = -1510.29747308
   13   -1510.2974420107      4.38E-09 Convergence criterion met
 Total energy in the final basis set = -1510.29744201
   13   -1510.2976236413      2.14E-09 Convergence criterion met
 Total energy in the final basis set = -1510.29762364
   12   -1510.2976773248      6.37E-09 Convergence criterion met
 Total energy in the final basis set = -1510.29767732
   11   -1510.2976985984      7.81E-09 Convergence criterion met
 Total energy in the final basis set = -1510.29769860
   10   -1510.2977024848      8.25E-09 Convergence criterion met
 Total energy in the final basis set = -1510.29770248

             Standard Nuclear Orientation (Angstroms)
    I     Atom           X                Y                Z
 ----------------------------------------------------------------
    1      O       3.4080686039    -1.9947231026    -1.0983010377
    2      C       3.2160867913    -0.7693236331    -1.2508428024
    3      C       4.1577362298     0.3983846733    -0.7829899685
    4      C       3.4142500681     1.5697419773    -0.0130639160
    5      C       1.8850805418     1.2918372657     0.1705365912
    6      O       1.7442961264     0.0868750574     0.9220653402
    7      C       0.3404457927    -0.3820544349     0.9774918671
    8      C      -0.6513372242     0.5382304985     1.7805290811
    9      O      -1.9713846838    -0.0787069723     1.5124953303
   10      C      -3.0277991569     0.8822400504     1.4425987606
   11      C      -4.2851744157     0.1110154351     0.9063777330
   12      C      -4.0069444914    -0.5784933509    -0.5007132959
   13      C      -2.6064521510    -0.2075009679    -1.1122470928
   14      O      -1.6491524304    -0.9763472049    -1.3694438914
   15      O       2.0929949952    -0.1979472537    -1.9336744783
   16      O      -2.6206721248     1.1909434093    -1.3673989669
   17      O      -2.9200634914     2.0904595936     1.7383954505
   18      C      -1.3592107047     1.6431191799    -2.0074506417
   19      C      -4.6069799357    -1.1725594790     1.7872874346
   20      C      -6.0184753646    -1.7419898367     1.3558627915
   21      C      -5.6594498459    -2.4641260119     0.0030856994
   22      C      -4.1267472987    -2.1133200787    -0.1248358601
   23      O      -3.6496282944    -2.1788726656     1.2758903937
   24      H      -5.1337253517     0.8151977192     0.8572194903
   25      H      -4.7812689293    -0.2813836542    -1.2317402722
   26      H      -4.4714904820    -1.0268867922     2.8766180197
   27      H      -6.3939513658    -2.4532568630     2.1085681972
   28      H      -6.7636159665    -0.9411516600     1.2238687642
   29      H      -5.7971090913    -3.5543981104     0.0809196167
   30      H      -6.2496733952    -2.0926803559    -0.8497440115
   31      H      -3.5259962326    -2.7845484610    -0.7689477804
   32      O       0.9435588548     2.0163390575    -0.2285763927
   33      C       1.2028107360    -1.2592136232    -2.4708144402
   34      C       5.1817163026    -0.0971148153     0.3192971376
   35      C       6.3596563802     0.9494721693     0.4105547279
   36      C       5.6414244270     2.1464402683     1.1388871170
   37      C       4.1980308291     1.5452024196     1.3705036653
   38      O       4.4488409142     0.1039397530     1.5915635410
   39      H       4.6811475024     0.7914243333    -1.6744249299
   40      H       3.5202747656     2.5354440357    -0.5370392294
   41      H       1.5496240069    -2.2469982954    -2.1082448417
   42      H       5.4778226729    -1.1582617244     0.2062100414
   43      H       7.1857120706     0.5467832573     1.0179807261
   44      H       6.7517214737     1.2264864814    -0.5811280202
   45      H       6.1195411939     2.3781806558     2.1037800335
   46      H       5.6155726226     3.0632712812     0.5284766168
   47      H       3.6385272439     1.9775363130     2.2226640352
   48      H       1.2486596755    -1.2344193596    -3.5775781289
   49      H       0.1598593795    -1.0671495284    -2.1332683240
   50      H      -1.5712414936     2.6569156909    -2.3927660138
   51      H      -1.0782626582     0.9802131074    -2.8493065036
   52      H      -0.5176458074     1.6964532991    -1.2743294226
   53      H      -0.4265860668     0.5335499662     2.8686167028
   54      H      -0.6172526113     1.5825038447     1.4047911038
   55      H       0.3942553897    -1.3765982376     1.4630627276
   56      H      -0.0825872380    -0.5164751354    -0.0427677506
 ----------------------------------------------------------------

    9   -1510.2977029904      7.29E-09 Convergence criterion met
 Total energy in the final basis set = -1510.29770299
 Final energy is   -1510.29770299042
 **  OPTIMIZATION CONVERGED  **

                    Orbital Energies (a.u.)
 --------------------------------------------------------------

 Alpha MOs
 -- Occupied --
-18.940 -18.938 -18.930 -18.928 -18.888 -18.888 -18.882 -18.881
-18.877 -18.875 -10.109 -10.108 -10.099 -10.098 -10.066 -10.065
-10.062 -10.061 -10.059 -10.057 -10.045 -10.041 -10.039 -10.039
-10.038 -10.038 -10.021 -10.021 -10.020 -10.019  -1.019  -1.016
 -1.008  -1.004  -0.970  -0.970  -0.944  -0.940  -0.936  -0.933
 -0.765  -0.763  -0.729  -0.723  -0.710  -0.705  -0.693  -0.658
 -0.651  -0.614  -0.597  -0.582  -0.547  -0.546  -0.538  -0.537
 -0.517  -0.509  -0.485  -0.477  -0.465  -0.463  -0.449  -0.442
 -0.436  -0.431  -0.429  -0.414  -0.412  -0.407  -0.401  -0.398
 -0.384  -0.381  -0.373  -0.368  -0.365  -0.361  -0.351  -0.348
 -0.345  -0.340  -0.332  -0.332  -0.328  -0.326  -0.325  -0.311
 -0.310  -0.306  -0.305  -0.301  -0.292  -0.290  -0.287  -0.277
 -0.275  -0.257  -0.247  -0.245  -0.243  -0.234  -0.234  -0.190
 -0.178  -0.172  -0.168  -0.161  -0.159  -0.152  -0.150  -0.143
 -0.143

          Ground-State Mulliken Net Atomic Charges

     Atom                 Charge (a.u.)
  ----------------------------------------
      1 O                    -0.211672
      2 C                     0.213895
      3 C                    -0.077675
      4 C                    -0.078450
      5 C                     0.223674
      6 O                    -0.165642
      7 C                    -0.054104
      8 C                    -0.055081
      9 O                    -0.172735
     10 C                     0.210811
     11 C                    -0.077202
     12 C                    -0.077059
     13 C                     0.218844
     14 O                    -0.221916
     15 O                    -0.178365
     16 O                    -0.170075
     17 O                    -0.208442
     18 C                    -0.147366
     19 C                     0.026229
     20 C                    -0.144290
     21 C                    -0.143464
     22 C                     0.024613
     23 O                    -0.184484
     24 H                     0.086029
     25 H                     0.085248
     26 H                     0.083244
     27 H                     0.078230
     28 H                     0.073775
     29 H                     0.078322
     30 H                     0.073026
     31 H                     0.088814
     32 O                    -0.219651
     33 C                    -0.150796
     34 C                     0.024504
     35 C                    -0.143818
     36 C                    -0.144067
     37 C                     0.026276
     38 O                    -0.185007
     39 H                     0.084699
     40 H                     0.085787
     41 H                     0.097410
     42 H                     0.091625
     43 H                     0.078516
     44 H                     0.073106
     45 H                     0.078309
     46 H                     0.073645
     47 H                     0.082757
     48 H                     0.077572
     49 H                     0.106975
     50 H                     0.087230
     51 H                     0.081960
     52 H                     0.113688
     53 H                     0.084028
     54 H                     0.101861
     55 H                     0.096323
     56 H                     0.100340
  ----------------------------------------
  Sum of atomic charges =    -0.000000

                    Cartesian Multipole Moments
 -----------------------------------------------------------------
    Charge (ESU x 10^10)
                -0.0000
    Dipole Moment (Debye)
         X      -0.5518      Y       0.9486      Z      -1.3770
       Tot       1.7608
    Quadrupole Moments (Debye-Ang)
        XX    -137.6249     XY      14.9154     YY    -167.8418
        XZ      -0.9366     YZ       0.6541     ZZ    -156.3366

 Total job time:  123.53s(wall), 5888.01s(cpu)
        *  Thank you very much for using Q-Chem.  Have a nice day.  *
