 Q-Chem 5.0, Q-Chem, Inc., Pleasanton, CA (2017)
 Q-Chem 5.0.1 for Intel X86 EM64T Linux

User input:
--------------------------------------------------------------
$molecule
0  1
O -4.4481326485 0.9410310735 2.1606360323
C -4.8474292541 1.1579585318 0.9963822027
C -5.2457171506 0.102857415 -0.0930646927
C -4.0215725811 -0.307602784 -1.0287177009
C -2.6902231359 0.4568415079 -0.6792767181
O -1.724036444 -0.4443002445 -0.1262363677
C -0.3507157937 0.0851394866 -0.3172045884
C 0.617775524 -1.1472734959 -0.3741262366
O 1.9410659304 -0.7254787411 0.1384885856
C 2.9804951482 -1.1104797259 -0.7801961299
C 4.3673102297 -1.1076333274 -0.0396290339
C 5.3468199235 0.0947584864 -0.3749763556
C 4.6803529588 1.3934456497 -0.9695590123
O 5.1432030521 2.5522551054 -0.8948148427
O -5.0131356059 2.4625333472 0.4308295499
O 3.4327827262 1.0820753451 -1.58947505
O 2.7618119147 -1.5861773457 -1.9169636389
C 2.7484985405 2.3106664423 -2.0497336948
C 4.3143180677 -1.0233057245 1.5482245048
C 5.6084357521 -1.7390845793 2.0990630613
C 6.7173665196 -0.702527566 1.6822913651
C 5.8408484629 0.4683756009 1.0862652071
O 4.5730341563 0.403003713 1.8534914507
H 4.8556022911 -2.0495180986 -0.3500728861
H 6.1717148767 -0.2227459471 -1.0391321901
H 3.3535042585 -1.347801428 1.9909820322
H 5.5488316622 -1.8446899853 3.194205859
H 5.7625076485 -2.735228491 1.6546015254
H 7.2923168458 -0.3497074791 2.5527919156
H 7.4200541285 -1.1097833451 0.9374638392
H 6.2845864095 1.4811204979 1.1518312256
O -2.4506495238 1.6597258884 -0.9267991789
C -4.5577063596 3.4922832703 1.3928415353
C -5.6116972235 -1.3000829902 0.5492481637
C -6.3701797215 -2.1591016703 -0.5365943129
C -5.1843520158 -2.5454682367 -1.4965358791
C -3.9589098697 -1.8677117641 -0.7624473938
O -4.3017214964 -1.9803654614 0.6738886744
H -6.0749960799 0.5165563007 -0.6936615586
H -4.2515048329 -0.0776745743 -2.0852829501
H -3.473249127 3.3947753308 1.6044635201
H -6.1055793383 -1.2337814248 1.5378978315
H -6.8217635177 -3.0512602786 -0.0740836232
H -7.1618863822 -1.5860730218 -1.0453198181
H -5.0460838098 -3.6369101752 -1.5513312246
H -5.3205443136 -2.1550642889 -2.5178410287
H -2.9705557628 -2.3228018844 -0.9624042404
H -5.1119108104 3.4307677152 2.3516903326
H -4.752868593 4.4679267615 0.9113436212
H 1.7990753766 1.9746371746 -2.5059054027
H 3.3530369867 2.8541723693 -2.8040851133
H 2.534569336 2.9954864902 -1.2039349018
H 0.2215149045 -1.9474498171 0.2887293351
H 0.7350556316 -1.5400588002 -1.4069831799
H -0.062920972 0.73037861 0.5435225775
H -0.2871500944 0.7012273575 -1.2384438745
$end

$rem
JOBTYPE                   OPT
METHOD                    B3LYP
DFT_D                     d3_op
BASIS                     STO-3G
GEOM_OPT_MAX_CYCLES       100
GEOM_OPT_TOL_GRADIENT     300
GEOM_OPT_TOL_DISPLACEMENT 1200
GEOM_OPT_TOL_ENERGY       100
SYMMETRY                  False
THRESH                    12
SCF_CONVERGENCE           8
MAX_SUB_FILE_NUM          128
MEM_STATIC                400
MEM_TOTAL                 4000
$end
--------------------------------------------------------------

   16   -1510.2699302034      5.42E-09 Convergence criterion met
 Total energy in the final basis set = -1510.26993020
   14   -1510.2739026770      2.95E-09 Convergence criterion met
 Total energy in the final basis set = -1510.27390268
   14   -1510.2760045575      4.60E-09 Convergence criterion met
 Total energy in the final basis set = -1510.27600456
   14   -1510.2773673101      4.26E-09 Convergence criterion met
 Total energy in the final basis set = -1510.27736731
   14   -1510.2784537226      2.44E-09 Convergence criterion met
 Total energy in the final basis set = -1510.27845372
   13   -1510.2792770088      6.02E-09 Convergence criterion met
 Total energy in the final basis set = -1510.27927701
   13   -1510.2800906743      7.30E-09 Convergence criterion met
 Total energy in the final basis set = -1510.28009067
   13   -1510.2808183564      6.73E-09 Convergence criterion met
   12   -1510.2999341721      7.85E-09 Convergence criterion met
 Total energy in the final basis set = -1510.29993417
   12   -1510.2999865502      4.80E-09 Convergence criterion met
 Total energy in the final basis set = -1510.29998655
   12   -1510.3000154376      4.98E-09 Convergence criterion met
 Total energy in the final basis set = -1510.30001544
   11   -1510.3000217649      8.16E-09 Convergence criterion met
 Total energy in the final basis set = -1510.30002176
   12   -1510.3000212384      2.88E-09 Convergence criterion met
 Total energy in the final basis set = -1510.30002124
   11   -1510.3000318955      6.81E-09 Convergence criterion met
 Total energy in the final basis set = -1510.30003190

             Standard Nuclear Orientation (Angstroms)
    I     Atom           X                Y                Z
 ----------------------------------------------------------------
    1      O      -3.5549774912     1.2683597516     2.0778890234
    2      C      -3.2812663227     1.2307984888     0.8599194681
    3      C      -4.1053811358     0.5505432816    -0.2915104166
    4      C      -3.2324360349    -0.4353371856    -1.1780475719
    5      C      -1.7435372981    -0.5353985275    -0.6994974244
    6      O      -1.7338337672    -1.0482427978     0.6337134274
    7      C      -0.3505980168    -1.1174137220     1.1646998811
    8      C       0.4676804112    -2.3413844337     0.5947422591
    9      O       1.9110620253    -2.0178231113     0.7143937978
   10      C       2.4149077905    -1.5560022471    -0.5448461493
   11      C       3.8365907074    -0.9239850528    -0.3428692409
   12      C       3.7693376897     0.6649914830    -0.2142165377
   13      C       2.3132817172     1.2330228130    -0.3328141570
   14      O       1.4212321814     1.2065651916     0.5524052569
   15      O      -2.1254641909     1.8232337923     0.2590692783
   16      O       2.1551998743     1.7937889095    -1.6252369224
   17      O       1.7900193710    -1.6378079178    -1.6260856366
   18      C       0.7473972450     2.2176158823    -1.8513551440
   19      C       4.5051833117    -1.3021489625     1.0438027860
   20      C       6.0322007979    -0.8983942213     0.9882640496
   21      C       5.9419008119     0.6654050986     1.1416879557
   22      C       4.3796519146     0.8700503457     1.2378867995
   23      O       3.9170382174    -0.3206520933     1.9848269757
   24      H       4.4647540302    -1.2126767335    -1.2045858872
   25      H       4.3839387080     1.1456387334    -0.9952770081
   26      H       4.2988860835    -2.3348430055     1.3837173629
   27      H       6.5808993550    -1.3555512231     1.8270106593
   28      H       6.5088164130    -1.2078175793     0.0444583503
   29      H       6.4319928329     1.0090276632     2.0664416713
   30      H       6.3807728495     1.2044292888     0.2869399223
   31      H       4.0501814392     1.7967509341     1.7460759971
   32      O      -0.7139817270    -0.2669260630    -1.3609305663
   33      C      -1.2356142015     2.4290724922     1.2796750830
   34      C      -5.2035752218    -0.4363787857     0.2795795162
   35      C      -6.2281648194    -0.7641380931    -0.8762487201
   36      C      -5.3703229515    -1.7323816989    -1.7740212445
   37      C      -4.0208589771    -1.7974861795    -0.9530356390
   38      O      -4.4655318386    -1.7094834824     0.4552983715
   39      H      -4.5541155716     1.3445085170    -0.9165602548
   40      H      -3.2277424772    -0.1315910403    -2.2392998405
   41      H      -1.5359606945     2.0905078728     2.2904992567
   42      H      -5.6435739653    -0.1086441941     1.2415283959
   43      H      -7.1173282956    -1.2724329615    -0.4706026993
   44      H      -6.5525268328     0.1403785609    -1.4152866756
   45      H      -5.8274927125    -2.7324781453    -1.8403053908
   46      H      -5.2185499145    -1.3456911002    -2.7945543204
   47      H      -3.4152685522    -2.7107985374    -1.1124445116
   48      H      -1.3155509526     3.5333476571     1.2274984953
   49      H      -0.1971715992     2.1059781833     1.0423749369
   50      H       0.0574801995     1.3486261569    -1.7234111208
   51      H       0.7137553222     2.5865472647    -2.8922372097
   52      H       0.4590033071     3.0345604899    -1.1604224238
   53      H       0.2807363889    -3.2675767642     1.1731923442
   54      H       0.2238474996    -2.4979432961    -0.4782395466
   55      H      -0.4663436608    -1.2077226690     2.2621529199
   56      H       0.2242195990    -0.1883284317     0.9299789644
 ----------------------------------------------------------------

   10   -1510.3000316606      7.23E-09 Convergence criterion met
 Total energy in the final basis set = -1510.30003166
 Final energy is   -1510.30003166063
 **  OPTIMIZATION CONVERGED  **

                    Orbital Energies (a.u.)
 --------------------------------------------------------------

 Alpha MOs
 -- Occupied --
-18.943 -18.931 -18.930 -18.925 -18.888 -18.885 -18.883 -18.875
-18.874 -18.872 -10.109 -10.101 -10.097 -10.095 -10.061 -10.060
-10.060 -10.059 -10.055 -10.053 -10.046 -10.040 -10.039 -10.039
-10.036 -10.035 -10.021 -10.020 -10.019 -10.018  -1.017  -1.012
 -1.008  -1.001  -0.970  -0.967  -0.941  -0.937  -0.931  -0.930
 -0.765  -0.761  -0.726  -0.722  -0.711  -0.704  -0.688  -0.659
 -0.649  -0.612  -0.595  -0.578  -0.548  -0.543  -0.538  -0.535
 -0.514  -0.507  -0.480  -0.476  -0.462  -0.460  -0.450  -0.442
 -0.433  -0.431  -0.426  -0.418  -0.412  -0.406  -0.401  -0.397
 -0.381  -0.378  -0.368  -0.366  -0.362  -0.359  -0.352  -0.349
 -0.343  -0.337  -0.332  -0.329  -0.325  -0.323  -0.317  -0.310
 -0.308  -0.305  -0.303  -0.301  -0.291  -0.286  -0.282  -0.279
 -0.271  -0.259  -0.245  -0.242  -0.237  -0.234  -0.231  -0.190
 -0.176  -0.170  -0.161  -0.159  -0.156  -0.151  -0.147  -0.144
 -0.141

          Ground-State Mulliken Net Atomic Charges

     Atom                 Charge (a.u.)
  ----------------------------------------
      1 O                    -0.211540
      2 C                     0.214460
      3 C                    -0.077901
      4 C                    -0.078763
      5 C                     0.219460
      6 O                    -0.168430
      7 C                    -0.062588
      8 C                    -0.057039
      9 O                    -0.168862
     10 C                     0.205326
     11 C                    -0.077502
     12 C                    -0.078406
     13 C                     0.219401
     14 O                    -0.221330
     15 O                    -0.178511
     16 O                    -0.161564
     17 O                    -0.206731
     18 C                    -0.143353
     19 C                     0.026155
     20 C                    -0.144423
     21 C                    -0.143723
     22 C                     0.025439
     23 O                    -0.184533
     24 H                     0.085977
     25 H                     0.087897
     26 H                     0.089128
     27 H                     0.078195
     28 H                     0.073481
     29 H                     0.078337
     30 H                     0.073746
     31 H                     0.084163
     32 O                    -0.218994
     33 C                    -0.150439
     34 C                     0.024421
     35 C                    -0.143985
     36 C                    -0.143999
     37 C                     0.026237
     38 O                    -0.185341
     39 H                     0.083833
     40 H                     0.084317
     41 H                     0.094726
     42 H                     0.090394
     43 H                     0.077932
     44 H                     0.072657
     45 H                     0.077642
     46 H                     0.073243
     47 H                     0.082226
     48 H                     0.075436
     49 H                     0.109773
     50 H                     0.119581
     51 H                     0.086679
     52 H                     0.081606
     53 H                     0.085721
     54 H                     0.099972
     55 H                     0.089225
     56 H                     0.111171
  ----------------------------------------
  Sum of atomic charges =     0.000000

                    Cartesian Multipole Moments
 -----------------------------------------------------------------
    Charge (ESU x 10^10)
                 0.0000
    Dipole Moment (Debye)
         X       1.2008      Y       0.7808      Z      -1.9009
       Tot       2.3801
    Quadrupole Moments (Debye-Ang)
        XX    -139.9659     XY      -0.6133     YY    -153.4645
        XZ      10.0523     YZ      -0.1500     ZZ    -167.9238

 Total job time:  211.44s(wall), 10076.51s(cpu)
        *  Thank you very much for using Q-Chem.  Have a nice day.  *
