 Q-Chem 5.0, Q-Chem, Inc., Pleasanton, CA (2017)
 Q-Chem 5.0.1 for Intel X86 EM64T Linux

User input:
--------------------------------------------------------------
$molecule
0  1
O -3.94934 -3.66094 2.70899
C -3.26408 -4.56952 2.26188
C -3.36658 -6.02376 2.66595
C -2.46385 -6.49867 3.81634
C -1.68924 -5.42772 4.55195
O -2.17115 -5.29697 5.8232
C -1.21692 -4.73855 6.73252
C -1.49805 -5.22151 8.15162
O -1.06857 -4.23165 9.09956
C -0.28185 -4.68958 10.1048
C -0.23528 -3.75317 11.2887
C 1.07146 -2.96 11.43567
C 1.97408 -2.94219 10.21844
O 2.79522 -2.07487 9.95756
O -2.21842 -4.25975 1.45162
O 2.16219 -4.11483 9.55686
O 0.27053 -5.78388 10.11126
C 3.01064 -4.29876 8.48326
C -1.25157 -2.5811 11.24531
C -1.51764 -2.07175 12.66155
C -0.20177 -1.39208 12.96731
C 0.50072 -1.53939 11.61368
O -0.54366 -1.51153 10.6738
H -0.49133 -4.36465 12.18305
H 1.69111 -3.29008 12.29771
H -2.2201 -2.84215 10.76588
H -2.30873 -1.2916 12.58112
H -1.83825 -2.8395 13.39813
H -0.40431 -0.32204 13.19572
H 0.39312 -1.85226 13.78589
H 1.27456 -0.74837 11.50189
O -0.76344 -4.78311 4.07526
C -1.9156 -2.98299 1.02727
C -4.75819 -6.37208 3.24702
C -5.04818 -7.85625 3.03915
C -4.07294 -8.46869 4.01868
C -3.53142 -7.20212 4.69528
O -4.60203 -6.29498 4.64148
H -3.24775 -6.61563 1.73014
H -1.70432 -7.23559 3.47457
H -1.69858 -2.33077 1.90014
H -5.58392 -5.7652 2.81447
H -6.08361 -8.03449 3.40943
H -4.96747 -8.22644 1.99452
H -4.64631 -9.09571 4.73718
H -3.25255 -9.06425 3.56287
H -3.15535 -7.46561 5.70823
H -2.76325 -2.56253 0.4449
H -1.01794 -3.0193 0.37664
H 2.94537 -5.35345 8.14598
H 4.05926 -4.08169 8.77847
H 2.7097 -3.63661 7.64328
H -2.60345 -5.25644 8.26341
H -1.13464 -6.26267 8.29879
H -1.38544 -3.63911 6.70968
H -0.14889 -4.93412 6.47962
$end

$opt
CONSTRAINT
tors           1           2           3           4     -91.622
tors           3           4           5           6    +111.476
tors           4           5           6           7    +156.471
tors           5           6           7           8    -152.451
tors           6           7           8           9    -150.743
tors           7           8           9          10    -129.787
tors           8           9          10          11    -161.053
tors           9          10          11          12    -105.696
tors          11          12          13          14    +155.038
ENDCONSTRAINT
$end

$rem
JOBTYPE                   OPT
METHOD                    B3LYP
DFT_D                     d3_op
BASIS                     STO-3G
GEOM_OPT_MAX_CYCLES       100
GEOM_OPT_TOL_GRADIENT     300
GEOM_OPT_TOL_DISPLACEMENT 1200
GEOM_OPT_TOL_ENERGY       100
SYMMETRY                  False
THRESH                    12
SCF_CONVERGENCE           8
MAX_SUB_FILE_NUM          128
MEM_STATIC                400
MEM_TOTAL                 4000
$end
--------------------------------------------------------------

   15   -1510.1330358397      6.80E-09 Convergence criterion met
 Total energy in the final basis set = -1510.13303584
   13   -1510.2033535605      7.52E-09 Convergence criterion met
 Total energy in the final basis set = -1510.20335356
   14   -1510.2411839815      6.86E-09 Convergence criterion met
 Total energy in the final basis set = -1510.24118398
   14   -1510.2583913365      2.27E-09 Convergence criterion met
 Total energy in the final basis set = -1510.25839134
   13   -1510.2650159307      9.43E-09 Convergence criterion met
 Total energy in the final basis set = -1510.26501593
   13   -1510.2679372950      5.69E-09 Convergence criterion met
 Total energy in the final basis set = -1510.26793730
    2   -1510.2679372949      8.77E-09 Convergence criterion met
 Total energy in the final basis set = -1510.26793729
   13   -1510.2690095093      3.68E-09 Convergence criterion met
   12   -1510.2698051761      3.70E-09 Convergence criterion met
 Total energy in the final basis set = -1510.26980518
   11   -1510.2698343067      8.00E-09 Convergence criterion met
 Total energy in the final basis set = -1510.26983431
   11   -1510.2698578102      7.93E-09 Convergence criterion met
 Total energy in the final basis set = -1510.26985781
   10   -1510.2698702914      8.75E-09 Convergence criterion met
 Total energy in the final basis set = -1510.26987029
   10   -1510.2698775125      4.65E-09 Convergence criterion met
 Total energy in the final basis set = -1510.26987751
    9   -1510.2698793327      5.41E-09 Convergence criterion met
 Total energy in the final basis set = -1510.26987933

             Standard Nuclear Orientation (Angstroms)
    I     Atom           X                Y                Z
 ----------------------------------------------------------------
    1      O      -4.4481326485     0.9410310735     2.1606360323
    2      C      -4.8474292541     1.1579585318     0.9963822027
    3      C      -5.2457171506     0.1028574150    -0.0930646927
    4      C      -4.0215725811    -0.3076027840    -1.0287177009
    5      C      -2.6902231359     0.4568415079    -0.6792767181
    6      O      -1.7240364440    -0.4443002445    -0.1262363677
    7      C      -0.3507157937     0.0851394866    -0.3172045884
    8      C       0.6177755240    -1.1472734959    -0.3741262366
    9      O       1.9410659304    -0.7254787411     0.1384885856
   10      C       2.9804951482    -1.1104797259    -0.7801961299
   11      C       4.3673102297    -1.1076333274    -0.0396290339
   12      C       5.3468199235     0.0947584864    -0.3749763556
   13      C       4.6803529588     1.3934456497    -0.9695590123
   14      O       5.1432030521     2.5522551054    -0.8948148427
   15      O      -5.0131356059     2.4625333472     0.4308295499
   16      O       3.4327827262     1.0820753451    -1.5894750500
   17      O       2.7618119147    -1.5861773457    -1.9169636389
   18      C       2.7484985405     2.3106664423    -2.0497336948
   19      C       4.3143180677    -1.0233057245     1.5482245048
   20      C       5.6084357521    -1.7390845793     2.0990630613
   21      C       6.7173665196    -0.7025275660     1.6822913651
   22      C       5.8408484629     0.4683756009     1.0862652071
   23      O       4.5730341563     0.4030037130     1.8534914507
   24      H       4.8556022911    -2.0495180986    -0.3500728861
   25      H       6.1717148767    -0.2227459471    -1.0391321901
   26      H       3.3535042585    -1.3478014280     1.9909820322
   27      H       5.5488316622    -1.8446899853     3.1942058590
   28      H       5.7625076485    -2.7352284910     1.6546015254
   29      H       7.2923168458    -0.3497074791     2.5527919156
   30      H       7.4200541285    -1.1097833451     0.9374638392
   31      H       6.2845864095     1.4811204979     1.1518312256
   32      O      -2.4506495238     1.6597258884    -0.9267991789
   33      C      -4.5577063596     3.4922832703     1.3928415353
   34      C      -5.6116972235    -1.3000829902     0.5492481637
   35      C      -6.3701797215    -2.1591016703    -0.5365943129
   36      C      -5.1843520158    -2.5454682367    -1.4965358791
   37      C      -3.9589098697    -1.8677117641    -0.7624473938
   38      O      -4.3017214964    -1.9803654614     0.6738886744
   39      H      -6.0749960799     0.5165563007    -0.6936615586
   40      H      -4.2515048329    -0.0776745743    -2.0852829501
   41      H      -3.4732491270     3.3947753308     1.6044635201
   42      H      -6.1055793383    -1.2337814248     1.5378978315
   43      H      -6.8217635177    -3.0512602786    -0.0740836232
   44      H      -7.1618863822    -1.5860730218    -1.0453198181
   45      H      -5.0460838098    -3.6369101752    -1.5513312246
   46      H      -5.3205443136    -2.1550642889    -2.5178410287
   47      H      -2.9705557628    -2.3228018844    -0.9624042404
   48      H      -5.1119108104     3.4307677152     2.3516903326
   49      H      -4.7528685930     4.4679267615     0.9113436212
   50      H       1.7990753766     1.9746371746    -2.5059054027
   51      H       3.3530369867     2.8541723693    -2.8040851133
   52      H       2.5345693360     2.9954864902    -1.2039349018
   53      H       0.2215149045    -1.9474498171     0.2887293351
   54      H       0.7350556316    -1.5400588002    -1.4069831799
   55      H      -0.0629209720     0.7303786100     0.5435225775
   56      H      -0.2871500944     0.7012273575    -1.2384438745
 ----------------------------------------------------------------

    9   -1510.2698799136      2.93E-09 Convergence criterion met
 Total energy in the final basis set = -1510.26987991
 Final energy is   -1510.26987991356
 **  OPTIMIZATION CONVERGED  **

                    Orbital Energies (a.u.)
 --------------------------------------------------------------

 Alpha MOs
 -- Occupied --
-18.946 -18.933 -18.931 -18.925 -18.886 -18.885 -18.879 -18.877
-18.871 -18.866 -10.105 -10.101 -10.100 -10.095 -10.072 -10.071
-10.066 -10.060 -10.059 -10.058 -10.057 -10.057 -10.041 -10.039
-10.037 -10.036 -10.021 -10.020 -10.019 -10.019  -1.019  -1.014
 -1.006  -1.004  -0.969  -0.968  -0.942  -0.939  -0.932  -0.930
 -0.763  -0.762  -0.726  -0.722  -0.714  -0.704  -0.692  -0.667
 -0.659  -0.612  -0.597  -0.579  -0.546  -0.544  -0.537  -0.536
 -0.516  -0.510  -0.486  -0.480  -0.471  -0.460  -0.450  -0.442
 -0.434  -0.431  -0.422  -0.417  -0.409  -0.409  -0.405  -0.400
 -0.393  -0.389  -0.380  -0.367  -0.361  -0.356  -0.353  -0.345
 -0.344  -0.338  -0.334  -0.330  -0.329  -0.328  -0.324  -0.312
 -0.308  -0.307  -0.306  -0.301  -0.292  -0.291  -0.281  -0.277
 -0.275  -0.254  -0.249  -0.247  -0.240  -0.233  -0.232  -0.184
 -0.178  -0.173  -0.167  -0.159  -0.156  -0.151  -0.147  -0.142
 -0.141

          Ground-State Mulliken Net Atomic Charges

     Atom                 Charge (a.u.)
  ----------------------------------------
      1 O                    -0.210844
      2 C                     0.205680
      3 C                    -0.078801
      4 C                    -0.077288
      5 C                     0.206670
      6 O                    -0.171203
      7 C                    -0.047467
      8 C                    -0.054753
      9 O                    -0.176594
     10 C                     0.220469
     11 C                    -0.081190
     12 C                    -0.076759
     13 C                     0.214200
     14 O                    -0.212015
     15 O                    -0.167441
     16 O                    -0.165847
     17 O                    -0.221791
     18 C                    -0.124988
     19 C                     0.023847
     20 C                    -0.142924
     21 C                    -0.145339
     22 C                     0.023730
     23 O                    -0.191178
     24 H                     0.084205
     25 H                     0.086518
     26 H                     0.090878
     27 H                     0.078249
     28 H                     0.073051
     29 H                     0.078813
     30 H                     0.073471
     31 H                     0.089339
     32 O                    -0.211681
     33 C                    -0.127774
     34 C                     0.025162
     35 C                    -0.143910
     36 C                    -0.144548
     37 C                     0.024445
     38 O                    -0.186458
     39 H                     0.085422
     40 H                     0.085668
     41 H                     0.090436
     42 H                     0.086475
     43 H                     0.077911
     44 H                     0.073064
     45 H                     0.077575
     46 H                     0.072318
     47 H                     0.088413
     48 H                     0.088274
     49 H                     0.090585
     50 H                     0.092666
     51 H                     0.092709
     52 H                     0.093712
     53 H                     0.088458
     54 H                     0.099786
     55 H                     0.091130
     56 H                     0.087464
  ----------------------------------------
  Sum of atomic charges =    -0.000000

                    Cartesian Multipole Moments
 -----------------------------------------------------------------
    Charge (ESU x 10^10)
                 0.0000
    Dipole Moment (Debye)
         X      -0.3129      Y      -0.9963      Z      -1.5971
       Tot       1.9082
    Quadrupole Moments (Debye-Ang)
        XX    -140.3878     XY      -7.5641     YY    -158.9153
        XZ       7.9977     YZ       0.3185     ZZ    -163.6833

 Total job time:  55.59s(wall), 2638.02s(cpu)
        *  Thank you very much for using Q-Chem.  Have a nice day.  *
