 Q-Chem 5.0, Q-Chem, Inc., Pleasanton, CA (2017)
 Q-Chem 5.0.1 for Intel X86 EM64T Linux

User input:
--------------------------------------------------------------
$molecule
0  1
O -5.3868952148 0.8637999118 2.2089206901
C -5.018460572 0.835446395 1.014018447
C -4.7597140226 -0.4458009957 0.1444718515
C -3.4816312014 -0.4748442518 -0.7940644263
C -2.3267702621 0.5431857932 -0.4196644986
O -1.0420652293 -0.0968430435 -0.5911266892
C -0.1071003008 0.813068184 -1.2967408994
C 1.0090195354 -0.0684820494 -1.9523810993
O 2.132320199 -0.1677158588 -0.9937442576
C 3.373286296 -0.3339772827 -1.6942512425
C 4.5114300728 -0.6071149986 -0.647605262
C 4.6929092282 0.4910721153 0.4798900241
C 4.0477231027 1.9051696923 0.2586632387
O 4.0765251958 2.8534600543 1.0733182564
O -5.0122792913 1.9758208817 0.1513483408
O 3.5622569487 2.0349706606 -1.0812042325
O 3.4853548871 -0.3408625754 -2.9397288295
C 2.9837509574 3.3789034684 -1.2985069314
C 4.1001354234 -1.8542146619 0.2532951459
C 5.3399104668 -2.3053991556 1.1258663169
C 5.3278303793 -1.2191923253 2.2664383742
C 4.1593226303 -0.2835256873 1.7673504419
O 3.172722614 -1.248621848 1.2355311942
H 5.449311289 -0.7757594043 -1.2048997906
H 5.7736920949 0.6906138164 0.6110133579
H 3.595739091 -2.6690732731 -0.3014247131
H 5.1814325953 -3.3184852044 1.5278991262
H 6.2759099642 -2.299197633 0.5446229938
H 5.0698815762 -1.6634631531 3.2411616537
H 6.2863323855 -0.6847106308 2.3622844919
H 3.7004861896 0.3660653278 2.5379509648
O -2.4396988038 1.7513729432 -0.1264980437
C -5.3031580682 3.2024801369 0.9265842031
C -4.5679371946 -1.7782979768 0.9869792056
C -5.1197983107 -2.9668206847 0.1114970129
C -4.0352183118 -3.0081797863 -1.0300949998
C -2.9814993271 -1.9529366089 -0.502579359
O -3.1062744219 -2.0188021688 0.9742663464
H -5.6585956452 -0.542598382 -0.4946448465
H -3.7464673671 -0.3016319331 -1.853859371
H -4.4967495576 3.4184732406 1.6566203264
H -4.950252986 -1.7132609115 2.0246297318
H -5.1232734734 -3.9020702266 0.6940324798
H -6.1373401235 -2.7800679164 -0.2672460869
H -3.5741047739 -4.0044255127 -1.1181565286
H -4.4440718673 -2.7220952395 -2.0127288401
H -1.9324859007 -2.1246131074 -0.8086637297
H -6.2650480544 3.1224928805 1.4734433223
H -5.3594675781 4.0233449153 0.1883688919
H 2.6807309185 3.4097695928 -2.3613510102
H 3.7241932821 4.1795093709 -1.0967879925
H 2.0963421777 3.5484502401 -0.6545788511
H 0.6008852639 -1.0793527252 -2.1753711358
H 1.3684298692 0.3808592499 -2.9037311622
H 0.3655088004 1.5388265763 -0.5970822179
H -0.6431149422 1.3910459893 -2.0805587431
$end

$rem
JOBTYPE                   OPT
METHOD                    B3LYP
DFT_D                     d3_op
BASIS                     STO-3G
GEOM_OPT_MAX_CYCLES       100
GEOM_OPT_TOL_GRADIENT     300
GEOM_OPT_TOL_DISPLACEMENT 1200
GEOM_OPT_TOL_ENERGY       100
SYMMETRY                  False
THRESH                    12
SCF_CONVERGENCE           8
MAX_SUB_FILE_NUM          128
MEM_STATIC                400
MEM_TOTAL                 4000
$end
--------------------------------------------------------------

   16   -1510.2594456815      4.72E-09 Convergence criterion met
 Total energy in the final basis set = -1510.25944568
   13   -1510.2647489931      8.91E-09 Convergence criterion met
 Total energy in the final basis set = -1510.26474899
   13   -1510.2693521172      9.57E-09 Convergence criterion met
 Total energy in the final basis set = -1510.26935212
   14   -1510.2728284537      3.42E-09 Convergence criterion met
 Total energy in the final basis set = -1510.27282845
   13   -1510.2750188540      8.28E-09 Convergence criterion met
 Total energy in the final basis set = -1510.27501885
   13   -1510.2772397423      3.80E-09 Convergence criterion met
 Total energy in the final basis set = -1510.27723974
   13   -1510.2793796320      2.95E-09 Convergence criterion met
 Total energy in the final basis set = -1510.27937963
   13   -1510.2810452596      5.64E-09 Convergence criterion met
   12   -1510.3021809242      5.58E-09 Convergence criterion met
 Total energy in the final basis set = -1510.30218092
   12   -1510.3023091658      4.02E-09 Convergence criterion met
 Total energy in the final basis set = -1510.30230917
   11   -1510.3023191970      3.91E-09 Convergence criterion met
 Total energy in the final basis set = -1510.30231920
   12   -1510.3023383419      3.25E-09 Convergence criterion met
 Total energy in the final basis set = -1510.30233834
   10   -1510.3023403943      6.05E-09 Convergence criterion met
 Total energy in the final basis set = -1510.30234039
    9   -1510.3023443332      6.88E-09 Convergence criterion met
 Total energy in the final basis set = -1510.30234433

             Standard Nuclear Orientation (Angstroms)
    I     Atom           X                Y                Z
 ----------------------------------------------------------------
    1      O      -2.7580698930     1.6106278478     1.9910602782
    2      C      -3.2178382320     1.1827686889     0.9126243300
    3      C      -3.2305875607    -0.3041436216     0.3967874174
    4      C      -2.2561419746    -0.5824401750    -0.8208495702
    5      C      -1.4533662436     0.6734305995    -1.2813674672
    6      O      -0.9353929800     0.4169826715    -2.5875022321
    7      C      -0.0014956106     1.4918286465    -3.0065289532
    8      C       1.4508378409     0.9115948943    -3.0472222660
    9      O       1.7264165077     0.2349592125    -1.7581304625
   10      C       3.0791521277     0.4946982112    -1.3403384684
   11      C       3.4044734751    -0.4131037351    -0.1046484221
   12      C       2.4791036789    -0.1780136608     1.1604355776
   13      C       1.4811794449     1.0261973233     1.0500556887
   14      O       0.3247577440     1.0841559146     1.5163365588
   15      O      -3.9533295041     1.9803453686    -0.0305177174
   16      O       2.1266390150     2.0982249363     0.3520827441
   17      O       3.8667263872     1.2482642511    -1.9532036489
   18      C       1.1830636393     3.2308162701     0.1892690741
   19      C       3.0670307411    -1.9341715914    -0.4231611251
   20      C       3.7020702541    -2.8472826586     0.7010987055
   21      C       2.6958638413    -2.6194198058     1.8930564842
   22      C       1.7132293527    -1.5637805086     1.2607524755
   23      O       1.6161374588    -2.0128108137    -0.1499423250
   24      H       4.4706712173    -0.2666805065     0.1411985720
   25      H       3.1036959621    -0.0129504022     2.0582222810
   26      H       3.2863573765    -2.2470683795    -1.4626509842
   27      H       3.7159925402    -3.9003445049     0.3777834430
   28      H       4.7311831573    -2.5413804103     0.9489520014
   29      H       2.1565204624    -3.5464674731     2.1450660740
   30      H       3.1901925196    -2.2392716139     2.8010259397
   31      H       0.6881481217    -1.4843968316     1.6892898172
   32      O      -1.2773937225     1.7367278064    -0.6405982097
   33      C      -3.9099847700     3.3996880274     0.3821872391
   34      C      -2.6451566847    -1.2913596922     1.4885423666
   35      C      -3.0462000738    -2.7686174849     1.0998964028
   36      C      -2.0713947065    -3.0402769221    -0.1075584577
   37      C      -1.2837869167    -1.6741702759    -0.1863780714
   38      O      -1.1889326960    -1.2543659557     1.2281656286
   39      H      -4.2693438828    -0.5629825033     0.1226065947
   40      H      -2.7916049706    -0.9924720093    -1.6953609320
   41      H      -2.8676518486     3.7785177682     0.4076236990
   42      H      -2.8577525204    -0.9877777430     2.5317805524
   43      H      -2.8508766962    -3.4546190199     1.9394384846
   44      H      -4.1079741948    -2.8507395564     0.8173018734
   45      H      -1.3767729751    -3.8668996052     0.1113569587
   46      H      -2.6059859834    -3.2674575760    -1.0437196844
   47      H      -0.2599237740    -1.7313179413    -0.6215332782
   48      H      -4.3639455157     3.5513135969     1.3830683833
   49      H      -4.4897715539     3.9590753693    -0.3749993578
   50      H       1.6279822094     3.8932616363    -0.5755973276
   51      H       1.0700542559     3.7910525785     1.1396703336
   52      H       0.1844483603     2.8602333195    -0.1358651334
   53      H       1.5320873811     0.1648567134    -3.8670320395
   54      H       2.2046764916     1.7119694300    -3.2164685394
   55      H      -0.0758934949     2.3367188406    -2.2919117618
   56      H      -0.3003302128     1.8296291025    -4.0209095195
 ----------------------------------------------------------------

    9   -1510.3023450888      7.20E-09 Convergence criterion met
 Total energy in the final basis set = -1510.30234509
 Final energy is   -1510.30234508880
 **  OPTIMIZATION CONVERGED  **

                    Orbital Energies (a.u.)
 --------------------------------------------------------------

 Alpha MOs
 -- Occupied --
-18.940 -18.924 -18.922 -18.914 -18.887 -18.886 -18.884 -18.868
-18.867 -18.859 -10.107 -10.095 -10.087 -10.085 -10.074 -10.068
-10.059 -10.052 -10.051 -10.045 -10.042 -10.042 -10.034 -10.033
-10.029 -10.028 -10.017 -10.014 -10.014 -10.012  -1.019  -1.006
 -0.997  -0.993  -0.968  -0.963  -0.944  -0.929  -0.924  -0.919
 -0.759  -0.757  -0.725  -0.716  -0.708  -0.700  -0.690  -0.651
 -0.648  -0.613  -0.593  -0.575  -0.541  -0.537  -0.533  -0.529
 -0.509  -0.501  -0.480  -0.478  -0.462  -0.451  -0.447  -0.433
 -0.429  -0.427  -0.421  -0.412  -0.406  -0.403  -0.399  -0.397
 -0.393  -0.373  -0.366  -0.364  -0.356  -0.350  -0.346  -0.343
 -0.338  -0.338  -0.331  -0.328  -0.323  -0.318  -0.316  -0.308
 -0.305  -0.301  -0.296  -0.293  -0.289  -0.282  -0.272  -0.269
 -0.265  -0.252  -0.243  -0.240  -0.237  -0.235  -0.217  -0.185
 -0.169  -0.165  -0.161  -0.158  -0.151  -0.143  -0.142  -0.137
 -0.135

          Ground-State Mulliken Net Atomic Charges

     Atom                 Charge (a.u.)
  ----------------------------------------
      1 O                    -0.208506
      2 C                     0.216699
      3 C                    -0.079485
      4 C                    -0.077374
      5 C                     0.225903
      6 O                    -0.167826
      7 C                    -0.053667
      8 C                    -0.054028
      9 O                    -0.176734
     10 C                     0.216337
     11 C                    -0.078570
     12 C                    -0.079728
     13 C                     0.209603
     14 O                    -0.196059
     15 O                    -0.178346
     16 O                    -0.175551
     17 O                    -0.218483
     18 C                    -0.143788
     19 C                     0.027166
     20 C                    -0.144326
     21 C                    -0.143983
     22 C                     0.013387
     23 O                    -0.194421
     24 H                     0.084786
     25 H                     0.083649
     26 H                     0.080481
     27 H                     0.076242
     28 H                     0.073218
     29 H                     0.076341
     30 H                     0.073074
     31 H                     0.114594
     32 O                    -0.210116
     33 C                    -0.128349
     34 C                     0.027441
     35 C                    -0.144970
     36 C                    -0.144270
     37 C                     0.015887
     38 O                    -0.188534
     39 H                     0.082471
     40 H                     0.086726
     41 H                     0.090465
     42 H                     0.089401
     43 H                     0.075866
     44 H                     0.071847
     45 H                     0.077444
     46 H                     0.071848
     47 H                     0.111537
     48 H                     0.085635
     49 H                     0.084681
     50 H                     0.080869
     51 H                     0.082132
     52 H                     0.111347
     53 H                     0.082426
     54 H                     0.100580
     55 H                     0.099292
     56 H                     0.087740
  ----------------------------------------
  Sum of atomic charges =     0.000000

                    Cartesian Multipole Moments
 -----------------------------------------------------------------
    Charge (ESU x 10^10)
                 0.0000
    Dipole Moment (Debye)
         X      -0.3888      Y      -1.1946      Z      -1.5065
       Tot       1.9616
    Quadrupole Moments (Debye-Ang)
        XX    -154.9029     XY      -4.1168     YY    -151.0363
        XZ       5.7701     YZ      -4.8156     ZZ    -157.3386

 Total job time:  147.82s(wall), 7040.53s(cpu)
        *  Thank you very much for using Q-Chem.  Have a nice day.  *
