 Q-Chem 5.0, Q-Chem, Inc., Pleasanton, CA (2017)
 Q-Chem 5.0.1 for Intel X86 EM64T Linux

User input:
--------------------------------------------------------------
$molecule
0  1
O -3.94934 -3.66094 2.70899
C -3.26408 -4.56952 2.26188
C -3.36658 -6.02376 2.66595
C -2.04979 -6.78783 2.88069
C -0.77971 -5.96721 2.84106
O 0.08092 -6.39709 3.81056
C 1.42774 -6.53726 3.34613
C 2.19569 -7.50167 4.24407
O 2.86361 -6.77336 5.28634
C 4.00775 -7.33527 5.74933
C 4.57532 -6.61229 6.94758
C 4.85891 -5.11907 6.72814
C 4.21859 -4.49794 5.50303
O 4.29758 -3.32108 5.18161
O -2.57745 -4.32139 1.11592
O 4.42537 -5.24953 4.37594
O 4.5219 -8.34731 5.28868
C 4.56298 -4.79517 3.07282
C 3.60361 -6.53371 8.14269
C 4.39739 -6.33938 9.4339
C 4.88784 -4.91574 9.25324
C 4.15413 -4.53382 7.96171
O 2.96542 -5.28692 8.00549
H 5.48643 -7.16764 7.26849
H 5.94975 -4.9088 6.67049
H 2.9374 -7.4203 8.22504
H 3.66016 -6.35779 10.2686
H 5.1905 -7.09182 9.63304
H 4.52795 -4.30917 10.11362
H 5.98788 -4.80314 9.13807
H 4.02979 -3.43039 7.89411
O -0.40185 -5.37665 1.8371
C -2.43477 -3.0744 0.54252
C -4.06185 -6.23265 4.02511
C -4.6756 -7.62865 4.08259
C -3.42923 -8.47666 4.19503
C -2.35417 -7.38603 4.28291
O -3.00065 -6.32576 4.94257
H -3.96692 -6.50312 1.85978
H -1.91389 -7.59039 2.12194
H -1.91771 -2.38872 1.24777
H -4.84027 -5.47222 4.25194
H -5.24138 -7.70065 5.03928
H -5.35017 -7.88432 3.23726
H -3.4822 -9.04824 5.14867
H -3.24702 -9.17177 3.34713
H -1.47066 -7.81598 4.80035
H -3.4286 -2.65784 0.27281
H -1.82299 -3.16563 -0.37827
H 4.6687 -5.66569 2.39349
H 5.47278 -4.16399 2.98558
H 3.67814 -4.19888 2.76733
H 1.58712 -8.35227 4.62065
H 2.97322 -7.91928 3.56081
H 1.92859 -5.56604 3.17956
H 1.38134 -7.06901 2.36356
$end

$opt
CONSTRAINT
tors           1           2           3           4    -137.375
tors           3           4           5           6    +139.880
tors           4           5           6           7    +135.025
tors           5           6           7           8    -157.726
tors           6           7           8           9     -92.273
tors           7           8           9          10    -150.847
tors           8           9          10          11    -173.288
tors           9          10          11          12     -56.571
tors          11          12          13          14    +177.897
ENDCONSTRAINT
$end

$rem
JOBTYPE                   OPT
METHOD                    B3LYP
DFT_D                     d3_op
BASIS                     STO-3G
GEOM_OPT_MAX_CYCLES       100
GEOM_OPT_TOL_GRADIENT     300
GEOM_OPT_TOL_DISPLACEMENT 1200
GEOM_OPT_TOL_ENERGY       100
SYMMETRY                  False
THRESH                    12
SCF_CONVERGENCE           8
MAX_SUB_FILE_NUM          128
MEM_STATIC                400
MEM_TOTAL                 4000
$end
--------------------------------------------------------------

   15   -1510.0911361512      8.17E-09 Convergence criterion met
 Total energy in the final basis set = -1510.09113615
   13   -1510.1662589751      9.74E-09 Convergence criterion met
 Total energy in the final basis set = -1510.16625898
   14   -1510.2074562425      6.66E-09 Convergence criterion met
 Total energy in the final basis set = -1510.20745624
   14   -1510.2285895199      8.00E-09 Convergence criterion met
 Total energy in the final basis set = -1510.22858952
   14   -1510.2409851029      5.63E-09 Convergence criterion met
 Total energy in the final basis set = -1510.24098510
   12   -1510.2475059505      7.36E-09 Convergence criterion met
 Total energy in the final basis set = -1510.24750595
   12   -1510.2517343339      7.59E-09 Convergence criterion met
 Total energy in the final basis set = -1510.25173433
   12   -1510.2543903369      6.51E-09 Convergence criterion met
   11   -1510.2593940643      3.70E-09 Convergence criterion met
 Total energy in the final basis set = -1510.25939406
   12   -1510.2594094618      2.33E-09 Convergence criterion met
 Total energy in the final basis set = -1510.25940946
   12   -1510.2594243636      2.62E-09 Convergence criterion met
 Total energy in the final basis set = -1510.25942436
   11   -1510.2594322346      6.53E-09 Convergence criterion met
 Total energy in the final basis set = -1510.25943223
    9   -1510.2594351502      4.02E-09 Convergence criterion met
 Total energy in the final basis set = -1510.25943515
    9   -1510.2594363339      2.88E-09 Convergence criterion met
 Total energy in the final basis set = -1510.25943633

             Standard Nuclear Orientation (Angstroms)
    I     Atom           X                Y                Z
 ----------------------------------------------------------------
    1      O      -5.3868952148     0.8637999118     2.2089206901
    2      C      -5.0184605720     0.8354463950     1.0140184470
    3      C      -4.7597140226    -0.4458009957     0.1444718515
    4      C      -3.4816312014    -0.4748442518    -0.7940644263
    5      C      -2.3267702621     0.5431857932    -0.4196644986
    6      O      -1.0420652293    -0.0968430435    -0.5911266892
    7      C      -0.1071003008     0.8130681840    -1.2967408994
    8      C       1.0090195354    -0.0684820494    -1.9523810993
    9      O       2.1323201990    -0.1677158588    -0.9937442576
   10      C       3.3732862960    -0.3339772827    -1.6942512425
   11      C       4.5114300728    -0.6071149986    -0.6476052620
   12      C       4.6929092282     0.4910721153     0.4798900241
   13      C       4.0477231027     1.9051696923     0.2586632387
   14      O       4.0765251958     2.8534600543     1.0733182564
   15      O      -5.0122792913     1.9758208817     0.1513483408
   16      O       3.5622569487     2.0349706606    -1.0812042325
   17      O       3.4853548871    -0.3408625754    -2.9397288295
   18      C       2.9837509574     3.3789034684    -1.2985069314
   19      C       4.1001354234    -1.8542146619     0.2532951459
   20      C       5.3399104668    -2.3053991556     1.1258663169
   21      C       5.3278303793    -1.2191923253     2.2664383742
   22      C       4.1593226303    -0.2835256873     1.7673504419
   23      O       3.1727226140    -1.2486218480     1.2355311942
   24      H       5.4493112890    -0.7757594043    -1.2048997906
   25      H       5.7736920949     0.6906138164     0.6110133579
   26      H       3.5957390910    -2.6690732731    -0.3014247131
   27      H       5.1814325953    -3.3184852044     1.5278991262
   28      H       6.2759099642    -2.2991976330     0.5446229938
   29      H       5.0698815762    -1.6634631531     3.2411616537
   30      H       6.2863323855    -0.6847106308     2.3622844919
   31      H       3.7004861896     0.3660653278     2.5379509648
   32      O      -2.4396988038     1.7513729432    -0.1264980437
   33      C      -5.3031580682     3.2024801369     0.9265842031
   34      C      -4.5679371946    -1.7782979768     0.9869792056
   35      C      -5.1197983107    -2.9668206847     0.1114970129
   36      C      -4.0352183118    -3.0081797863    -1.0300949998
   37      C      -2.9814993271    -1.9529366089    -0.5025793590
   38      O      -3.1062744219    -2.0188021688     0.9742663464
   39      H      -5.6585956452    -0.5425983820    -0.4946448465
   40      H      -3.7464673671    -0.3016319331    -1.8538593710
   41      H      -4.4967495576     3.4184732406     1.6566203264
   42      H      -4.9502529860    -1.7132609115     2.0246297318
   43      H      -5.1232734734    -3.9020702266     0.6940324798
   44      H      -6.1373401235    -2.7800679164    -0.2672460869
   45      H      -3.5741047739    -4.0044255127    -1.1181565286
   46      H      -4.4440718673    -2.7220952395    -2.0127288401
   47      H      -1.9324859007    -2.1246131074    -0.8086637297
   48      H      -6.2650480544     3.1224928805     1.4734433223
   49      H      -5.3594675781     4.0233449153     0.1883688919
   50      H       2.6807309185     3.4097695928    -2.3613510102
   51      H       3.7241932821     4.1795093709    -1.0967879925
   52      H       2.0963421777     3.5484502401    -0.6545788511
   53      H       0.6008852639    -1.0793527252    -2.1753711358
   54      H       1.3684298692     0.3808592499    -2.9037311622
   55      H       0.3655088004     1.5388265763    -0.5970822179
   56      H      -0.6431149422     1.3910459893    -2.0805587431
 ----------------------------------------------------------------

    9   -1510.2594371414      3.28E-09 Convergence criterion met
 Total energy in the final basis set = -1510.25943714
 Final energy is   -1510.25943714143
 **  OPTIMIZATION CONVERGED  **

                    Orbital Energies (a.u.)
 --------------------------------------------------------------

 Alpha MOs
 -- Occupied --
-18.942 -18.929 -18.924 -18.918 -18.888 -18.885 -18.881 -18.876
-18.869 -18.864 -10.103 -10.101 -10.095 -10.094 -10.074 -10.070
-10.069 -10.060 -10.059 -10.058 -10.054 -10.053 -10.039 -10.038
-10.036 -10.033 -10.020 -10.019 -10.018 -10.016  -1.017  -1.010
 -1.004  -1.001  -0.969  -0.965  -0.939  -0.937  -0.929  -0.927
 -0.763  -0.759  -0.727  -0.720  -0.711  -0.703  -0.693  -0.666
 -0.656  -0.611  -0.598  -0.578  -0.544  -0.541  -0.537  -0.534
 -0.514  -0.510  -0.489  -0.480  -0.468  -0.457  -0.446  -0.434
 -0.433  -0.428  -0.420  -0.414  -0.412  -0.408  -0.404  -0.402
 -0.393  -0.384  -0.378  -0.369  -0.361  -0.352  -0.350  -0.344
 -0.343  -0.339  -0.332  -0.330  -0.329  -0.325  -0.321  -0.314
 -0.307  -0.306  -0.304  -0.296  -0.295  -0.291  -0.277  -0.277
 -0.274  -0.251  -0.248  -0.244  -0.241  -0.232  -0.228  -0.184
 -0.174  -0.170  -0.165  -0.157  -0.149  -0.146  -0.145  -0.142
 -0.139

          Ground-State Mulliken Net Atomic Charges

     Atom                 Charge (a.u.)
  ----------------------------------------
      1 O                    -0.214900
      2 C                     0.210119
      3 C                    -0.080620
      4 C                    -0.075522
      5 C                     0.213782
      6 O                    -0.180957
      7 C                    -0.044441
      8 C                    -0.048675
      9 O                    -0.169077
     10 C                     0.217657
     11 C                    -0.078850
     12 C                    -0.078966
     13 C                     0.211734
     14 O                    -0.213985
     15 O                    -0.164827
     16 O                    -0.167824
     17 O                    -0.222524
     18 C                    -0.126865
     19 C                     0.026559
     20 C                    -0.145109
     21 C                    -0.142334
     22 C                     0.026373
     23 O                    -0.182626
     24 H                     0.084551
     25 H                     0.085045
     26 H                     0.082416
     27 H                     0.078432
     28 H                     0.073373
     29 H                     0.078848
     30 H                     0.073608
     31 H                     0.088375
     32 O                    -0.197505
     33 C                    -0.126239
     34 C                     0.022402
     35 C                    -0.142214
     36 C                    -0.146172
     37 C                     0.021775
     38 O                    -0.190515
     39 H                     0.082436
     40 H                     0.084356
     41 H                     0.091017
     42 H                     0.090341
     43 H                     0.077779
     44 H                     0.072229
     45 H                     0.077502
     46 H                     0.071164
     47 H                     0.093079
     48 H                     0.087730
     49 H                     0.089496
     50 H                     0.091990
     51 H                     0.092603
     52 H                     0.089515
     53 H                     0.086603
     54 H                     0.095174
     55 H                     0.091016
     56 H                     0.081667
  ----------------------------------------
  Sum of atomic charges =    -0.000000

                    Cartesian Multipole Moments
 -----------------------------------------------------------------
    Charge (ESU x 10^10)
                 0.0000
    Dipole Moment (Debye)
         X       0.2737      Y      -0.2433      Z      -2.5897
       Tot       2.6155
    Quadrupole Moments (Debye-Ang)
        XX    -143.0793     XY      -2.0056     YY    -153.3062
        XZ      12.3960     YZ      -2.6232     ZZ    -166.3028

 Total job time:  72.41s(wall), 3447.38s(cpu)
        *  Thank you very much for using Q-Chem.  Have a nice day.  *
