 Q-Chem 5.0, Q-Chem, Inc., Pleasanton, CA (2017)
 Q-Chem 5.0.1 for Intel X86 EM64T Linux

User input:
--------------------------------------------------------------
$molecule
0  1
O -4.3512459401 1.1292623325 2.3173126946
C -4.6771939136 1.251692423 1.1174889569
C -5.0515887445 0.1119102655 0.1033747638
C -3.9134406777 -0.2285373358 -0.947702056
C -2.5269502068 0.4080121422 -0.5580395226
O -1.4618456685 -0.4541759512 -0.9767634755
C -0.2114416119 0.326943244 -1.1523835099
C 0.8932720376 -0.6697607139 -1.6494936434
O 1.935056661 -0.7406349479 -0.5972064783
C 3.2061970634 -1.0830027058 -1.1622371228
C 4.2571748925 -1.2084222516 -0.0044106618
C 5.0830128014 0.1263949458 0.2732599631
C 4.5611619428 1.3830241211 -0.5126145051
O 4.0779951655 2.4302814789 -0.0318578332
O -4.9161785491 2.5063509081 0.4647022992
O 4.7401323913 1.1526876685 -1.9137024658
O 3.394619272 -1.2919057954 -2.3805382467
C 4.2101025486 2.2955198576 -2.6917350464
C 3.6230557317 -1.4688164899 1.4271767141
C 4.7527232654 -2.0549529477 2.3624143286
C 5.6265074543 -0.7719986635 2.6241140543
C 4.8146705059 0.3193327366 1.822383849
O 3.4029581885 -0.1081100232 1.967391657
H 4.9497644776 -2.0197022891 -0.292710035
H 6.1532521044 -0.0208161711 0.039894024
H 2.6743459977 -2.038355016 1.411227226
H 4.3127873037 -2.43985287 3.2961986971
H 5.3192704555 -2.8664791361 1.878253374
H 5.6634808529 -0.5179288724 3.6952052419
H 6.6574671648 -0.8770470745 2.2498066366
H 4.9353806079 1.3640501775 2.1687422351
O -2.3472172409 1.5126505429 0.0008822485
C -4.5056191209 3.6172404919 1.3514753722
C -5.275321902 -1.3058587349 0.7811884391
C -6.1955255115 -2.1510973485 -0.1832128175
C -5.1982782815 -2.4316993347 -1.3683413243
C -3.8597543522 -1.8062952403 -0.8058509685
O -3.9634509683 -1.9841508076 0.6620183384
H -5.9626497176 0.4396620084 -0.4289628283
H -4.1749933428 0.1057482894 -1.9690234383
H -3.4122978605 3.5943279074 1.5374975864
H -5.5930693833 -1.2611738863 1.8409349362
H -6.5078873842 -3.0863880848 0.3082366378
H -7.0942611972 -1.5987281978 -0.5002188078
H -5.0756858476 -3.5109473717 -1.5510029921
H -5.5111951029 -1.9487557056 -2.3078376866
H -2.9236855745 -2.2564843491 -1.1877334417
H -5.032629831 3.5799724477 2.3267800568
H -4.770947869 4.5496377157 0.820068223
H 4.3206661323 2.0160104798 -3.7555869259
H 4.7791169398 3.2265358685 -2.4912539994
H 3.1405639233 2.481949325 -2.4648892199
H 0.4375987703 -1.6733216751 -1.8041748346
H 1.346908821 -0.3444064112 -2.6098610807
H 0.1137885303 0.7866798028 -0.1922750488
H -0.3729988826 1.1431269551 -1.8891262571
$end

$rem
JOBTYPE                   OPT
METHOD                    B3LYP
DFT_D                     d3_op
BASIS                     STO-3G
GEOM_OPT_MAX_CYCLES       100
GEOM_OPT_TOL_GRADIENT     300
GEOM_OPT_TOL_DISPLACEMENT 1200
GEOM_OPT_TOL_ENERGY       100
SYMMETRY                  False
THRESH                    12
SCF_CONVERGENCE           8
MAX_SUB_FILE_NUM          128
MEM_STATIC                400
MEM_TOTAL                 4000
$end
--------------------------------------------------------------

   16   -1510.2735882148      5.46E-09 Convergence criterion met
 Total energy in the final basis set = -1510.27358821
   14   -1510.2767987165      2.08E-09 Convergence criterion met
 Total energy in the final basis set = -1510.27679872
   14   -1510.2789026261      1.73E-09 Convergence criterion met
 Total energy in the final basis set = -1510.27890263
   14   -1510.2806028869      2.05E-09 Convergence criterion met
 Total energy in the final basis set = -1510.28060289
   14   -1510.2814167682      1.23E-09 Convergence criterion met
 Total energy in the final basis set = -1510.28141677
   13   -1510.2825231071      9.41E-09 Convergence criterion met
 Total energy in the final basis set = -1510.28252311
   14   -1510.2836054934      1.62E-09 Convergence criterion met
 Total energy in the final basis set = -1510.28360549
   13   -1510.2843524811      9.30E-09 Convergence criterion met
   11   -1510.3020876624      7.49E-09 Convergence criterion met
 Total energy in the final basis set = -1510.30208766
   11   -1510.3020997484      4.57E-09 Convergence criterion met
 Total energy in the final basis set = -1510.30209975
    9   -1510.3021007130      8.87E-09 Convergence criterion met
 Total energy in the final basis set = -1510.30210071
    9   -1510.3021013168      4.02E-09 Convergence criterion met
 Total energy in the final basis set = -1510.30210132
   11   -1510.3021042657      3.55E-09 Convergence criterion met
 Total energy in the final basis set = -1510.30210427
    9   -1510.3021033748      7.84E-09 Convergence criterion met
 Total energy in the final basis set = -1510.30210337

             Standard Nuclear Orientation (Angstroms)
    I     Atom           X                Y                Z
 ----------------------------------------------------------------
    1      O      -2.3511826998     2.5169405421     1.3519311719
    2      C      -2.9540986263     1.8713131564     0.4705620850
    3      C      -3.2248778509     0.3209971676     0.4301859222
    4      C      -2.3468306898    -0.4651823664    -0.6285506346
    5      C      -1.4071754005     0.4468202470    -1.4766120467
    6      O      -0.9644869336    -0.3031324666    -2.6090556499
    7      C       0.0844615522     0.4357545223    -3.3552967867
    8      C       1.4488156203    -0.3075843539    -3.1733336407
    9      O       1.6722838809    -0.5402942151    -1.7270467538
   10      C       3.0582839006    -0.3294853881    -1.3989591636
   11      C       3.3039532956    -0.8124825370     0.0720424769
   12      C       2.4403035843    -0.0696639680     1.1740795068
   13      C       1.5968656594     1.1434814716     0.6492994663
   14      O       0.4623487306     1.4940022868     1.0333866902
   15      O      -3.6377409068     2.4610361921    -0.6482176944
   16      O       2.3668682904     1.8376907690    -0.3405358021
   17      O       3.9161409366     0.0716473827    -2.2157263506
   18      C       1.5774606453     2.9625715455    -0.8982439103
   19      C       2.7816501375    -2.3028993785     0.2626712630
   20      C       3.3299951993    -2.8646476493     1.6355355354
   21      C       2.3778199872    -2.1480858186     2.6674976053
   22      C       1.5170390301    -1.2443948140     1.7068741790
   23      O       1.3379263535    -2.1145373788     0.5181961824
   24      H       4.3854426786    -0.7212843847     0.2741499742
   25      H       3.0979807482     0.3079895313     1.9792982602
   26      H       2.9409030041    -2.9614731053    -0.6133438102
   27      H       3.2213449886    -3.9601737892     1.6751838802
   28      H       4.3908789463    -2.6097634470     1.7881261933
   29      H       1.7354672912    -2.8747132073     3.1900671828
   30      H       2.9286633505    -1.5596158760     3.4181907327
   31      H       0.5174183911    -0.9080807284     2.0658763328
   32      O      -1.0822583991     1.6339673227    -1.2379864494
   33      C      -3.3442256242     3.9091592066    -0.7025614766
   34      C      -2.7638313295    -0.3708580146     1.7780230342
   35      C      -3.3737985040    -1.8268665120     1.8400427787
   36      C      -2.4567075846    -2.5874315904     0.8093394466
   37      C      -1.5047132673    -1.4252372013     0.3255631528
   38      O      -1.3224450488    -0.6120096047     1.5470541998
   39      H      -4.3002546043     0.1656249182     0.2292253436
   40      H      -2.9715840574    -1.0523111604    -1.3250204013
   41      H      -2.2634238211     4.0918461831    -0.8741148540
   42      H      -2.9094326106     0.2547898103     2.6798087393
   43      H      -3.2753625563    -2.2439474580     2.8548471792
   44      H      -4.4377297241    -1.8430332497     1.5543675795
   45      H      -1.8676886760    -3.3784694712     1.3001955665
   46      H      -3.0270116349    -3.0350173207    -0.0199510066
   47      H      -0.5074926051    -1.7434813503    -0.0554144989
   48      H      -3.6446219826     4.4261382244     0.2318030679
   49      H      -3.9269558663     4.3108949789    -1.5519746045
   50      H       2.0894649871     3.2634498167    -1.8306024666
   51      H       1.5608829704     3.8197860953    -0.1949474180
   52      H       0.5317326184     2.6394338333    -1.1037806896
   53      H       1.4096382557    -1.2906643855    -3.6912334112
   54      H       2.2937873094     0.2840208284    -3.5901497877
   55      H       0.1389087484     1.4755833293    -2.9734820189
   56      H      -0.1998865743     0.4436414039    -4.4283072766
 ----------------------------------------------------------------

   10   -1510.3021028457      7.23E-09 Convergence criterion met
 Total energy in the final basis set = -1510.30210285
 Final energy is   -1510.30210284570
 **  OPTIMIZATION CONVERGED  **

                    Orbital Energies (a.u.)
 --------------------------------------------------------------

 Alpha MOs
 -- Occupied --
-18.940 -18.923 -18.922 -18.914 -18.887 -18.885 -18.884 -18.867
-18.867 -18.859 -10.107 -10.095 -10.087 -10.084 -10.074 -10.068
-10.058 -10.053 -10.051 -10.045 -10.042 -10.041 -10.035 -10.033
-10.029 -10.028 -10.017 -10.014 -10.014 -10.012  -1.020  -1.006
 -0.997  -0.992  -0.968  -0.964  -0.944  -0.928  -0.924  -0.919
 -0.758  -0.757  -0.725  -0.716  -0.708  -0.700  -0.690  -0.650
 -0.648  -0.613  -0.593  -0.575  -0.541  -0.537  -0.534  -0.529
 -0.509  -0.501  -0.480  -0.477  -0.462  -0.451  -0.447  -0.433
 -0.429  -0.427  -0.421  -0.411  -0.406  -0.403  -0.398  -0.396
 -0.393  -0.373  -0.366  -0.363  -0.356  -0.350  -0.345  -0.343
 -0.338  -0.338  -0.331  -0.327  -0.323  -0.318  -0.316  -0.308
 -0.305  -0.301  -0.296  -0.292  -0.289  -0.282  -0.272  -0.268
 -0.266  -0.252  -0.242  -0.240  -0.237  -0.235  -0.217  -0.185
 -0.169  -0.164  -0.160  -0.158  -0.151  -0.143  -0.141  -0.136
 -0.135

          Ground-State Mulliken Net Atomic Charges

     Atom                 Charge (a.u.)
  ----------------------------------------
      1 O                    -0.207328
      2 C                     0.216754
      3 C                    -0.079312
      4 C                    -0.077540
      5 C                     0.225701
      6 O                    -0.167969
      7 C                    -0.053711
      8 C                    -0.054148
      9 O                    -0.176970
     10 C                     0.216347
     11 C                    -0.078414
     12 C                    -0.079729
     13 C                     0.209691
     14 O                    -0.195559
     15 O                    -0.178290
     16 O                    -0.175730
     17 O                    -0.218804
     18 C                    -0.144058
     19 C                     0.027070
     20 C                    -0.144392
     21 C                    -0.143959
     22 C                     0.012928
     23 O                    -0.194604
     24 H                     0.084715
     25 H                     0.083722
     26 H                     0.080248
     27 H                     0.076131
     28 H                     0.073134
     29 H                     0.076340
     30 H                     0.073076
     31 H                     0.114874
     32 O                    -0.209966
     33 C                    -0.128380
     34 C                     0.027770
     35 C                    -0.145175
     36 C                    -0.144020
     37 C                     0.016532
     38 O                    -0.188420
     39 H                     0.082487
     40 H                     0.086644
     41 H                     0.089939
     42 H                     0.088784
     43 H                     0.075943
     44 H                     0.071951
     45 H                     0.077674
     46 H                     0.072095
     47 H                     0.111352
     48 H                     0.086117
     49 H                     0.084461
     50 H                     0.080869
     51 H                     0.081938
     52 H                     0.111220
     53 H                     0.082424
     54 H                     0.100566
     55 H                     0.099241
     56 H                     0.087736
  ----------------------------------------
  Sum of atomic charges =     0.000000

                    Cartesian Multipole Moments
 -----------------------------------------------------------------
    Charge (ESU x 10^10)
                 0.0000
    Dipole Moment (Debye)
         X      -0.6321      Y      -1.5103      Z      -1.0219
       Tot       1.9300
    Quadrupole Moments (Debye-Ang)
        XX    -155.6657     XY      -1.7732     YY    -154.2201
        XZ       5.7599     YZ      -6.2306     ZZ    -153.4296

 Total job time:  180.25s(wall), 8580.87s(cpu)
        *  Thank you very much for using Q-Chem.  Have a nice day.  *
