 Q-Chem 5.0, Q-Chem, Inc., Pleasanton, CA (2017)
 Q-Chem 5.0.1 for Intel X86 EM64T Linux

User input:
--------------------------------------------------------------
$molecule
0  1
O -3.94934 -3.66094 2.70899
C -3.26408 -4.56952 2.26188
C -3.36658 -6.02376 2.66595
C -2.27432 -6.57256 3.5985
C -1.30151 -5.56245 4.16542
O -0.91947 -5.94027 5.4211
C 0.34486 -5.39515 5.81296
C 0.72263 -5.89152 7.20474
O 0.77354 -4.78682 8.12121
C 1.60414 -4.94643 9.1813
C 1.56799 -3.77861 10.13815
C 2.64112 -2.70775 9.89338
C 3.34348 -2.77062 8.55195
O 3.29454 -1.90985 7.68521
O -2.29497 -4.27277 1.35662
O 4.13422 -3.85577 8.34173
O 2.40199 -5.86789 9.30382
C 4.84336 -4.08988 7.18245
C 0.29491 -2.89632 10.05306
C 0.07988 -2.17454 11.38251
C 1.2264 -1.18634 11.35409
C 1.76826 -1.43894 9.94192
O 0.64075 -1.83334 9.20061
H 1.58487 -4.2121 11.1636
H 3.43498 -2.71828 10.67195
H -0.62309 -3.46319 9.78394
H -0.87672 -1.61157 11.28765
H 0.03207 -2.81921 12.28632
H 0.80724 -0.16017 11.44951
H 2.01502 -1.35145 12.11999
H 2.30656 -0.53845 9.57236
O -0.63538 -4.82074 3.45229
C -2.0373 -3.00392 0.8815
C -4.62459 -6.29859 3.52378
C -5.03281 -7.76306 3.39233
C -3.91962 -8.43047 4.16508
C -3.17482 -7.19889 4.6965
O -4.17701 -6.22864 4.85354
H -3.47288 -6.60233 1.72059
H -1.65251 -7.33865 3.08484
H -1.75022 -2.33274 1.71906
H -5.49027 -5.64969 3.26576
H -5.98282 -7.88508 3.96115
H -5.17953 -8.13259 2.35466
H -4.37358 -9.01327 4.99744
H -3.2488 -9.08318 3.56544
H -2.63547 -7.49327 5.62129
H -2.93405 -2.59912 0.36541
H -1.19836 -3.05022 0.15731
H 5.39868 -5.04483 7.28282
H 5.57078 -3.26907 7.00534
H 4.14762 -4.17007 6.31974
H 0.06703 -6.70967 7.57514
H 1.74357 -6.32337 7.08175
H 0.34935 -4.28123 5.77917
H 1.11449 -5.76209 5.09275
$end

$opt
CONSTRAINT
tors           1           2           3           4    -104.134
tors           3           4           5           6    +146.698
tors           4           5           6           7    +156.215
tors           5           6           7           8    -178.363
tors           6           7           8           9    -115.607
tors           7           8           9          10    -153.077
tors           8           9          10          11    -177.482
tors           9          10          11          12     -93.921
tors          11          12          13          14    +116.155
ENDCONSTRAINT
$end

$rem
JOBTYPE                   OPT
METHOD                    B3LYP
DFT_D                     d3_op
BASIS                     STO-3G
GEOM_OPT_MAX_CYCLES       100
GEOM_OPT_TOL_GRADIENT     300
GEOM_OPT_TOL_DISPLACEMENT 1200
GEOM_OPT_TOL_ENERGY       100
SYMMETRY                  False
THRESH                    12
SCF_CONVERGENCE           8
MAX_SUB_FILE_NUM          128
MEM_STATIC                400
MEM_TOTAL                 4000
$end
--------------------------------------------------------------

   15   -1510.1417250345      6.84E-09 Convergence criterion met
 Total energy in the final basis set = -1510.14172503
   14   -1510.2106427629      6.52E-09 Convergence criterion met
 Total energy in the final basis set = -1510.21064276
   14   -1510.2474503864      8.44E-09 Convergence criterion met
 Total energy in the final basis set = -1510.24745039
   13   -1510.2636513042      7.95E-09 Convergence criterion met
 Total energy in the final basis set = -1510.26365130
   13   -1510.2695203271      4.95E-09 Convergence criterion met
 Total energy in the final basis set = -1510.26952033
   13   -1510.2720119522      2.91E-09 Convergence criterion met
 Total energy in the final basis set = -1510.27201195
   13   -1510.2730055535      2.64E-09 Convergence criterion met
 Total energy in the final basis set = -1510.27300555
   12   -1510.2732628583      7.01E-09 Convergence criterion met
    9   -1510.2735797583      8.72E-09 Convergence criterion met
 Total energy in the final basis set = -1510.27357976
    9   -1510.2735873263      9.78E-09 Convergence criterion met
 Total energy in the final basis set = -1510.27358733
    9   -1510.2735951774      7.73E-09 Convergence criterion met
 Total energy in the final basis set = -1510.27359518
   10   -1510.2736058417      5.58E-09 Convergence criterion met
 Total energy in the final basis set = -1510.27360584
   10   -1510.2736080466      4.98E-09 Convergence criterion met
 Total energy in the final basis set = -1510.27360805
    9   -1510.2736107494      8.31E-09 Convergence criterion met
 Total energy in the final basis set = -1510.27361075

             Standard Nuclear Orientation (Angstroms)
    I     Atom           X                Y                Z
 ----------------------------------------------------------------
    1      O      -4.3512459401     1.1292623325     2.3173126946
    2      C      -4.6771939136     1.2516924230     1.1174889569
    3      C      -5.0515887445     0.1119102655     0.1033747638
    4      C      -3.9134406777    -0.2285373358    -0.9477020560
    5      C      -2.5269502068     0.4080121422    -0.5580395226
    6      O      -1.4618456685    -0.4541759512    -0.9767634755
    7      C      -0.2114416119     0.3269432440    -1.1523835099
    8      C       0.8932720376    -0.6697607139    -1.6494936434
    9      O       1.9350566610    -0.7406349479    -0.5972064783
   10      C       3.2061970634    -1.0830027058    -1.1622371228
   11      C       4.2571748925    -1.2084222516    -0.0044106618
   12      C       5.0830128014     0.1263949458     0.2732599631
   13      C       4.5611619428     1.3830241211    -0.5126145051
   14      O       4.0779951655     2.4302814789    -0.0318578332
   15      O      -4.9161785491     2.5063509081     0.4647022992
   16      O       4.7401323913     1.1526876685    -1.9137024658
   17      O       3.3946192720    -1.2919057954    -2.3805382467
   18      C       4.2101025486     2.2955198576    -2.6917350464
   19      C       3.6230557317    -1.4688164899     1.4271767141
   20      C       4.7527232654    -2.0549529477     2.3624143286
   21      C       5.6265074543    -0.7719986635     2.6241140543
   22      C       4.8146705059     0.3193327366     1.8223838490
   23      O       3.4029581885    -0.1081100232     1.9673916570
   24      H       4.9497644776    -2.0197022891    -0.2927100350
   25      H       6.1532521044    -0.0208161711     0.0398940240
   26      H       2.6743459977    -2.0383550160     1.4112272260
   27      H       4.3127873037    -2.4398528700     3.2961986971
   28      H       5.3192704555    -2.8664791361     1.8782533740
   29      H       5.6634808529    -0.5179288724     3.6952052419
   30      H       6.6574671648    -0.8770470745     2.2498066366
   31      H       4.9353806079     1.3640501775     2.1687422351
   32      O      -2.3472172409     1.5126505429     0.0008822485
   33      C      -4.5056191209     3.6172404919     1.3514753722
   34      C      -5.2753219020    -1.3058587349     0.7811884391
   35      C      -6.1955255115    -2.1510973485    -0.1832128175
   36      C      -5.1982782815    -2.4316993347    -1.3683413243
   37      C      -3.8597543522    -1.8062952403    -0.8058509685
   38      O      -3.9634509683    -1.9841508076     0.6620183384
   39      H      -5.9626497176     0.4396620084    -0.4289628283
   40      H      -4.1749933428     0.1057482894    -1.9690234383
   41      H      -3.4122978605     3.5943279074     1.5374975864
   42      H      -5.5930693833    -1.2611738863     1.8409349362
   43      H      -6.5078873842    -3.0863880848     0.3082366378
   44      H      -7.0942611972    -1.5987281978    -0.5002188078
   45      H      -5.0756858476    -3.5109473717    -1.5510029921
   46      H      -5.5111951029    -1.9487557056    -2.3078376866
   47      H      -2.9236855745    -2.2564843491    -1.1877334417
   48      H      -5.0326298310     3.5799724477     2.3267800568
   49      H      -4.7709478690     4.5496377157     0.8200682230
   50      H       4.3206661323     2.0160104798    -3.7555869259
   51      H       4.7791169398     3.2265358685    -2.4912539994
   52      H       3.1405639233     2.4819493250    -2.4648892199
   53      H       0.4375987703    -1.6733216751    -1.8041748346
   54      H       1.3469088210    -0.3444064112    -2.6098610807
   55      H       0.1137885303     0.7866798028    -0.1922750488
   56      H      -0.3729988826     1.1431269551    -1.8891262571
 ----------------------------------------------------------------

    9   -1510.2736104272      3.06E-09 Convergence criterion met
 Total energy in the final basis set = -1510.27361043
 Final energy is   -1510.27361042717
 **  OPTIMIZATION CONVERGED  **

                    Orbital Energies (a.u.)
 --------------------------------------------------------------

 Alpha MOs
 -- Occupied --
-18.936 -18.936 -18.935 -18.919 -18.884 -18.884 -18.883 -18.877
-18.876 -18.861 -10.104 -10.100 -10.099 -10.089 -10.077 -10.075
-10.066 -10.057 -10.056 -10.056 -10.055 -10.052 -10.039 -10.039
-10.037 -10.031 -10.019 -10.019 -10.018 -10.017  -1.018  -1.015
 -1.010  -0.997  -0.967  -0.967  -0.943  -0.938  -0.935  -0.923
 -0.763  -0.760  -0.728  -0.721  -0.714  -0.703  -0.694  -0.664
 -0.652  -0.613  -0.596  -0.579  -0.545  -0.543  -0.536  -0.535
 -0.516  -0.511  -0.484  -0.481  -0.466  -0.453  -0.451  -0.444
 -0.431  -0.429  -0.420  -0.415  -0.408  -0.406  -0.404  -0.399
 -0.397  -0.385  -0.374  -0.368  -0.361  -0.354  -0.351  -0.346
 -0.343  -0.341  -0.333  -0.331  -0.329  -0.327  -0.321  -0.310
 -0.306  -0.306  -0.304  -0.295  -0.294  -0.284  -0.278  -0.276
 -0.273  -0.255  -0.254  -0.250  -0.243  -0.231  -0.231  -0.183
 -0.180  -0.174  -0.165  -0.157  -0.156  -0.151  -0.142  -0.141
 -0.140

          Ground-State Mulliken Net Atomic Charges

     Atom                 Charge (a.u.)
  ----------------------------------------
      1 O                    -0.215574
      2 C                     0.212689
      3 C                    -0.081695
      4 C                    -0.076317
      5 C                     0.214626
      6 O                    -0.173933
      7 C                    -0.047704
      8 C                    -0.050305
      9 O                    -0.169781
     10 C                     0.207528
     11 C                    -0.078833
     12 C                    -0.077681
     13 C                     0.206827
     14 O                    -0.209947
     15 O                    -0.172509
     16 O                    -0.168516
     17 O                    -0.211265
     18 C                    -0.127970
     19 C                     0.025432
     20 C                    -0.143764
     21 C                    -0.144680
     22 C                     0.024251
     23 O                    -0.186653
     24 H                     0.085018
     25 H                     0.085745
     26 H                     0.088762
     27 H                     0.078539
     28 H                     0.072708
     29 H                     0.078474
     30 H                     0.072576
     31 H                     0.089474
     32 O                    -0.205083
     33 C                    -0.128023
     34 C                     0.023877
     35 C                    -0.142832
     36 C                    -0.145273
     37 C                     0.022678
     38 O                    -0.190199
     39 H                     0.083219
     40 H                     0.085412
     41 H                     0.093338
     42 H                     0.088531
     43 H                     0.077665
     44 H                     0.072922
     45 H                     0.077402
     46 H                     0.072151
     47 H                     0.089832
     48 H                     0.086786
     49 H                     0.086235
     50 H                     0.092704
     51 H                     0.088679
     52 H                     0.087477
     53 H                     0.091763
     54 H                     0.095657
     55 H                     0.104945
     56 H                     0.084615
  ----------------------------------------
  Sum of atomic charges =     0.000000

                    Cartesian Multipole Moments
 -----------------------------------------------------------------
    Charge (ESU x 10^10)
                 0.0000
    Dipole Moment (Debye)
         X       0.3810      Y      -0.5492      Z      -2.6562
       Tot       2.7390
    Quadrupole Moments (Debye-Ang)
        XX    -138.1438     XY      -0.9936     YY    -156.7938
        XZ      11.5173     YZ      -4.7558     ZZ    -161.5802

 Total job time:  71.87s(wall), 3414.58s(cpu)
        *  Thank you very much for using Q-Chem.  Have a nice day.  *
