 Q-Chem 5.0, Q-Chem, Inc., Pleasanton, CA (2017)
 Q-Chem 5.0.1 for Intel X86 EM64T Linux

User input:
--------------------------------------------------------------
$molecule
0  1
O -3.5438526267 0.8176351257 1.9177832907
C -4.4417938612 0.7497108152 1.0514022546
C -4.7314975671 -0.4323660927 0.0602965331
C -3.6392615789 -0.582432186 -1.0843532227
C -2.5387984831 0.5376664546 -1.0281535977
O -1.262116763 -0.0212126763 -1.3402807226
C -0.2158803466 1.0304287096 -1.2971671306
C 1.0230613646 0.5039756086 -2.0963124257
O 1.9741987406 -0.0739584881 -1.1189245279
C 3.321259334 0.0449395407 -1.5976636586
C 4.283534467 -0.6009934986 -0.5398974663
C 4.7274798748 0.3607238141 0.6449814684
C 3.9088942405 1.6982928355 0.774277588
O 3.539636257 2.2456453394 1.8348662149
O -5.4188739566 1.7726487232 0.8204371074
O 3.6529203176 2.2342142358 -0.5269756545
O 3.6299877348 0.4800932996 -2.7285583248
C 2.8124883506 3.4489662681 -0.4315363245
C 3.6530561689 -1.8100850908 0.2801862337
C 4.8447298735 -2.6896475705 0.8279910099
C 5.4101983572 -1.7546599633 1.9610627682
C 4.3939828126 -0.5469466794 1.9002281511
O 3.1120772982 -1.1759715768 1.5031881496
H 5.1778662846 -0.9321622221 -1.0974464889
H 5.8026648545 0.6097107006 0.5747892437
H 2.8570162743 -2.3641023087 -0.253390504
H 4.4620078347 -3.6369027144 1.2404452546
H 5.5899143913 -2.9172821299 0.0493903597
H 5.3726973701 -2.2430839233 2.9475707597
H 6.4454443342 -1.4319427962 1.7658034562
H 4.2681746293 0.0288307886 2.8379725455
O -2.7278199832 1.7468616774 -0.7656940527
C -5.1342196816 2.9405424501 1.684772005
C -4.5895102232 -1.8423579806 0.7801732905
C -5.2485820827 -2.9422567822 -0.1424995748
C -4.1587364246 -3.0884867595 -1.2684278473
C -3.0817662692 -2.0373202867 -0.7875354862
O -3.140304809 -2.1306854184 0.6888445814
H -5.7383100971 -0.2846711154 -0.3676023006
H -4.1153121069 -0.534142131 -2.0817624677
H -4.1341840177 3.3675792259 1.4665385902
H -4.918466173 -1.8522571967 1.8373377856
H -5.3830521624 -3.8827963074 0.4151323256
H -6.2267167406 -2.6221761864 -0.5357997878
H -3.726954769 -4.1018240555 -1.2839027545
H -4.5489553307 -2.8543429631 -2.2717635608
H -2.0489891968 -2.2035501291 -1.1482314693
H -5.1771104966 2.6743250847 2.7608588005
H -5.9154832966 3.6886589807 1.4566571071
H 2.6399358107 3.7804068962 -1.4720117805
H 3.3225152306 4.2536919029 0.1360210733
H 1.8406778871 3.2331973506 0.0577477563
H 0.6944629424 -0.2712576319 -2.8240638872
H 1.5173705841 1.3223388216 -2.6629043522
H 0.079932442 1.2370174311 -0.2447710824
H -0.6091698213 1.9721730247 -1.7377537526
$end

$rem
JOBTYPE                   OPT
METHOD                    B3LYP
DFT_D                     d3_op
BASIS                     STO-3G
GEOM_OPT_MAX_CYCLES       100
GEOM_OPT_TOL_GRADIENT     300
GEOM_OPT_TOL_DISPLACEMENT 1200
GEOM_OPT_TOL_ENERGY       100
SYMMETRY                  False
THRESH                    12
SCF_CONVERGENCE           8
MAX_SUB_FILE_NUM          128
MEM_STATIC                400
MEM_TOTAL                 4000
$end
--------------------------------------------------------------

   16   -1510.2795160654      5.69E-09 Convergence criterion met
 Total energy in the final basis set = -1510.27951607
   14   -1510.2794447962      2.75E-09 Convergence criterion met
 Total energy in the final basis set = -1510.27944480
   13   -1510.2808430825      3.47E-09 Convergence criterion met
 Total energy in the final basis set = -1510.28084308
   13   -1510.2818344491      6.16E-09 Convergence criterion met
 Total energy in the final basis set = -1510.28183445
   13   -1510.2827863663      3.77E-09 Convergence criterion met
 Total energy in the final basis set = -1510.28278637
   13   -1510.2836493376      4.77E-09 Convergence criterion met
 Total energy in the final basis set = -1510.28364934
   13   -1510.2846791839      7.70E-09 Convergence criterion met
 Total energy in the final basis set = -1510.28467918
   14   -1510.2856059617      1.69E-09 Convergence criterion met
   11   -1510.3021376024      7.46E-09 Convergence criterion met
 Total energy in the final basis set = -1510.30213760
   11   -1510.3021502547      4.70E-09 Convergence criterion met
 Total energy in the final basis set = -1510.30215025
   10   -1510.3021605085      7.57E-09 Convergence criterion met
 Total energy in the final basis set = -1510.30216051
   11   -1510.3021753704      5.01E-09 Convergence criterion met
 Total energy in the final basis set = -1510.30217537
   11   -1510.3021865093      4.13E-09 Convergence criterion met
 Total energy in the final basis set = -1510.30218651
    9   -1510.3021890553      8.75E-09 Convergence criterion met
 Total energy in the final basis set = -1510.30218906

             Standard Nuclear Orientation (Angstroms)
    I     Atom           X                Y                Z
 ----------------------------------------------------------------
    1      O      -2.4390933712     1.5152093675     2.3177129576
    2      C      -3.0547048216     1.2095292307     1.2760335433
    3      C      -3.2215711232    -0.2241074370     0.6474044376
    4      C      -2.3535038061    -0.4706884366    -0.6547618568
    5      C      -1.5332585520     0.7750532566    -1.1108025252
    6      O      -1.0965724679     0.5546050011    -2.4531813092
    7      C      -0.1676399609     1.6278442961    -2.8871384898
    8      C       1.2681107098     1.0257570116    -3.0371884423
    9      O       1.5918798953     0.2694560093    -1.8047499477
   10      C       2.9811288301     0.4408911501    -1.4687537633
   11      C       3.3415566358    -0.5471818025    -0.3066472010
   12      C       2.4996155661    -0.3474448314     1.0216717383
   13      C       1.5354910171     0.8884860800     1.0191267571
   14      O       0.3933740300     0.9484031926     1.5188988848
   15      O      -3.8536929775     2.1224053707     0.5046543933
   16      O       2.1954246754     1.9851150453     0.3740715828
   17      O       3.7626083776     1.1922472246    -2.0919003972
   18      C       1.2844796354     3.1538565452     0.3129237085
   19      C       2.9269997537    -2.0358530567    -0.6839605270
   20      C       3.5968391364    -3.0302865621     0.3472547454
   21      C       2.6786849743    -2.8305676791     1.6128954355
   22      C       1.6953653347    -1.7119389469     1.1004894579
   23      O       1.4946247430    -2.0800381684    -0.3226971913
   24      H       4.4250645044    -0.4536231635    -0.1170797242
   25      H       3.1788569435    -0.2412440963     1.8879686731
   26      H       3.0693942949    -2.2975955702    -1.7505796732
   27      H       3.5489731955    -4.0642367444    -0.0301179448
   28      H       4.6508263649    -2.7749038544     0.5419059769
   29      H       2.1239346893    -3.7510981338     1.8552575485
   30      H       3.2444166852    -2.5139744444     2.5034217787
   31      H       0.7018177083    -1.6256020433     1.5963831810
   32      O      -1.2921731227     1.8105667827    -0.4460711708
   33      C      -3.6663611274     3.4968121935     1.0170323395
   34      C      -2.6386343785    -1.3349609168     1.6140971677
   35      C      -3.1503871742    -2.7489201340     1.1279875505
   36      C      -2.2474121585    -2.9803619030    -0.1425272591
   37      C      -1.3980279446    -1.6504157096    -0.1657017703
   38      O      -1.2002581970    -1.3543545008     1.2691574299
   39      H      -4.2935917857    -0.3831319061     0.4319245243
   40      H      -2.9751637834    -0.8003517936    -1.5062284257
   41      H      -2.6140683868     3.8275102596     0.8981485541
   42      H      -2.7738584193    -1.1143862869     2.6904779780
   43      H      -2.9660350895    -3.5132589482     1.8994610642
   44      H      -4.2258002332    -2.7400681912     0.8890305947
   45      H      -1.5847521319    -3.8507875490    -0.0122584954
   46      H      -2.8348059163    -3.1189535867    -1.0642530122
   47      H      -0.4048016226    -1.7165571988    -0.6655993944
   48      H      -3.9415417090     3.5775472821     2.0886436067
   49      H      -4.3291564029     4.1446524443     0.4141224148
   50      H       1.7086598636     3.8353585262    -0.4470701801
   51      H       1.2448631722     3.6744281024     1.2913446375
   52      H       0.2566164689     2.8314272506     0.0306532734
   53      H       1.2940144213     0.3281527795    -3.9027450341
   54      H       2.0278991292     1.8218346314    -3.1990494929
   55      H      -0.1846562714     2.4454576023    -2.1375856919
   56      H      -0.5197383254     2.0099477118    -3.8680947228
 ----------------------------------------------------------------

    9   -1510.3021895277      5.61E-09 Convergence criterion met
 Total energy in the final basis set = -1510.30218953
 Final energy is   -1510.30218952771
 **  OPTIMIZATION CONVERGED  **

                    Orbital Energies (a.u.)
 --------------------------------------------------------------

 Alpha MOs
 -- Occupied --
-18.940 -18.924 -18.922 -18.913 -18.887 -18.885 -18.883 -18.868
-18.867 -18.858 -10.107 -10.095 -10.086 -10.084 -10.074 -10.069
-10.059 -10.052 -10.050 -10.045 -10.042 -10.041 -10.034 -10.033
-10.029 -10.028 -10.017 -10.014 -10.014 -10.012  -1.020  -1.006
 -0.997  -0.992  -0.968  -0.963  -0.944  -0.929  -0.924  -0.918
 -0.758  -0.757  -0.725  -0.716  -0.708  -0.700  -0.690  -0.650
 -0.648  -0.613  -0.593  -0.575  -0.541  -0.537  -0.534  -0.528
 -0.509  -0.501  -0.480  -0.477  -0.462  -0.450  -0.447  -0.433
 -0.429  -0.427  -0.421  -0.411  -0.406  -0.403  -0.398  -0.396
 -0.393  -0.373  -0.366  -0.363  -0.356  -0.350  -0.345  -0.343
 -0.338  -0.337  -0.331  -0.327  -0.323  -0.318  -0.316  -0.308
 -0.305  -0.301  -0.296  -0.292  -0.289  -0.282  -0.271  -0.268
 -0.265  -0.252  -0.243  -0.240  -0.237  -0.235  -0.217  -0.185
 -0.169  -0.164  -0.160  -0.158  -0.151  -0.143  -0.141  -0.136
 -0.134

          Ground-State Mulliken Net Atomic Charges

     Atom                 Charge (a.u.)
  ----------------------------------------
      1 O                    -0.207886
      2 C                     0.216681
      3 C                    -0.079460
      4 C                    -0.077479
      5 C                     0.225722
      6 O                    -0.167658
      7 C                    -0.053809
      8 C                    -0.053585
      9 O                    -0.176599
     10 C                     0.215869
     11 C                    -0.078569
     12 C                    -0.079718
     13 C                     0.209724
     14 O                    -0.195866
     15 O                    -0.178230
     16 O                    -0.175900
     17 O                    -0.218111
     18 C                    -0.143849
     19 C                     0.027152
     20 C                    -0.144275
     21 C                    -0.143991
     22 C                     0.013467
     23 O                    -0.194603
     24 H                     0.084778
     25 H                     0.083750
     26 H                     0.080392
     27 H                     0.076221
     28 H                     0.073196
     29 H                     0.076431
     30 H                     0.073018
     31 H                     0.114916
     32 O                    -0.209529
     33 C                    -0.128353
     34 C                     0.027750
     35 C                    -0.145155
     36 C                    -0.144023
     37 C                     0.016630
     38 O                    -0.188442
     39 H                     0.082364
     40 H                     0.086514
     41 H                     0.089919
     42 H                     0.088596
     43 H                     0.075804
     44 H                     0.071792
     45 H                     0.077426
     46 H                     0.071853
     47 H                     0.111404
     48 H                     0.085994
     49 H                     0.084372
     50 H                     0.080706
     51 H                     0.081794
     52 H                     0.111139
     53 H                     0.082374
     54 H                     0.100236
     55 H                     0.099415
     56 H                     0.087693
  ----------------------------------------
  Sum of atomic charges =     0.000000

                    Cartesian Multipole Moments
 -----------------------------------------------------------------
    Charge (ESU x 10^10)
                -0.0000
    Dipole Moment (Debye)
         X      -0.5618      Y      -1.0340      Z      -1.5037
       Tot       1.9094
    Quadrupole Moments (Debye-Ang)
        XX    -154.7390     XY      -4.4394     YY    -150.2578
        XZ       4.9394     YZ      -3.9849     ZZ    -158.2052

 Total job time:  154.80s(wall), 7355.78s(cpu)
        *  Thank you very much for using Q-Chem.  Have a nice day.  *
