 Q-Chem 5.0, Q-Chem, Inc., Pleasanton, CA (2017)
 Q-Chem 5.0.1 for Intel X86 EM64T Linux

User input:
--------------------------------------------------------------
$molecule
0  1
O -3.94934 -3.66094 2.70899
C -3.26408 -4.56952 2.26188
C -3.36658 -6.02376 2.66595
C -2.86427 -6.40011 4.06948
C -2.48026 -5.25351 4.97828
O -2.87524 -5.5231 6.25763
C -2.53922 -4.48277 7.18178
C -2.56916 -5.01817 8.60957
O -3.83545 -4.71927 9.21789
C -3.81226 -4.55948 10.56439
C -5.17539 -4.26922 11.146
C -5.58654 -2.78976 11.12485
C -4.76349 -1.88799 10.22702
O -5.20558 -0.9824 9.53491
O -2.40909 -4.29567 1.24118
O -3.42004 -1.90289 10.44174
O -2.87068 -4.90585 11.26789
C -2.51043 -1.10614 9.77806
C -6.36524 -4.90971 10.40178
C -7.54772 -5.05987 11.3569
C -7.95244 -3.61035 11.53623
C -7.00509 -2.93267 10.53825
O -6.81823 -3.90017 9.53216
H -5.16004 -4.65465 12.19168
H -5.55683 -2.33763 12.1406
H -6.11862 -5.88883 9.93606
H -8.35131 -5.58615 10.7931
H -7.34038 -5.61382 12.29763
H -9.01266 -3.50126 11.21686
H -7.81787 -3.20249 12.56155
H -7.43234 -1.96068 10.20818
O -1.66402 -4.39329 4.66785
C -2.21038 -3.03886 0.7091
C -4.81973 -6.52388 2.71562
C -4.85482 -8.03423 2.50293
C -4.2618 -8.51359 3.80975
C -4.11515 -7.18164 4.55841
O -5.17851 -6.4003 4.07035
H -2.79999 -6.60154 1.89924
H -1.96268 -7.04962 4.01113
H -1.829 -2.34848 1.49166
H -5.48428 -6.01549 1.9828
H -5.92717 -8.33309 2.46784
H -4.3427 -8.39917 1.58671
H -5.0096 -9.16731 4.31182
H -3.28966 -9.04573 3.72469
H -4.12527 -7.39328 5.6484
H -3.16146 -2.64493 0.29118
H -1.46144 -3.10335 -0.10664
H -1.49 -1.33474 10.14793
H -2.7283 -0.03339 9.96719
H -2.54907 -1.31262 8.68698
H -2.26978 -6.08463 8.70398
H -1.79606 -4.40869 9.139
H -3.1185 -3.54415 7.03608
H -1.46008 -4.24046 7.02619
$end

$opt
CONSTRAINT
tors           1           2           3           4     -71.242
tors           3           4           5           6    +141.347
tors           4           5           6           7    +179.696
tors           5           6           7           8    -161.053
tors           6           7           8           9     -96.525
tors           7           8           9          10    -150.847
tors           8           9          10          11    -179.090
tors           9          10          11          12     -85.263
tors          11          12          13          14    +140.460
ENDCONSTRAINT
$end

$rem
JOBTYPE                   OPT
METHOD                    B3LYP
DFT_D                     d3_op
BASIS                     STO-3G
GEOM_OPT_MAX_CYCLES       100
GEOM_OPT_TOL_GRADIENT     300
GEOM_OPT_TOL_DISPLACEMENT 1200
GEOM_OPT_TOL_ENERGY       100
SYMMETRY                  False
THRESH                    12
SCF_CONVERGENCE           8
MAX_SUB_FILE_NUM          128
MEM_STATIC                400
MEM_TOTAL                 4000
$end
--------------------------------------------------------------

   15   -1510.1446864152      8.96E-09 Convergence criterion met
 Total energy in the final basis set = -1510.14468642
   13   -1510.2139694438      9.35E-09 Convergence criterion met
 Total energy in the final basis set = -1510.21396944
   14   -1510.2514053564      2.14E-09 Convergence criterion met
 Total energy in the final basis set = -1510.25140536
   14   -1510.2685067456      2.54E-09 Convergence criterion met
 Total energy in the final basis set = -1510.26850675
   13   -1510.2749999816      7.40E-09 Convergence criterion met
 Total energy in the final basis set = -1510.27499998
    2   -1510.2749999815      5.45E-09 Convergence criterion met
 Total energy in the final basis set = -1510.27499998
   13   -1510.2775955700      3.60E-09 Convergence criterion met
 Total energy in the final basis set = -1510.27759557
   13   -1510.2784115283      3.13E-09 Convergence criterion met
   11   -1510.2794390203      9.40E-09 Convergence criterion met
 Total energy in the final basis set = -1510.27943902
   11   -1510.2794669463      5.88E-09 Convergence criterion met
 Total energy in the final basis set = -1510.27946695
    9   -1510.2794759956      8.70E-09 Convergence criterion met
 Total energy in the final basis set = -1510.27947600
   10   -1510.2794861066      8.32E-09 Convergence criterion met
 Total energy in the final basis set = -1510.27948611
   10   -1510.2794911836      9.30E-09 Convergence criterion met
 Total energy in the final basis set = -1510.27949118
    9   -1510.2794947018      7.17E-09 Convergence criterion met
 Total energy in the final basis set = -1510.27949470

             Standard Nuclear Orientation (Angstroms)
    I     Atom           X                Y                Z
 ----------------------------------------------------------------
    1      O      -3.5438526267     0.8176351257     1.9177832907
    2      C      -4.4417938612     0.7497108152     1.0514022546
    3      C      -4.7314975671    -0.4323660927     0.0602965331
    4      C      -3.6392615789    -0.5824321860    -1.0843532227
    5      C      -2.5387984831     0.5376664546    -1.0281535977
    6      O      -1.2621167630    -0.0212126763    -1.3402807226
    7      C      -0.2158803466     1.0304287096    -1.2971671306
    8      C       1.0230613646     0.5039756086    -2.0963124257
    9      O       1.9741987406    -0.0739584881    -1.1189245279
   10      C       3.3212593340     0.0449395407    -1.5976636586
   11      C       4.2835344670    -0.6009934986    -0.5398974663
   12      C       4.7274798748     0.3607238141     0.6449814684
   13      C       3.9088942405     1.6982928355     0.7742775880
   14      O       3.5396362570     2.2456453394     1.8348662149
   15      O      -5.4188739566     1.7726487232     0.8204371074
   16      O       3.6529203176     2.2342142358    -0.5269756545
   17      O       3.6299877348     0.4800932996    -2.7285583248
   18      C       2.8124883506     3.4489662681    -0.4315363245
   19      C       3.6530561689    -1.8100850908     0.2801862337
   20      C       4.8447298735    -2.6896475705     0.8279910099
   21      C       5.4101983572    -1.7546599633     1.9610627682
   22      C       4.3939828126    -0.5469466794     1.9002281511
   23      O       3.1120772982    -1.1759715768     1.5031881496
   24      H       5.1778662846    -0.9321622221    -1.0974464889
   25      H       5.8026648545     0.6097107006     0.5747892437
   26      H       2.8570162743    -2.3641023087    -0.2533905040
   27      H       4.4620078347    -3.6369027144     1.2404452546
   28      H       5.5899143913    -2.9172821299     0.0493903597
   29      H       5.3726973701    -2.2430839233     2.9475707597
   30      H       6.4454443342    -1.4319427962     1.7658034562
   31      H       4.2681746293     0.0288307886     2.8379725455
   32      O      -2.7278199832     1.7468616774    -0.7656940527
   33      C      -5.1342196816     2.9405424501     1.6847720050
   34      C      -4.5895102232    -1.8423579806     0.7801732905
   35      C      -5.2485820827    -2.9422567822    -0.1424995748
   36      C      -4.1587364246    -3.0884867595    -1.2684278473
   37      C      -3.0817662692    -2.0373202867    -0.7875354862
   38      O      -3.1403048090    -2.1306854184     0.6888445814
   39      H      -5.7383100971    -0.2846711154    -0.3676023006
   40      H      -4.1153121069    -0.5341421310    -2.0817624677
   41      H      -4.1341840177     3.3675792259     1.4665385902
   42      H      -4.9184661730    -1.8522571967     1.8373377856
   43      H      -5.3830521624    -3.8827963074     0.4151323256
   44      H      -6.2267167406    -2.6221761864    -0.5357997878
   45      H      -3.7269547690    -4.1018240555    -1.2839027545
   46      H      -4.5489553307    -2.8543429631    -2.2717635608
   47      H      -2.0489891968    -2.2035501291    -1.1482314693
   48      H      -5.1771104966     2.6743250847     2.7608588005
   49      H      -5.9154832966     3.6886589807     1.4566571071
   50      H       2.6399358107     3.7804068962    -1.4720117805
   51      H       3.3225152306     4.2536919029     0.1360210733
   52      H       1.8406778871     3.2331973506     0.0577477563
   53      H       0.6944629424    -0.2712576319    -2.8240638872
   54      H       1.5173705841     1.3223388216    -2.6629043522
   55      H       0.0799324420     1.2370174311    -0.2447710824
   56      H      -0.6091698213     1.9721730247    -1.7377537526
 ----------------------------------------------------------------

    9   -1510.2794950519      4.77E-09 Convergence criterion met
 Total energy in the final basis set = -1510.27949505
 Final energy is   -1510.27949505193
 **  OPTIMIZATION CONVERGED  **

                    Orbital Energies (a.u.)
 --------------------------------------------------------------

 Alpha MOs
 -- Occupied --
-18.943 -18.938 -18.926 -18.924 -18.884 -18.884 -18.880 -18.876
-18.866 -18.862 -10.103 -10.102 -10.097 -10.089 -10.075 -10.072
-10.070 -10.057 -10.056 -10.056 -10.055 -10.055 -10.039 -10.037
-10.034 -10.032 -10.018 -10.018 -10.017 -10.017  -1.018  -1.016
 -1.004  -0.999  -0.967  -0.966  -0.941  -0.940  -0.930  -0.925
 -0.762  -0.760  -0.727  -0.720  -0.714  -0.703  -0.693  -0.667
 -0.655  -0.612  -0.596  -0.578  -0.544  -0.542  -0.535  -0.535
 -0.514  -0.512  -0.486  -0.479  -0.467  -0.455  -0.448  -0.442
 -0.431  -0.430  -0.419  -0.416  -0.411  -0.406  -0.403  -0.401
 -0.393  -0.388  -0.379  -0.365  -0.358  -0.353  -0.352  -0.348
 -0.341  -0.337  -0.332  -0.328  -0.327  -0.326  -0.318  -0.309
 -0.308  -0.304  -0.302  -0.296  -0.294  -0.289  -0.280  -0.276
 -0.271  -0.255  -0.249  -0.247  -0.245  -0.231  -0.230  -0.182
 -0.180  -0.171  -0.166  -0.158  -0.157  -0.148  -0.141  -0.140
 -0.140

          Ground-State Mulliken Net Atomic Charges

     Atom                 Charge (a.u.)
  ----------------------------------------
      1 O                    -0.214229
      2 C                     0.210132
      3 C                    -0.080073
      4 C                    -0.077955
      5 C                     0.212244
      6 O                    -0.169895
      7 C                    -0.047869
      8 C                    -0.049652
      9 O                    -0.173950
     10 C                     0.215154
     11 C                    -0.080882
     12 C                    -0.077505
     13 C                     0.213334
     14 O                    -0.208904
     15 O                    -0.170078
     16 O                    -0.168391
     17 O                    -0.219219
     18 C                    -0.127468
     19 C                     0.026032
     20 C                    -0.143418
     21 C                    -0.144912
     22 C                     0.023861
     23 O                    -0.187106
     24 H                     0.083383
     25 H                     0.085710
     26 H                     0.087003
     27 H                     0.078143
     28 H                     0.072801
     29 H                     0.078614
     30 H                     0.072647
     31 H                     0.090803
     32 O                    -0.215450
     33 C                    -0.128202
     34 C                     0.025736
     35 C                    -0.144215
     36 C                    -0.144180
     37 C                     0.023288
     38 O                    -0.186398
     39 H                     0.084675
     40 H                     0.083941
     41 H                     0.092412
     42 H                     0.084126
     43 H                     0.077585
     44 H                     0.072990
     45 H                     0.077610
     46 H                     0.071962
     47 H                     0.092614
     48 H                     0.086810
     49 H                     0.087640
     50 H                     0.092168
     51 H                     0.092070
     52 H                     0.090640
     53 H                     0.088905
     54 H                     0.095567
     55 H                     0.097115
     56 H                     0.092234
  ----------------------------------------
  Sum of atomic charges =     0.000000

                    Cartesian Multipole Moments
 -----------------------------------------------------------------
    Charge (ESU x 10^10)
                 0.0000
    Dipole Moment (Debye)
         X      -0.1487      Y      -0.3984      Z      -1.9419
       Tot       1.9879
    Quadrupole Moments (Debye-Ang)
        XX    -139.6967     XY      -0.2627     YY    -151.0595
        XZ       6.5811     YZ       1.6963     ZZ    -165.2029

 Total job time:  52.23s(wall), 2483.80s(cpu)
        *  Thank you very much for using Q-Chem.  Have a nice day.  *
