 Q-Chem 5.0, Q-Chem, Inc., Pleasanton, CA (2017)
 Q-Chem 5.0.1 for Intel X86 EM64T Linux

User input:
--------------------------------------------------------------
$molecule
0  1
O -4.2821439163 1.4530537901 1.5185634597
C -4.7633361045 1.1312307234 0.4111983907
C -4.9700504012 -0.3139732175 -0.1639282869
C -3.6141500322 -1.0368482384 -0.5637659727
C -2.3492048385 -0.1271484643 -0.3751629979
O -1.2434459748 -0.9155408435 0.0761292975
C 0.0255252322 -0.1652856297 -0.0897271473
C 0.9620181685 -0.9463276575 -1.0849733239
O 2.3667560679 -0.811378392 -0.6377089285
C 3.1394027006 -0.0566380329 -1.5832052552
C 4.6078686956 0.0160069837 -1.0449999871
C 4.7621610676 0.9659295474 0.2216928002
C 3.4059291838 1.5948286838 0.6992262992
O 2.850497475 1.4686497379 1.8111327132
O -5.2529900896 2.0667796234 -0.5579929551
O 2.8868967454 2.3736947817 -0.3866186142
O 2.6958551653 0.3877479361 -2.6642313555
C 1.6252069256 3.0473429852 -0.0025859059
C 5.1055008426 -1.3652626855 -0.4354825287
C 6.6777873565 -1.3081589829 -0.2966800385
C 6.8399066496 -0.3527498013 0.9445147632
C 5.330009162 -0.0502325909 1.2947348455
O 4.6335645234 -1.316075202 0.9661798302
H 5.251159219 0.3578298894 -1.8747525504
H 5.4705088329 1.7873105567 0.0087555675
H 4.7083712186 -2.2627200544 -0.9477716524
H 7.0780750855 -2.3127361018 -0.0862614525
H 7.1647204363 -0.9175092859 -1.2044567995
H 7.3380821926 -0.8618960982 1.7847822784
H 7.400735399 0.5645824054 0.7039328729
H 5.1227957446 0.2414859916 2.3425815089
O -2.2782145919 1.0960224755 -0.6346261369
C -5.0112994084 3.4493229104 -0.086432419
C -5.512736161 -1.3120189 0.947529276
C -6.0515938565 -2.6115109851 0.227932596
C -4.7038431038 -3.3253387681 -0.1607353011
C -3.6432203068 -2.298226726 0.3991104713
O -4.2817704275 -1.7739046592 1.6279519493
H -5.6548360934 -0.2467107972 -1.0270600725
H -3.6341795088 -1.3442653909 -1.6265179505
H -3.9260945145 3.6541148193 0.0174572702
H -6.2070803253 -0.8519044072 1.6767969862
H -6.6451694578 -3.2216305736 0.927235325
H -6.6747467064 -2.3708889113 -0.6481875191
H -4.6006923422 -4.2974764931 0.3472338211
H -4.6008211524 -3.4817361982 -1.2464718999
H -2.6418376514 -2.7123241059 0.6240840486
H -5.501581882 3.6405810283 0.889971227
H -5.442235671 4.1160046588 -0.8558066768
H 0.8761115828 2.8598777617 -0.7956748892
H 1.8015013976 4.1386196208 0.0792651132
H 1.2665462412 2.6559262304 0.9705896535
H 0.7005107136 -2.0254823067 -1.0567251705
H 0.8693346637 -0.5601089066 -2.1227876265
H 0.5266227965 -0.1013857588 0.9002658891
H -0.2129934124 0.8573634013 -0.4487870666
$end

$rem
JOBTYPE                   OPT
METHOD                    B3LYP
DFT_D                     d3_op
BASIS                     STO-3G
GEOM_OPT_MAX_CYCLES       100
GEOM_OPT_TOL_GRADIENT     300
GEOM_OPT_TOL_DISPLACEMENT 1200
GEOM_OPT_TOL_ENERGY       100
SYMMETRY                  False
THRESH                    12
SCF_CONVERGENCE           8
MAX_SUB_FILE_NUM          128
MEM_STATIC                400
MEM_TOTAL                 4000
$end
--------------------------------------------------------------

   16   -1510.2821951209      7.42E-09 Convergence criterion met
 Total energy in the final basis set = -1510.28219512
   14   -1510.2818042251      3.25E-09 Convergence criterion met
 Total energy in the final basis set = -1510.28180423
   14   -1510.2838960817      2.24E-09 Convergence criterion met
 Total energy in the final basis set = -1510.28389608
   14   -1510.2845716691      1.61E-09 Convergence criterion met
 Total energy in the final basis set = -1510.28457167
   13   -1510.2853907881      4.65E-09 Convergence criterion met
 Total energy in the final basis set = -1510.28539079
   13   -1510.2859715952      3.32E-09 Convergence criterion met
 Total energy in the final basis set = -1510.28597160
   13   -1510.2865246174      4.32E-09 Convergence criterion met
 Total energy in the final basis set = -1510.28652462
   13   -1510.2871269933      3.71E-09 Convergence criterion met
   13   -1510.2950264687      2.65E-09 Convergence criterion met
 Total energy in the final basis set = -1510.29502647
   11   -1510.2950800842      8.82E-09 Convergence criterion met
 Total energy in the final basis set = -1510.29508008
   12   -1510.2950853259      4.45E-09 Convergence criterion met
 Total energy in the final basis set = -1510.29508533
   11   -1510.2950836410      8.37E-09 Convergence criterion met
 Total energy in the final basis set = -1510.29508364
   10   -1510.2950877273      7.31E-09 Convergence criterion met
 Total energy in the final basis set = -1510.29508773
    9   -1510.2950892963      6.81E-09 Convergence criterion met
 Total energy in the final basis set = -1510.29508930

             Standard Nuclear Orientation (Angstroms)
    I     Atom           X                Y                Z
 ----------------------------------------------------------------
    1      O      -3.7714598149     2.1881490034     0.5193738722
    2      C      -3.7313165556     1.3260270901    -0.3828758228
    3      C      -4.4852986175    -0.0561002549    -0.4268048449
    4      C      -3.5343907501    -1.3210258442    -0.4083834457
    5      C      -2.0398842997    -0.9397685268    -0.1576295399
    6      O      -1.2132383012    -2.0588652588    -0.4596417346
    7      C       0.2140850438    -1.7464510766    -0.1946109482
    8      C       0.8411575758    -0.8621575157    -1.3305403950
    9      O       2.2274062808    -0.6041282955    -0.8819758357
   10      C       2.8070800000     0.5112667977    -1.5707775707
   11      C       4.2033183262     0.7655172214    -0.9123571220
   12      C       4.1178901963     0.8479550229     0.6712847167
   13      C       2.6519323895     0.7668057549     1.2391449139
   14      O       2.1929032915    -0.0569725296     2.0597207631
   15      O      -3.0729529495     1.4975168006    -1.6479860052
   16      O       1.9232495403     1.8735570460     0.7014693647
   17      O       2.2593893554     1.1235981285    -2.5109906693
   18      C       0.5608806068     1.9407570840     1.2853354857
   19      C       5.1635674715    -0.4941049889    -1.0788043583
   20      C       6.6279850350    -0.0679772379    -0.6606315849
   21      C       6.5043353273    -0.0437746556     0.9090833760
   22      C       4.9809996076    -0.4093773972     1.0958215565
   23      O       4.7319423834    -1.3917823898     0.0141680906
   24      H       4.6358062520     1.6804645799    -1.3530799220
   25      H       4.5710180102     1.7894113123     1.0317256642
   26      H       5.0840439323    -1.0065512609    -2.0574026506
   27      H       7.3581757661    -0.8207408064    -0.9981851011
   28      H       6.9095261145     0.9104570425    -1.0815825458
   29      H       7.1450283203    -0.8093955868     1.3747702482
   30      H       6.7536372344     0.9379523682     1.3422158603
   31      H       4.6973428987    -0.8368495877     2.0771300412
   32      O      -1.6213346156     0.1595585875     0.2765018826
   33      C      -2.2930115695     2.7543608298    -1.6439703554
   34      C      -5.3492395698    -0.3014877821     0.8803635321
   35      C      -6.4300467127    -1.4035602171     0.5558861302
   36      C      -5.5284617267    -2.6915582048     0.4780206863
   37      C      -4.1113893284    -2.1006228514     0.8536026790
   38      O      -4.4167603681    -1.0024293448     1.7965338541
   39      H      -5.1151868024    -0.0673958214    -1.3346639057
   40      H      -3.6053164301    -1.9217725563    -1.3323216785
   41      H      -1.4663045667     2.7106616662    -0.9056302340
   42      H      -5.7254459546     0.6271795501     1.3516560848
   43      H      -7.1637209270    -1.4758786644     1.3745537746
   44      H      -6.9672455334    -1.2002910134    -0.3843318595
   45      H      -5.8375007787    -3.4496192178     1.2151949324
   46      H      -5.5296755103    -3.1512897553    -0.5232933608
   47      H      -3.4031839462    -2.8226889288     1.3048796184
   48      H      -2.9287116672     3.6324738358    -1.4098915078
   49      H      -1.8722269344     2.8597675049    -2.6608945663
   50      H      -0.1252272062     1.1727762619     0.8585810708
   51      H       0.1782281463     2.9479424970     1.0379368467
   52      H       0.5914239777     1.8196703316     2.3861981602
   53      H       0.8283297692    -1.4007947991    -2.3032251953
   54      H       0.2777424004     0.0883689349    -1.4486246283
   55      H       0.7293966923    -2.7264918476    -0.1530028855
   56      H       0.3449547001    -1.2262211668     0.7795891492
 ----------------------------------------------------------------

   10   -1510.2950899617      2.57E-09 Convergence criterion met
 Total energy in the final basis set = -1510.29508996
 Final energy is   -1510.29508996174
 **  OPTIMIZATION CONVERGED  **

                    Orbital Energies (a.u.)
 --------------------------------------------------------------

 Alpha MOs
 -- Occupied --
-18.953 -18.935 -18.922 -18.921 -18.896 -18.889 -18.886 -18.878
-18.865 -18.865 -10.117 -10.101 -10.094 -10.093 -10.078 -10.075
-10.065 -10.061 -10.058 -10.056 -10.056 -10.045 -10.040 -10.037
-10.036 -10.033 -10.023 -10.021 -10.020 -10.018  -1.029  -1.015
 -1.001  -1.000  -0.972  -0.969  -0.953  -0.939  -0.927  -0.927
 -0.766  -0.762  -0.731  -0.724  -0.713  -0.705  -0.697  -0.656
 -0.650  -0.620  -0.597  -0.583  -0.547  -0.545  -0.539  -0.536
 -0.518  -0.509  -0.487  -0.477  -0.466  -0.459  -0.456  -0.443
 -0.434  -0.432  -0.429  -0.413  -0.409  -0.405  -0.402  -0.399
 -0.395  -0.379  -0.372  -0.367  -0.360  -0.359  -0.351  -0.349
 -0.344  -0.343  -0.335  -0.334  -0.331  -0.328  -0.325  -0.314
 -0.309  -0.306  -0.304  -0.303  -0.291  -0.290  -0.280  -0.277
 -0.272  -0.262  -0.251  -0.247  -0.243  -0.236  -0.233  -0.193
 -0.178  -0.174  -0.168  -0.162  -0.156  -0.147  -0.145  -0.145
 -0.142

          Ground-State Mulliken Net Atomic Charges

     Atom                 Charge (a.u.)
  ----------------------------------------
      1 O                    -0.214796
      2 C                     0.215875
      3 C                    -0.080792
      4 C                    -0.077242
      5 C                     0.222897
      6 O                    -0.166617
      7 C                    -0.049664
      8 C                    -0.049549
      9 O                    -0.170534
     10 C                     0.213956
     11 C                    -0.078339
     12 C                    -0.078065
     13 C                     0.213260
     14 O                    -0.219862
     15 O                    -0.178726
     16 O                    -0.179103
     17 O                    -0.210368
     18 C                    -0.146343
     19 C                     0.025888
     20 C                    -0.143992
     21 C                    -0.143738
     22 C                     0.024283
     23 O                    -0.186828
     24 H                     0.085676
     25 H                     0.083599
     26 H                     0.081564
     27 H                     0.077696
     28 H                     0.073746
     29 H                     0.077738
     30 H                     0.073261
     31 H                     0.090052
     32 O                    -0.209474
     33 C                    -0.129667
     34 C                     0.024415
     35 C                    -0.143491
     36 C                    -0.143849
     37 C                     0.025369
     38 O                    -0.188447
     39 H                     0.084389
     40 H                     0.088875
     41 H                     0.089309
     42 H                     0.091131
     43 H                     0.078827
     44 H                     0.073727
     45 H                     0.079075
     46 H                     0.074056
     47 H                     0.084952
     48 H                     0.087749
     49 H                     0.088880
     50 H                     0.106654
     51 H                     0.083040
     52 H                     0.085424
     53 H                     0.085963
     54 H                     0.095180
     55 H                     0.098074
     56 H                     0.104905
  ----------------------------------------
  Sum of atomic charges =    -0.000000

                    Cartesian Multipole Moments
 -----------------------------------------------------------------
    Charge (ESU x 10^10)
                -0.0000
    Dipole Moment (Debye)
         X       0.1494      Y      -0.8911      Z      -1.7130
       Tot       1.9367
    Quadrupole Moments (Debye-Ang)
        XX    -137.4166     XY      11.1531     YY    -158.7874
        XZ       6.4583     YZ       2.1378     ZZ    -165.7011

 Total job time:  101.83s(wall), 4847.03s(cpu)
        *  Thank you very much for using Q-Chem.  Have a nice day.  *
