 Q-Chem 5.0, Q-Chem, Inc., Pleasanton, CA (2017)
 Q-Chem 5.0.1 for Intel X86 EM64T Linux

User input:
--------------------------------------------------------------
$molecule
0  1
O -3.94934 -3.66094 2.70899
C -3.26408 -4.56952 2.26188
C -3.36658 -6.02376 2.66595
C -2.86427 -6.40011 4.06948
C -2.48026 -5.25351 4.97828
O -2.82714 -5.54621 6.26646
C -2.20128 -4.68881 7.22688
C -1.31382 -5.50513 8.16078
O -1.3784 -4.96771 9.49116
C -0.22616 -4.42559 9.95762
C -0.35233 -3.89842 11.36717
C -1.1911 -2.61972 11.50739
C -2.05755 -2.26386 10.31603
O -3.27525 -2.15655 10.33205
O -2.40836 -4.29548 1.24184
O -1.39104 -1.88364 9.19366
O 0.85007 -4.47694 9.37518
C -1.98164 -1.25526 8.11575
C -1.07112 -4.83684 12.35341
C -0.62497 -4.51856 13.77896
C -1.28471 -3.16941 13.98724
C -2.08958 -3.05034 12.68635
O -2.40338 -4.38333 12.35626
H 0.68608 -3.714 11.7277
H -0.57241 -1.72413 11.73656
H -0.91679 -5.91428 12.12626
H -1.11885 -5.26286 14.44424
H 0.4717 -4.54183 13.95689
H -1.96015 -3.24311 14.86832
H -0.587 -2.31291 14.11078
H -2.95375 -2.36623 12.83459
O -1.63569 -4.42628 4.65365
C -2.20841 -3.03837 0.71094
C -4.82046 -6.51994 2.71288
C -4.85927 -8.03151 2.50886
C -4.27731 -8.50475 3.82257
C -4.12359 -7.16803 4.56078
O -5.18211 -6.38503 4.06515
H -2.79914 -6.60143 1.89992
H -1.9711 -7.0621 4.02082
H -1.82686 -2.349 1.49432
H -5.48064 -6.01387 1.97448
H -5.93179 -8.32873 2.46703
H -4.34025 -8.40147 1.59853
H -5.03445 -9.14564 4.32729
H -3.31073 -9.04833 3.74741
H -4.13908 -7.37174 5.65213
H -3.15896 -2.6433 0.2929
H -1.45908 -3.10273 -0.10444
H -1.21762 -1.08436 7.32998
H -2.39582 -0.27391 8.43089
H -2.80002 -1.87596 7.69698
H -1.74501 -6.52547 8.25002
H -0.30521 -5.63749 7.71066
H -3.04761 -4.29232 7.82779
H -1.6439 -3.80078 6.85851
$end

$opt
CONSTRAINT
tors           1           2           3           4     -71.242
tors           3           4           5           6    +143.760
tors           4           5           6           7    +164.800
tors           5           6           7           8    -118.278
tors           6           7           8           9    -143.392
tors           7           8           9          10    -113.947
tors           8           9          10          11    -179.090
tors           9          10          11          12     -71.571
tors          11          12          13          14    +119.901
ENDCONSTRAINT
$end

$rem
JOBTYPE                   OPT
METHOD                    B3LYP
DFT_D                     d3_op
BASIS                     STO-3G
GEOM_OPT_MAX_CYCLES       100
GEOM_OPT_TOL_GRADIENT     300
GEOM_OPT_TOL_DISPLACEMENT 1200
GEOM_OPT_TOL_ENERGY       100
SYMMETRY                  False
THRESH                    12
SCF_CONVERGENCE           8
MAX_SUB_FILE_NUM          128
MEM_STATIC                400
MEM_TOTAL                 4000
$end
--------------------------------------------------------------

   15   -1510.1486872353      6.72E-09 Convergence criterion met
 Total energy in the final basis set = -1510.14868724
   13   -1510.2178411464      7.11E-09 Convergence criterion met
 Total energy in the final basis set = -1510.21784115
   14   -1510.2547500783      6.02E-09 Convergence criterion met
 Total energy in the final basis set = -1510.25475008
   14   -1510.2712272419      4.51E-09 Convergence criterion met
 Total energy in the final basis set = -1510.27122724
   13   -1510.2760571998      9.84E-09 Convergence criterion met
 Total energy in the final basis set = -1510.27605720
   13   -1510.2786160441      7.66E-09 Convergence criterion met
 Total energy in the final basis set = -1510.27861604
    2   -1510.2786160440      3.31E-09 Convergence criterion met
 Total energy in the final basis set = -1510.27861604
   13   -1510.2798876598      2.92E-09 Convergence criterion met
   11   -1510.2819962528      6.17E-09 Convergence criterion met
 Total energy in the final basis set = -1510.28199625
   10   -1510.2820218752      9.72E-09 Convergence criterion met
 Total energy in the final basis set = -1510.28202188
   10   -1510.2820512698      6.45E-09 Convergence criterion met
 Total energy in the final basis set = -1510.28205127
   10   -1510.2820765401      7.33E-09 Convergence criterion met
 Total energy in the final basis set = -1510.28207654
    9   -1510.2820862266      7.74E-09 Convergence criterion met
 Total energy in the final basis set = -1510.28208623
    9   -1510.2820895400      5.43E-09 Convergence criterion met
 Total energy in the final basis set = -1510.28208954

             Standard Nuclear Orientation (Angstroms)
    I     Atom           X                Y                Z
 ----------------------------------------------------------------
    1      O      -4.2821439163     1.4530537901     1.5185634597
    2      C      -4.7633361045     1.1312307234     0.4111983907
    3      C      -4.9700504012    -0.3139732175    -0.1639282869
    4      C      -3.6141500322    -1.0368482384    -0.5637659727
    5      C      -2.3492048385    -0.1271484643    -0.3751629979
    6      O      -1.2434459748    -0.9155408435     0.0761292975
    7      C       0.0255252322    -0.1652856297    -0.0897271473
    8      C       0.9620181685    -0.9463276575    -1.0849733239
    9      O       2.3667560679    -0.8113783920    -0.6377089285
   10      C       3.1394027006    -0.0566380329    -1.5832052552
   11      C       4.6078686956     0.0160069837    -1.0449999871
   12      C       4.7621610676     0.9659295474     0.2216928002
   13      C       3.4059291838     1.5948286838     0.6992262992
   14      O       2.8504974750     1.4686497379     1.8111327132
   15      O      -5.2529900896     2.0667796234    -0.5579929551
   16      O       2.8868967454     2.3736947817    -0.3866186142
   17      O       2.6958551653     0.3877479361    -2.6642313555
   18      C       1.6252069256     3.0473429852    -0.0025859059
   19      C       5.1055008426    -1.3652626855    -0.4354825287
   20      C       6.6777873565    -1.3081589829    -0.2966800385
   21      C       6.8399066496    -0.3527498013     0.9445147632
   22      C       5.3300091620    -0.0502325909     1.2947348455
   23      O       4.6335645234    -1.3160752020     0.9661798302
   24      H       5.2511592190     0.3578298894    -1.8747525504
   25      H       5.4705088329     1.7873105567     0.0087555675
   26      H       4.7083712186    -2.2627200544    -0.9477716524
   27      H       7.0780750855    -2.3127361018    -0.0862614525
   28      H       7.1647204363    -0.9175092859    -1.2044567995
   29      H       7.3380821926    -0.8618960982     1.7847822784
   30      H       7.4007353990     0.5645824054     0.7039328729
   31      H       5.1227957446     0.2414859916     2.3425815089
   32      O      -2.2782145919     1.0960224755    -0.6346261369
   33      C      -5.0112994084     3.4493229104    -0.0864324190
   34      C      -5.5127361610    -1.3120189000     0.9475292760
   35      C      -6.0515938565    -2.6115109851     0.2279325960
   36      C      -4.7038431038    -3.3253387681    -0.1607353011
   37      C      -3.6432203068    -2.2982267260     0.3991104713
   38      O      -4.2817704275    -1.7739046592     1.6279519493
   39      H      -5.6548360934    -0.2467107972    -1.0270600725
   40      H      -3.6341795088    -1.3442653909    -1.6265179505
   41      H      -3.9260945145     3.6541148193     0.0174572702
   42      H      -6.2070803253    -0.8519044072     1.6767969862
   43      H      -6.6451694578    -3.2216305736     0.9272353250
   44      H      -6.6747467064    -2.3708889113    -0.6481875191
   45      H      -4.6006923422    -4.2974764931     0.3472338211
   46      H      -4.6008211524    -3.4817361982    -1.2464718999
   47      H      -2.6418376514    -2.7123241059     0.6240840486
   48      H      -5.5015818820     3.6405810283     0.8899712270
   49      H      -5.4422356710     4.1160046588    -0.8558066768
   50      H       0.8761115828     2.8598777617    -0.7956748892
   51      H       1.8015013976     4.1386196208     0.0792651132
   52      H       1.2665462412     2.6559262304     0.9705896535
   53      H       0.7005107136    -2.0254823067    -1.0567251705
   54      H       0.8693346637    -0.5601089066    -2.1227876265
   55      H       0.5266227965    -0.1013857588     0.9002658891
   56      H      -0.2129934124     0.8573634013    -0.4487870666
 ----------------------------------------------------------------

    9   -1510.2820901742      1.52E-09 Convergence criterion met
 Total energy in the final basis set = -1510.28209017
 Final energy is   -1510.28209017422
 **  OPTIMIZATION CONVERGED  **

                    Orbital Energies (a.u.)
 --------------------------------------------------------------

 Alpha MOs
 -- Occupied --
-18.938 -18.935 -18.933 -18.926 -18.888 -18.886 -18.881 -18.881
-18.878 -18.864 -10.105 -10.103 -10.101 -10.091 -10.068 -10.066
-10.061 -10.060 -10.059 -10.058 -10.057 -10.056 -10.041 -10.040
-10.039 -10.033 -10.021 -10.020 -10.019 -10.018  -1.018  -1.016
 -1.009  -1.001  -0.970  -0.968  -0.943  -0.940  -0.937  -0.926
 -0.765  -0.762  -0.728  -0.722  -0.713  -0.706  -0.693  -0.663
 -0.657  -0.615  -0.597  -0.581  -0.547  -0.544  -0.538  -0.536
 -0.514  -0.511  -0.485  -0.480  -0.466  -0.458  -0.451  -0.443
 -0.433  -0.431  -0.425  -0.414  -0.409  -0.406  -0.404  -0.400
 -0.391  -0.389  -0.376  -0.367  -0.361  -0.356  -0.353  -0.350
 -0.348  -0.341  -0.338  -0.332  -0.329  -0.328  -0.322  -0.311
 -0.309  -0.306  -0.304  -0.298  -0.294  -0.288  -0.281  -0.277
 -0.272  -0.252  -0.250  -0.247  -0.246  -0.234  -0.232  -0.185
 -0.178  -0.170  -0.167  -0.163  -0.162  -0.156  -0.144  -0.143
 -0.141

          Ground-State Mulliken Net Atomic Charges

     Atom                 Charge (a.u.)
  ----------------------------------------
      1 O                    -0.214310
      2 C                     0.210362
      3 C                    -0.080299
      4 C                    -0.077355
      5 C                     0.214404
      6 O                    -0.170760
      7 C                    -0.057880
      8 C                    -0.056610
      9 O                    -0.170432
     10 C                     0.210720
     11 C                    -0.078110
     12 C                    -0.077113
     13 C                     0.211910
     14 O                    -0.210025
     15 O                    -0.169960
     16 O                    -0.172628
     17 O                    -0.212322
     18 C                    -0.135866
     19 C                     0.026884
     20 C                    -0.143959
     21 C                    -0.144107
     22 C                     0.024468
     23 O                    -0.184724
     24 H                     0.085854
     25 H                     0.086204
     26 H                     0.084062
     27 H                     0.078298
     28 H                     0.073633
     29 H                     0.078549
     30 H                     0.073060
     31 H                     0.090233
     32 O                    -0.214435
     33 C                    -0.128284
     34 C                     0.025724
     35 C                    -0.144095
     36 C                    -0.144158
     37 C                     0.023336
     38 O                    -0.186628
     39 H                     0.085007
     40 H                     0.085222
     41 H                     0.091540
     42 H                     0.084245
     43 H                     0.077890
     44 H                     0.073191
     45 H                     0.078142
     46 H                     0.072268
     47 H                     0.092876
     48 H                     0.087489
     49 H                     0.087893
     50 H                     0.089443
     51 H                     0.086284
     52 H                     0.101934
     53 H                     0.089472
     54 H                     0.098149
     55 H                     0.096856
     56 H                     0.098458
  ----------------------------------------
  Sum of atomic charges =     0.000000

                    Cartesian Multipole Moments
 -----------------------------------------------------------------
    Charge (ESU x 10^10)
                 0.0000
    Dipole Moment (Debye)
         X       0.7393      Y      -0.2934      Z      -2.3405
       Tot       2.4719
    Quadrupole Moments (Debye-Ang)
        XX    -133.4594     XY       4.4608     YY    -151.3686
        XZ       5.2157     YZ       5.9922     ZZ    -171.4645

 Total job time:  85.27s(wall), 4059.83s(cpu)
        *  Thank you very much for using Q-Chem.  Have a nice day.  *
