 Q-Chem 5.0, Q-Chem, Inc., Pleasanton, CA (2017)
 Q-Chem 5.0.1 for Intel X86 EM64T Linux

User input:
--------------------------------------------------------------
$molecule
0  1
O -3.94934 -3.66094 2.70899
C -3.26408 -4.56952 2.26188
C -3.36658 -6.02376 2.66595
C -3.06175 -6.36856 4.13293
C -2.86204 -5.20032 5.07284
O -3.38282 -5.49775 6.29993
C -2.57145 -5.03276 7.38377
C -1.38427 -5.96767 7.59037
O -0.62889 -5.55293 8.73941
C 0.68215 -5.89968 8.73155
C 1.37909 -5.59528 10.03627
C 2.13797 -4.26062 10.06877
C 1.80385 -3.28334 8.95973
O 1.45762 -2.12174 9.11906
O -2.35685 -4.28356 1.29096
O 2.07346 -3.69868 7.69374
O 1.27755 -6.33949 7.7555
C 1.86019 -2.94166 6.56075
C 0.44377 -5.38236 11.25734
C 1.20492 -5.68895 12.54637
C 2.16282 -4.51726 12.59298
C 1.64179 -3.69243 11.4098
O 0.26889 -3.98989 11.35319
H 2.00681 -6.48409 10.27258
H 3.2376 -4.41987 10.02487
H -0.48495 -5.9927 11.22125
H 0.47284 -5.58225 13.37931
H 1.67941 -6.69177 12.60918
H 2.01671 -3.98292 13.55779
H 3.2354 -4.7753 12.45557
H 1.90621 -2.62064 11.54413
O -1.99093 -4.3581 4.88514
C -2.13277 -3.02068 0.78398
C -4.79989 -6.56262 2.51829
C -4.76641 -8.07531 2.32303
C -4.35037 -8.52459 3.70603
C -4.34827 -7.18125 4.4487
O -5.35149 -6.43519 3.80529
H -2.68937 -6.59163 1.98682
H -2.14642 -6.99455 4.22533
H -1.79359 -2.33853 1.59273
H -5.36728 -6.08079 1.69169
H -5.81562 -8.40279 2.14282
H -4.12243 -8.43632 1.49246
H -5.14233 -9.19627 4.10637
H -3.36075 -9.02714 3.76598
H -4.5091 -7.38298 5.52862
H -3.06167 -2.62331 0.32176
H -1.34249 -3.07529 0.00747
H 2.16399 -3.52815 5.6696
H 2.46558 -2.01105 6.60085
H 0.7823 -2.68731 6.47011
H -1.7358 -7.01207 7.73722
H -0.77666 -5.91936 6.65954
H -3.18619 -5.08752 8.30717
H -2.26627 -3.96785 7.26685
$end

$opt
CONSTRAINT
tors           1           2           3           4     -62.443
tors           3           4           5           6    +143.760
tors           4           5           6           7    +140.012
tors           5           6           7           8     -78.153
tors           6           7           8           9    -175.777
tors           7           8           9          10    -153.852
tors           8           9          10          11    -172.592
tors           9          10          11          12     -96.267
tors          11          12          13          14    +126.467
ENDCONSTRAINT
$end

$rem
JOBTYPE                   OPT
METHOD                    B3LYP
DFT_D                     d3_op
BASIS                     STO-3G
GEOM_OPT_MAX_CYCLES       100
GEOM_OPT_TOL_GRADIENT     300
GEOM_OPT_TOL_DISPLACEMENT 1200
GEOM_OPT_TOL_ENERGY       100
SYMMETRY                  False
THRESH                    12
SCF_CONVERGENCE           8
MAX_SUB_FILE_NUM          128
MEM_STATIC                400
MEM_TOTAL                 4000
$end
--------------------------------------------------------------

   16   -1510.1415676802      2.19E-09 Convergence criterion met
 Total energy in the final basis set = -1510.14156768
   13   -1510.2107959223      9.43E-09 Convergence criterion met
 Total energy in the final basis set = -1510.21079592
   14   -1510.2477273941      1.96E-09 Convergence criterion met
 Total energy in the final basis set = -1510.24772739
   14   -1510.2636260132      1.80E-09 Convergence criterion met
 Total energy in the final basis set = -1510.26362601
   13   -1510.2687229576      7.86E-09 Convergence criterion met
 Total energy in the final basis set = -1510.26872296
   13   -1510.2704533249      2.75E-09 Convergence criterion met
 Total energy in the final basis set = -1510.27045332
   13   -1510.2711062210      2.11E-09 Convergence criterion met
 Total energy in the final basis set = -1510.27110622
   13   -1510.2714031299      2.64E-09 Convergence criterion met
   11   -1510.2720610023      2.98E-09 Convergence criterion met
 Total energy in the final basis set = -1510.27206100
   10   -1510.2720770590      9.27E-09 Convergence criterion met
 Total energy in the final basis set = -1510.27207706
   10   -1510.2720915103      7.63E-09 Convergence criterion met
 Total energy in the final basis set = -1510.27209151
    9   -1510.2721001173      5.46E-09 Convergence criterion met
 Total energy in the final basis set = -1510.27210012
    9   -1510.2721047406      9.94E-09 Convergence criterion met
 Total energy in the final basis set = -1510.27210474
   10   -1510.2721060878      4.02E-09 Convergence criterion met
 Total energy in the final basis set = -1510.27210609

             Standard Nuclear Orientation (Angstroms)
    I     Atom           X                Y                Z
 ----------------------------------------------------------------
    1      O      -4.5780976043     1.5070868017     1.5209415322
    2      C      -4.5986165138     1.4383044199     0.2734399873
    3      C      -4.6078555861     0.1460684634    -0.6164936805
    4      C      -3.3103771368    -0.7498768995    -0.4413533987
    5      C      -2.2161769709    -0.1157442319     0.4934851283
    6      O      -1.5599915916    -1.1421567785     1.2685482199
    7      C      -0.1102995292    -0.8481408233     1.3490677551
    8      C       0.6040086921    -1.2554373046     0.0125411054
    9      O       2.0541685993    -1.0281548331     0.2105727035
   10      C       2.6879489564    -0.7820423873    -1.0552574772
   11      C       4.2428691938    -0.7314608585    -0.8571259406
   12      C       4.8426706585     0.7308031039    -0.6908240999
   13      C       3.7815669331     1.7837860850    -0.1897106289
   14      O       3.8859368596     2.5428536589     0.7967968972
   15      O      -4.6342176383     2.5779984686    -0.5949042592
   16      O       2.6158229786     1.7048986975    -1.0156770285
   17      O       2.0806693193    -0.7800050478    -2.1482729453
   18      C       1.5325741921     2.5568941180    -0.4722541075
   19      C       4.8321817354    -1.4526855173     0.4305539547
   20      C       6.3122240292    -1.8783657326     0.0839783697
   21      C       7.0193013739    -0.4721644367     0.0393419312
   22      C       5.8492191137     0.4814646004     0.5059513788
   23      O       5.0293480396    -0.3618510835     1.4120260487
   24      H       4.6649961090    -1.1857834051    -1.7721838610
   25      H       5.3260007328     1.0866488410    -1.6188571393
   26      H       4.1867132481    -2.2465685419     0.8522468213
   27      H       6.7244929622    -2.5089184976     0.8880329731
   28      H       6.3839693917    -2.4271105150    -0.8687396355
   29      H       7.8663412942    -0.4206532240     0.7413097965
   30      H       7.3807343462    -0.2125673473    -0.9687969850
   31      H       6.1590431318     1.4092858867     1.0246478079
   32      O      -1.8713919396     1.0863258927     0.4961154940
   33      C      -4.5851240012     3.8215141896     0.2082786892
   34      C      -5.7280487640    -0.8725838939    -0.1320055349
   35      C      -5.9330128621    -1.9675663966    -1.2524900611
   36      C      -4.6478104602    -2.8542464937    -1.0509860752
   37      C      -3.9354282998    -2.0899103564     0.1331530676
   38      O      -5.0635066002    -1.6114666256     0.9649068059
   39      H      -4.7507111610     0.4502201592    -1.6679214132
   40      H      -2.8179492805    -0.9242291598    -1.4171350669
   41      H      -3.6533932553     3.8789428636     0.8072511408
   42      H      -6.6565481454    -0.3923663891     0.2328674446
   43      H      -6.8543500933    -2.5420763233    -1.0660329090
   44      H      -5.9904002764    -1.5243766778    -2.2595548441
   45      H      -4.9088297620    -3.8796404530    -0.7441781046
   46      H      -4.0187807375    -2.9050827081    -1.9540700843
   47      H      -3.2262782298    -2.6861191309     0.7386099536
   48      H      -5.4512860786     3.8981711639     0.8969597680
   49      H      -4.6129373924     4.6557980563    -0.5164751783
   50      H       0.6780723476     2.4411571255    -1.1642265977
   51      H       1.8345252422     3.6227094703    -0.4248166750
   52      H       1.2303482709     2.2278781188     0.5431547924
   53      H       0.4101801579    -2.3271791141    -0.2135178365
   54      H       0.2307594553    -0.6497097232    -0.8411939180
   55      H       0.2862591589    -1.4511902676     2.1903956384
   56      H       0.0678323058     0.2287684782     1.5577068527
 ----------------------------------------------------------------

    9   -1510.2721067392      7.02E-09 Convergence criterion met
 Total energy in the final basis set = -1510.27210674
 Final energy is   -1510.27210673920
 **  OPTIMIZATION CONVERGED  **

                    Orbital Energies (a.u.)
 --------------------------------------------------------------

 Alpha MOs
 -- Occupied --
-18.940 -18.932 -18.931 -18.928 -18.889 -18.887 -18.886 -18.880
-18.870 -18.867 -10.108 -10.102 -10.101 -10.093 -10.076 -10.073
-10.066 -10.060 -10.060 -10.059 -10.058 -10.058 -10.041 -10.041
-10.037 -10.035 -10.021 -10.021 -10.020 -10.020  -1.018  -1.016
 -1.008  -1.003  -0.970  -0.970  -0.945  -0.940  -0.934  -0.929
 -0.764  -0.763  -0.727  -0.723  -0.715  -0.706  -0.695  -0.664
 -0.659  -0.617  -0.598  -0.582  -0.547  -0.545  -0.538  -0.538
 -0.516  -0.511  -0.484  -0.479  -0.470  -0.461  -0.453  -0.444
 -0.434  -0.433  -0.429  -0.415  -0.409  -0.407  -0.406  -0.399
 -0.398  -0.384  -0.376  -0.370  -0.360  -0.357  -0.354  -0.351
 -0.344  -0.340  -0.337  -0.332  -0.330  -0.330  -0.324  -0.310
 -0.310  -0.307  -0.306  -0.298  -0.294  -0.289  -0.287  -0.278
 -0.276  -0.253  -0.252  -0.250  -0.248  -0.234  -0.233  -0.182
 -0.180  -0.173  -0.171  -0.162  -0.158  -0.151  -0.146  -0.143
 -0.143

          Ground-State Mulliken Net Atomic Charges

     Atom                 Charge (a.u.)
  ----------------------------------------
      1 O                    -0.212551
      2 C                     0.209691
      3 C                    -0.080436
      4 C                    -0.078331
      5 C                     0.215534
      6 O                    -0.176035
      7 C                    -0.048507
      8 C                    -0.053545
      9 O                    -0.175682
     10 C                     0.214293
     11 C                    -0.081290
     12 C                    -0.076680
     13 C                     0.211961
     14 O                    -0.207189
     15 O                    -0.170187
     16 O                    -0.169030
     17 O                    -0.216709
     18 C                    -0.127716
     19 C                     0.024163
     20 C                    -0.142403
     21 C                    -0.145530
     22 C                     0.023961
     23 O                    -0.188936
     24 H                     0.084051
     25 H                     0.086487
     26 H                     0.087514
     27 H                     0.078048
     28 H                     0.073070
     29 H                     0.078625
     30 H                     0.073249
     31 H                     0.090438
     32 O                    -0.205182
     33 C                    -0.128699
     34 C                     0.026036
     35 C                    -0.144162
     36 C                    -0.144110
     37 C                     0.023013
     38 O                    -0.186478
     39 H                     0.085439
     40 H                     0.085063
     41 H                     0.092014
     42 H                     0.083614
     43 H                     0.078166
     44 H                     0.073635
     45 H                     0.078156
     46 H                     0.072479
     47 H                     0.092824
     48 H                     0.087687
     49 H                     0.088443
     50 H                     0.095241
     51 H                     0.091569
     52 H                     0.091224
     53 H                     0.082538
     54 H                     0.091891
     55 H                     0.094627
     56 H                     0.094642
  ----------------------------------------
  Sum of atomic charges =     0.000000

                    Cartesian Multipole Moments
 -----------------------------------------------------------------
    Charge (ESU x 10^10)
                 0.0000
    Dipole Moment (Debye)
         X       0.7975      Y      -1.0602      Z      -3.0466
       Tot       3.3229
    Quadrupole Moments (Debye-Ang)
        XX    -146.5246     XY      -5.3461     YY    -152.1355
        XZ       4.4375     YZ      -0.5247     ZZ    -170.3046

 Total job time:  54.00s(wall), 2568.31s(cpu)
        *  Thank you very much for using Q-Chem.  Have a nice day.  *
