 Q-Chem 5.0, Q-Chem, Inc., Pleasanton, CA (2017)
 Q-Chem 5.0.1 for Intel X86 EM64T Linux

User input:
--------------------------------------------------------------
$molecule
0  1
O -4.5780976043 1.5070868017 1.5209415322
C -4.5986165138 1.4383044199 0.2734399873
C -4.6078555861 0.1460684634 -0.6164936805
C -3.3103771368 -0.7498768995 -0.4413533987
C -2.2161769709 -0.1157442319 0.4934851283
O -1.5599915916 -1.1421567785 1.2685482199
C -0.1102995292 -0.8481408233 1.3490677551
C 0.6040086921 -1.2554373046 0.0125411054
O 2.0541685993 -1.0281548331 0.2105727035
C 2.6879489564 -0.7820423873 -1.0552574772
C 4.2428691938 -0.7314608585 -0.8571259406
C 4.8426706585 0.7308031039 -0.6908240999
C 3.7815669331 1.783786085 -0.1897106289
O 3.8859368596 2.5428536589 0.7967968972
O -4.6342176383 2.5779984686 -0.5949042592
O 2.6158229786 1.7048986975 -1.0156770285
O 2.0806693193 -0.7800050478 -2.1482729453
C 1.5325741921 2.556894118 -0.4722541075
C 4.8321817354 -1.4526855173 0.4305539547
C 6.3122240292 -1.8783657326 0.0839783697
C 7.0193013739 -0.4721644367 0.0393419312
C 5.8492191137 0.4814646004 0.5059513788
O 5.0293480396 -0.3618510835 1.4120260487
H 4.664996109 -1.1857834051 -1.772183861
H 5.3260007328 1.086648841 -1.6188571393
H 4.1867132481 -2.2465685419 0.8522468213
H 6.7244929622 -2.5089184976 0.8880329731
H 6.3839693917 -2.427110515 -0.8687396355
H 7.8663412942 -0.420653224 0.7413097965
H 7.3807343462 -0.2125673473 -0.968796985
H 6.1590431318 1.4092858867 1.0246478079
O -1.8713919396 1.0863258927 0.496115494
C -4.5851240012 3.8215141896 0.2082786892
C -5.728048764 -0.8725838939 -0.1320055349
C -5.9330128621 -1.9675663966 -1.2524900611
C -4.6478104602 -2.8542464937 -1.0509860752
C -3.9354282998 -2.0899103564 0.1331530676
O -5.0635066002 -1.6114666256 0.9649068059
H -4.750711161 0.4502201592 -1.6679214132
H -2.8179492805 -0.9242291598 -1.4171350669
H -3.6533932553 3.8789428636 0.8072511408
H -6.6565481454 -0.3923663891 0.2328674446
H -6.8543500933 -2.5420763233 -1.066032909
H -5.9904002764 -1.5243766778 -2.2595548441
H -4.908829762 -3.879640453 -0.7441781046
H -4.0187807375 -2.9050827081 -1.9540700843
H -3.2262782298 -2.6861191309 0.7386099536
H -5.4512860786 3.8981711639 0.896959768
H -4.6129373924 4.6557980563 -0.5164751783
H 0.6780723476 2.4411571255 -1.1642265977
H 1.8345252422 3.6227094703 -0.424816675
H 1.2303482709 2.2278781188 0.5431547924
H 0.4101801579 -2.3271791141 -0.2135178365
H 0.2307594553 -0.6497097232 -0.841193918
H 0.2862591589 -1.4511902676 2.1903956384
H 0.0678323058 0.2287684782 1.5577068527
$end

$rem
JOBTYPE                   OPT
METHOD                    B3LYP
DFT_D                     d3_op
BASIS                     STO-3G
GEOM_OPT_MAX_CYCLES       100
GEOM_OPT_TOL_GRADIENT     300
GEOM_OPT_TOL_DISPLACEMENT 1200
GEOM_OPT_TOL_ENERGY       100
SYMMETRY                  False
THRESH                    12
SCF_CONVERGENCE           8
MAX_SUB_FILE_NUM          128
MEM_STATIC                400
MEM_TOTAL                 4000
$end
--------------------------------------------------------------

   16   -1510.2722661023      5.83E-09 Convergence criterion met
 Total energy in the final basis set = -1510.27226610
   14   -1510.2767843103      3.21E-09 Convergence criterion met
 Total energy in the final basis set = -1510.27678431
   14   -1510.2807587687      2.51E-09 Convergence criterion met
 Total energy in the final basis set = -1510.28075877
   14   -1510.2831661975      2.77E-09 Convergence criterion met
 Total energy in the final basis set = -1510.28316620
   13   -1510.2848016301      9.69E-09 Convergence criterion met
 Total energy in the final basis set = -1510.28480163
   13   -1510.2864074090      9.21E-09 Convergence criterion met
 Total energy in the final basis set = -1510.28640741
   14   -1510.2879839543      2.12E-09 Convergence criterion met
 Total energy in the final basis set = -1510.28798395
   14   -1510.2888654896      2.16E-09 Convergence criterion met
   13   -1510.2934552606      7.57E-09 Convergence criterion met
 Total energy in the final basis set = -1510.29345526
   13   -1510.2935833777      4.97E-09 Convergence criterion met
 Total energy in the final basis set = -1510.29358338
   11   -1510.2935846630      8.18E-09 Convergence criterion met
 Total energy in the final basis set = -1510.29358466
   11   -1510.2935698825      9.94E-09 Convergence criterion met
 Total energy in the final basis set = -1510.29356988
   10   -1510.2935640830      6.80E-09 Convergence criterion met
 Total energy in the final basis set = -1510.29356408
   10   -1510.2935537706      8.97E-09 Convergence criterion met
 Total energy in the final basis set = -1510.29355377

             Standard Nuclear Orientation (Angstroms)
    I     Atom           X                Y                Z
 ----------------------------------------------------------------
    1      O      -3.6573690452     2.0579432585     1.2318313412
    2      C      -3.6883465919     1.5518693867     0.0903380149
    3      C      -4.4162730317     0.2251131204    -0.3433089553
    4      C      -3.4803535863    -1.0471056224    -0.4537121038
    5      C      -1.9945038486    -0.7646540986    -0.0509505618
    6      O      -1.2980981869    -2.0081168462     0.0027318687
    7      C       0.1241951196    -1.8013837821     0.3710980020
    8      C       1.0222157985    -1.7845173138    -0.9146687605
    9      O       2.3367238674    -1.2761302749    -0.4635668167
   10      C       3.1845924375    -0.9800945885    -1.5826204370
   11      C       4.4736757072    -0.3033381822    -1.0104770296
   12      C       4.1400108382     0.8974027440    -0.0286890435
   13      C       2.6056733591     1.2261586963     0.0881953734
   14      O       1.9281005132     1.3384237472     1.1313962671
   15      O      -3.1613009576     2.1773726596    -1.0893478695
   16      O       2.1053103263     1.4485684952    -1.2361743201
   17      O       2.9030020090    -1.2446899102    -2.7698267897
   18      C       0.6908477781     1.8891687958    -1.1946234530
   19      C       5.2494915075    -1.2760284462    -0.0174238505
   20      C       6.6723845755    -0.6561768144     0.2844009234
   21      C       6.2980417406     0.4979631241     1.2876624375
   22      C       4.7272761261     0.3543689989     1.3382473404
   23      O       4.5160947431    -1.1103799886     1.2561981560
   24      H       5.1044853428     0.0159543355    -1.8579805733
   25      H       4.6613375014     1.8174053524    -0.3511252671
   26      H       5.2558857589    -2.3390199502    -0.3279733192
   27      H       7.3259595368    -1.4072474822     0.7557670999
   28      H       7.1641866337    -0.2840723732    -0.6286575902
   29      H       6.7338648856     0.3225118896     2.2840571641
   30      H       6.6143843057     1.4915455005     0.9319393967
   31      H       4.2265167799     0.7676538935     2.2354631432
   32      O      -1.4788358392     0.3487230680     0.2086495438
   33      C      -2.4708625999     3.4316769119    -0.7159619196
   34      C      -5.4404559753    -0.2553850957     0.7702962068
   35      C      -6.4503143142    -1.2748906766     0.1119199583
   36      C      -5.5338635752    -2.5445057803    -0.0496506459
   37      C      -4.1812240495    -2.0288615189     0.5824894824
   38      O      -4.6181098282    -1.1119677633     1.6575394808
   39      H      -4.9202675758     0.4145479528    -1.3076621804
   40      H      -3.4849115494    -1.4713149948    -1.4747672203
   41      H      -1.7137740382     3.2559702050     0.0741880063
   42      H      -5.8974298947     0.5691561643     1.3507652504
   43      H      -7.2952480106    -1.4723120346     0.7906526107
   44      H      -6.8466641437    -0.9091209433    -0.8488588826
   45      H      -5.9226805027    -3.4008624764     0.5237832838
   46      H      -5.4100780163    -2.8502149771    -1.1008813759
   47      H      -3.5100772921    -2.8150256398     0.9796160657
   48      H      -3.1864644608     4.1985045667    -0.3535036705
   49      H      -1.9759693048     3.7967388801    -1.6346009925
   50      H       0.3453189767     1.8940147818    -2.2447127178
   51      H       0.6141303689     2.9166785714    -0.7850986498
   52      H       0.0383895857     1.2192849164    -0.5877086740
   53      H       1.1104679486    -2.8013846498    -1.3552983853
   54      H       0.5831416385    -1.1126391665    -1.6843349955
   55      H       0.4092843897    -2.6423344077     1.0342827132
   56      H       0.2458303736    -0.8375956131     0.9116747161
 ----------------------------------------------------------------

   10   -1510.2935536744      7.59E-09 Convergence criterion met
 Total energy in the final basis set = -1510.29355367
 Final energy is   -1510.29355367443
 **  OPTIMIZATION CONVERGED  **

                    Orbital Energies (a.u.)
 --------------------------------------------------------------

 Alpha MOs
 -- Occupied --
-18.950 -18.934 -18.925 -18.922 -18.898 -18.889 -18.886 -18.877
-18.869 -18.862 -10.117 -10.100 -10.095 -10.091 -10.077 -10.076
-10.063 -10.060 -10.058 -10.056 -10.056 -10.046 -10.045 -10.037
-10.035 -10.034 -10.022 -10.020 -10.020 -10.018  -1.029  -1.015
 -1.001  -1.000  -0.972  -0.969  -0.953  -0.938  -0.930  -0.925
 -0.766  -0.762  -0.731  -0.723  -0.713  -0.705  -0.697  -0.658
 -0.653  -0.618  -0.597  -0.581  -0.547  -0.545  -0.539  -0.536
 -0.519  -0.509  -0.488  -0.475  -0.466  -0.459  -0.456  -0.443
 -0.434  -0.433  -0.429  -0.412  -0.409  -0.407  -0.403  -0.401
 -0.398  -0.379  -0.370  -0.369  -0.362  -0.357  -0.349  -0.348
 -0.345  -0.338  -0.336  -0.335  -0.330  -0.327  -0.325  -0.315
 -0.309  -0.307  -0.304  -0.302  -0.291  -0.290  -0.278  -0.276
 -0.273  -0.262  -0.251  -0.247  -0.244  -0.236  -0.233  -0.192
 -0.177  -0.174  -0.167  -0.165  -0.155  -0.146  -0.146  -0.143
 -0.142

          Ground-State Mulliken Net Atomic Charges

     Atom                 Charge (a.u.)
  ----------------------------------------
      1 O                    -0.214786
      2 C                     0.214599
      3 C                    -0.081711
      4 C                    -0.077133
      5 C                     0.220730
      6 O                    -0.169406
      7 C                    -0.052052
      8 C                    -0.047133
      9 O                    -0.171200
     10 C                     0.214901
     11 C                    -0.078681
     12 C                    -0.078206
     13 C                     0.213961
     14 O                    -0.214339
     15 O                    -0.175415
     16 O                    -0.178920
     17 O                    -0.211149
     18 C                    -0.142687
     19 C                     0.025834
     20 C                    -0.144045
     21 C                    -0.143693
     22 C                     0.024223
     23 O                    -0.186822
     24 H                     0.085533
     25 H                     0.083351
     26 H                     0.081625
     27 H                     0.077803
     28 H                     0.073637
     29 H                     0.077962
     30 H                     0.073067
     31 H                     0.090790
     32 O                    -0.205925
     33 C                    -0.128861
     34 C                     0.025323
     35 C                    -0.143978
     36 C                    -0.143971
     37 C                     0.025085
     38 O                    -0.188225
     39 H                     0.084250
     40 H                     0.087729
     41 H                     0.094781
     42 H                     0.089082
     43 H                     0.078593
     44 H                     0.073472
     45 H                     0.078861
     46 H                     0.073438
     47 H                     0.088319
     48 H                     0.084551
     49 H                     0.085283
     50 H                     0.083451
     51 H                     0.079445
     52 H                     0.106784
     53 H                     0.087231
     54 H                     0.088944
     55 H                     0.095316
     56 H                     0.110386
  ----------------------------------------
  Sum of atomic charges =    -0.000000

                    Cartesian Multipole Moments
 -----------------------------------------------------------------
    Charge (ESU x 10^10)
                 0.0000
    Dipole Moment (Debye)
         X       0.2399      Y      -0.5693      Z      -2.2853
       Tot       2.3674
    Quadrupole Moments (Debye-Ang)
        XX    -137.8223     XY       7.2923     YY    -153.1013
        XZ       9.6297     YZ      -2.7701     ZZ    -172.0467

 Total job time:  98.82s(wall), 4707.65s(cpu)
        *  Thank you very much for using Q-Chem.  Have a nice day.  *
