 Q-Chem 5.0, Q-Chem, Inc., Pleasanton, CA (2017)
 Q-Chem 5.0.1 for Intel X86 EM64T Linux

User input:
--------------------------------------------------------------
$molecule
0  1
O -3.8476025033 1.6720621194 1.0621250655
C -4.5451238219 1.2799257139 0.1017058399
C -4.8909155305 -0.1971069457 -0.2901813448
C -3.6040512256 -1.0749117415 -0.6158017495
C -2.2705142262 -0.251020625 -0.5037228202
O -1.3714396148 -0.866132018 0.4256045677
C -0.0074033021 -0.3092797565 0.2561213745
C 1.0100957596 -1.482866867 0.0367590949
O 2.3948208177 -0.952385663 0.0516329387
C 2.7641894233 -0.4769990059 -1.2489043462
C 4.2354825836 0.0501247388 -1.1916823473
C 4.5751926619 0.9894890699 0.0449604185
C 3.3517380933 1.3843538925 0.9448139508
O 3.0606028858 0.9649426801 2.0852662204
O -5.182987446 2.1528607781 -0.837813494
O 2.5878748249 2.3583553216 0.217298338
O 2.022552559 -0.5341954239 -2.2542080295
C 1.4502481968 2.8502327706 1.0286169181
C 5.2403309783 -1.1548466237 -0.916901024
C 6.7143537243 -0.6649290424 -1.2084112929
C 7.0102333486 0.1974355214 0.0746566679
C 5.6274805909 0.095952814 0.8288144577
O 5.1931495516 -1.2935514521 0.5542294928
H 4.4470470381 0.5527880815 -2.1516514008
H 5.0364246638 1.9256933266 -0.3182998873
H 4.9562014817 -2.1060599356 -1.4076132461
H 7.3982288962 -1.5248544191 -1.2859567976
H 6.7770259916 -0.0784314224 -2.1389867057
H 7.8131013109 -0.2492386174 0.6825495027
H 7.2830632039 1.2379322034 -0.1631947199
H 5.6547417825 0.2810942433 1.9200197675
O -1.9900991746 0.7677246874 -1.1752234287
C -4.8491256048 3.5616010004 -0.5248178483
C -5.4962637252 -1.0103236111 0.9351529092
C -6.1808549586 -2.3152707297 0.3678536056
C -4.9197476085 -3.1878044082 0.0140450248
C -3.7467500697 -2.2287725957 0.4611858917
O -4.3008694419 -1.522992208 1.6403160097
H -5.5869574242 -0.1713760614 -1.1465901057
H -3.6548133869 -1.46886414 -1.6480194625
H -3.7556547906 3.7391844773 -0.5777360715
H -6.1219916031 -0.4083349788 1.6222516619
H -6.7976648668 -2.794203702 1.1448666452
H -6.8155261168 -2.1056338394 -0.5080359722
H -4.897045065 -4.1205451965 0.5994376994
H -4.8637987578 -3.4417863006 -1.0565617211
H -2.7927525393 -2.7258219999 0.7201665019
H -5.2048170604 3.8519666741 0.4850452783
H -5.3620206584 4.1743416515 -1.288688825
H 0.5110969723 2.6960539683 0.4627289161
H 1.5853658345 3.9332785017 1.2199304464
H 1.4127070916 2.3004324005 1.9907483305
H 0.9485331352 -2.2045146082 0.8759278594
H 0.7962795887 -1.999108228 -0.9232225404
H 0.2686369174 0.2414265489 1.1795370095
H -0.006780935 0.3962053193 -0.6025482272
$end

$rem
JOBTYPE                   OPT
METHOD                    B3LYP
DFT_D                     d3_op
BASIS                     STO-3G
GEOM_OPT_MAX_CYCLES       100
GEOM_OPT_TOL_GRADIENT     300
GEOM_OPT_TOL_DISPLACEMENT 1200
GEOM_OPT_TOL_ENERGY       100
SYMMETRY                  False
THRESH                    12
SCF_CONVERGENCE           8
MAX_SUB_FILE_NUM          128
MEM_STATIC                400
MEM_TOTAL                 4000
$end
--------------------------------------------------------------

   15   -1510.2811915127      9.49E-09 Convergence criterion met
 Total energy in the final basis set = -1510.28119151
   14   -1510.2828872749      1.76E-09 Convergence criterion met
 Total energy in the final basis set = -1510.28288727
   14   -1510.2818351774      2.68E-09 Convergence criterion met
 Total energy in the final basis set = -1510.28183518
   13   -1510.2837988548      3.33E-09 Convergence criterion met
 Total energy in the final basis set = -1510.28379885
   14   -1510.2844774456      2.23E-09 Convergence criterion met
 Total energy in the final basis set = -1510.28447745
   14   -1510.2848766556      3.28E-09 Convergence criterion met
 Total energy in the final basis set = -1510.28487666
   14   -1510.2859282746      2.80E-09 Convergence criterion met
 Total energy in the final basis set = -1510.28592827
   14   -1510.2837730662      2.63E-09 Convergence criterion met
   11   -1510.2987881031      5.86E-09 Convergence criterion met
 Total energy in the final basis set = -1510.29878810
   10   -1510.2987926248      6.75E-09 Convergence criterion met
 Total energy in the final basis set = -1510.29879262
   11   -1510.2987916756      6.57E-09 Convergence criterion met
 Total energy in the final basis set = -1510.29879168
   11   -1510.2987830053      6.60E-09 Convergence criterion met
 Total energy in the final basis set = -1510.29878301
    9   -1510.2987807067      6.08E-09 Convergence criterion met
 Total energy in the final basis set = -1510.29878071
    9   -1510.2987789893      4.29E-09 Convergence criterion met
 Total energy in the final basis set = -1510.29877899

             Standard Nuclear Orientation (Angstroms)
    I     Atom           X                Y                Z
 ----------------------------------------------------------------
    1      O      -3.4024757610     2.1160751825    -0.2121698726
    2      C      -3.1621823988     0.9797569266    -0.6725507732
    3      C      -4.1005655311    -0.2814467029    -0.5622131269
    4      C      -3.4720846229    -1.5515535711     0.1547034253
    5      C      -1.9934302837    -1.3187861817     0.5896555056
    6      O      -1.1931836761    -2.3925164467     0.0869666641
    7      C       0.2475918953    -2.0631611323     0.2216866236
    8      C       0.6509912591    -1.1385226669    -0.9802214164
    9      O       1.9886179227    -0.5846229287    -0.6675277219
   10      C       2.3003642677     0.5422657378    -1.4864552045
   11      C       3.7375900900     1.0188216605    -1.0961281971
   12      C       3.9285070822     1.1794614173     0.4702943163
   13      C       2.6091710188     0.9743455934     1.3012236568
   14      O       2.4282272592     0.2045243362     2.2683400366
   15      O      -2.0038857588     0.6613091455    -1.4591390183
   16      O       1.6397809972     1.8992921203     0.8007813057
   17      O       1.5491823027     1.0170754419    -2.3691566560
   18      C       0.3993274080     1.8465447767     1.6125982800
   19      C       4.8144153373    -0.1142486101    -1.3982249624
   20      C       6.2587473039     0.5143882945    -1.2614697018
   21      C       6.4136769236     0.5929150372     0.3037250460
   22      C       5.0049000944     0.0567359612     0.7703204137
   23      O       4.7020064469    -1.0027228478    -0.2213623026
   24      H       3.9513241161     1.9549569718    -1.6404848943
   25      H       4.3238947167     2.1848657731     0.7051749154
   26      H       4.6349794465    -0.6815269078    -2.3324773915
   27      H       7.0121751597    -0.1517002757    -1.7110633992
   28      H       6.3269179215     1.5019733163    -1.7453100111
   29      H       7.2170896880    -0.0698471135     0.6629645865
   30      H       6.6100486523     1.6157700412     0.6624723525
   31      H       4.9534110666    -0.3506046778     1.7989473962
   32      O      -1.5581873042    -0.3581555887     1.2644739614
   33      C      -1.2334830471     1.8994395937    -1.7486013244
   34      C      -5.3235692794     0.0315366072     0.3973466856
   35      C      -6.4432221032    -1.0556345816     0.1620858412
   36      C      -5.8133470192    -2.3030220212     0.8866523151
   37      C      -4.4488889032    -1.6966436953     1.4030311757
   38      O      -4.7904440593    -0.2988894155     1.7403721260
   39      H      -4.4361412906    -0.5457476763    -1.5822012044
   40      H      -3.5074287917    -2.4431768097    -0.4946175905
   41      H      -0.2240990157     1.5750282745    -2.0888800505
   42      H      -5.6548380088     1.0876632890     0.3645914893
   43      H      -7.3871172049    -0.7461736388     0.6380462471
   44      H      -6.6301104918    -1.2346669009    -0.9090003386
   45      H      -6.4327441948    -2.6321149073     1.7360558080
   46      H      -5.6578003477    -3.1573254523     0.2086800853
   47      H      -4.0037128533    -2.2105651328     2.2771864664
   48      H      -1.1451402381     2.5327635583    -0.8451865452
   49      H      -1.7340220851     2.4875663852    -2.5439671708
   50      H      -0.2095930911     0.9360326087     1.4026627149
   51      H      -0.1809878523     2.7458044952     1.3364179258
   52      H       0.6304507241     1.8771680621     2.6956712261
   53      H       0.6843713455    -1.7199000096    -1.9268670556
   54      H      -0.1186336417    -0.3431719984    -1.0906342890
   55      H       0.7967666227    -3.0244118111     0.1964413533
   56      H       0.4543111729    -1.5373222021     1.1789603936
 ----------------------------------------------------------------

    9   -1510.2987787270      3.48E-09 Convergence criterion met
 Total energy in the final basis set = -1510.29877873
 Final energy is   -1510.29877872697
 **  OPTIMIZATION CONVERGED  **

                    Orbital Energies (a.u.)
 --------------------------------------------------------------

 Alpha MOs
 -- Occupied --
-18.944 -18.942 -18.928 -18.922 -18.889 -18.888 -18.887 -18.884
-18.875 -18.867 -10.111 -10.108 -10.098 -10.094 -10.075 -10.071
-10.063 -10.062 -10.058 -10.057 -10.042 -10.041 -10.040 -10.039
-10.038 -10.035 -10.022 -10.021 -10.021 -10.020  -1.023  -1.018
 -1.006  -1.000  -0.972  -0.970  -0.948  -0.943  -0.932  -0.928
 -0.766  -0.764  -0.730  -0.724  -0.712  -0.706  -0.697  -0.653
 -0.649  -0.618  -0.598  -0.582  -0.547  -0.546  -0.538  -0.537
 -0.518  -0.509  -0.486  -0.477  -0.462  -0.461  -0.454  -0.447
 -0.436  -0.432  -0.430  -0.414  -0.409  -0.407  -0.401  -0.399
 -0.393  -0.379  -0.373  -0.368  -0.361  -0.359  -0.356  -0.352
 -0.341  -0.336  -0.334  -0.332  -0.330  -0.328  -0.324  -0.312
 -0.310  -0.306  -0.305  -0.299  -0.295  -0.289  -0.285  -0.279
 -0.271  -0.258  -0.255  -0.245  -0.243  -0.236  -0.234  -0.187
 -0.181  -0.174  -0.171  -0.161  -0.160  -0.151  -0.146  -0.146
 -0.144

          Ground-State Mulliken Net Atomic Charges

     Atom                 Charge (a.u.)
  ----------------------------------------
      1 O                    -0.208292
      2 C                     0.211155
      3 C                    -0.078350
      4 C                    -0.079779
      5 C                     0.217977
      6 O                    -0.168347
      7 C                    -0.050206
      8 C                    -0.054532
      9 O                    -0.166901
     10 C                     0.221202
     11 C                    -0.077902
     12 C                    -0.078318
     13 C                     0.213477
     14 O                    -0.216710
     15 O                    -0.180811
     16 O                    -0.180037
     17 O                    -0.215940
     18 C                    -0.145933
     19 C                     0.025790
     20 C                    -0.144028
     21 C                    -0.143530
     22 C                     0.024326
     23 O                    -0.186687
     24 H                     0.086481
     25 H                     0.083983
     26 H                     0.081458
     27 H                     0.078059
     28 H                     0.073915
     29 H                     0.078085
     30 H                     0.073490
     31 H                     0.090769
     32 O                    -0.212494
     33 C                    -0.147022
     34 C                     0.024689
     35 C                    -0.144325
     36 C                    -0.143571
     37 C                     0.026500
     38 O                    -0.185686
     39 H                     0.084679
     40 H                     0.087796
     41 H                     0.110979
     42 H                     0.091903
     43 H                     0.078897
     44 H                     0.073349
     45 H                     0.078868
     46 H                     0.073929
     47 H                     0.083885
     48 H                     0.089437
     49 H                     0.079097
     50 H                     0.108826
     51 H                     0.083572
     52 H                     0.084861
     53 H                     0.085184
     54 H                     0.103038
     55 H                     0.094944
     56 H                     0.104800
  ----------------------------------------
  Sum of atomic charges =     0.000000

                    Cartesian Multipole Moments
 -----------------------------------------------------------------
    Charge (ESU x 10^10)
                 0.0000
    Dipole Moment (Debye)
         X       0.4383      Y      -1.1263      Z      -1.9923
       Tot       2.3302
    Quadrupole Moments (Debye-Ang)
        XX    -140.3205     XY      15.0877     YY    -158.8368
        XZ       2.4453     YZ       0.5468     ZZ    -164.3185

 Total job time:  176.40s(wall), 8416.22s(cpu)
        *  Thank you very much for using Q-Chem.  Have a nice day.  *
