 Q-Chem 5.0, Q-Chem, Inc., Pleasanton, CA (2017)
 Q-Chem 5.0.1 for Intel X86 EM64T Linux

User input:
--------------------------------------------------------------
$molecule
0  1
O -3.94934 -3.66094 2.70899
C -3.26408 -4.56952 2.26188
C -3.36658 -6.02376 2.66595
C -3.11177 -6.36197 4.14397
C -2.95805 -5.18954 5.0873
O -3.87185 -5.28424 6.09795
C -3.57815 -4.42549 7.20499
C -3.53642 -5.23169 8.49899
O -3.42042 -4.34613 9.62381
C -2.15698 -3.96922 9.94133
C -2.09966 -3.05744 11.14384
C -3.12227 -1.9118 11.13686
C -4.25919 -2.04693 10.14395
O -5.41501 -2.33003 10.42409
O -2.34284 -4.28017 1.30526
O -3.98081 -1.63468 8.87941
O -1.16777 -4.23983 9.27156
C -4.94302 -1.21331 7.98143
C -2.47746 -3.77609 12.45506
C -1.85102 -3.03975 13.63733
C -2.67434 -1.7684 13.64184
C -3.704 -2.10768 12.5558
O -3.84334 -3.50455 12.63451
H -1.04911 -2.69887 11.2384
H -2.67604 -0.90012 11.01728
H -2.18566 -4.84919 12.46878
H -2.09996 -3.62946 14.54894
H -0.7508 -2.89104 13.58989
H -3.15769 -1.6683 14.63894
H -2.11743 -0.83992 13.39001
H -4.63314 -1.51665 12.71506
O -2.05168 -4.36903 5.0026
C -2.11076 -3.01532 0.80685
C -4.78693 -6.5899 2.47609
C -4.71413 -8.09821 2.25884
C -4.30648 -8.55921 3.64141
C -4.37013 -7.23091 4.40931
O -5.37703 -6.50283 3.75092
H -2.66295 -6.58648 2.00951
H -2.17952 -6.9574 4.26286
H -1.78252 -2.33684 1.62318
H -5.34555 -6.10793 1.64375
H -5.75426 -8.44379 2.06025
H -4.05356 -8.43676 1.43187
H -5.07518 -9.27379 4.01117
H -3.29626 -9.01765 3.71063
H -4.54078 -7.4517 5.48508
H -3.03279 -2.61525 0.33335
H -1.30962 -3.06721 0.04137
H -4.45844 -0.97373 7.01275
H -5.44026 -0.29797 8.36714
H -5.71473 -1.99525 7.82241
H -4.50464 -5.76857 8.59041
H -2.73647 -6.00645 8.4851
H -4.4169 -3.71766 7.28016
H -2.64379 -3.82836 7.12774
$end

$opt
CONSTRAINT
tors           1           2           3           4     -60.279
tors           3           4           5           6    +123.466
tors           4           5           6           7    +164.800
tors           5           6           7           8    -126.271
tors           6           7           8           9    -172.320
tors           7           8           9          10     -85.318
tors           8           9          10          11    -179.090
tors           9          10          11          12     -46.174
tors          11          12          13          14    +106.071
ENDCONSTRAINT
$end

$rem
JOBTYPE                   OPT
METHOD                    B3LYP
DFT_D                     d3_op
BASIS                     STO-3G
GEOM_OPT_MAX_CYCLES       100
GEOM_OPT_TOL_GRADIENT     300
GEOM_OPT_TOL_DISPLACEMENT 1200
GEOM_OPT_TOL_ENERGY       100
SYMMETRY                  False
THRESH                    12
SCF_CONVERGENCE           8
MAX_SUB_FILE_NUM          128
MEM_STATIC                400
MEM_TOTAL                 4000
$end
--------------------------------------------------------------

   15   -1510.1534841853      6.36E-09 Convergence criterion met
 Total energy in the final basis set = -1510.15348419
   13   -1510.2220110681      9.17E-09 Convergence criterion met
 Total energy in the final basis set = -1510.22201107
   14   -1510.2575500017      9.38E-09 Convergence criterion met
 Total energy in the final basis set = -1510.25755000
   14   -1510.2712164046      6.19E-09 Convergence criterion met
 Total energy in the final basis set = -1510.27121640
   14   -1510.2762275856      5.10E-09 Convergence criterion met
 Total energy in the final basis set = -1510.27622759
   13   -1510.2778798042      3.21E-09 Convergence criterion met
 Total energy in the final basis set = -1510.27787980
   12   -1510.2788645848      9.52E-09 Convergence criterion met
 Total energy in the final basis set = -1510.27886458
   12   -1510.2792786481      5.98E-09 Convergence criterion met
   12   -1510.2810203213      2.61E-09 Convergence criterion met
 Total energy in the final basis set = -1510.28102032
   11   -1510.2810618960      4.81E-09 Convergence criterion met
 Total energy in the final basis set = -1510.28106190
   12   -1510.2810929344      1.91E-09 Convergence criterion met
 Total energy in the final basis set = -1510.28109293
   12   -1510.2810884429      3.76E-09 Convergence criterion met
 Total energy in the final basis set = -1510.28108844
   10   -1510.2811072349      9.05E-09 Convergence criterion met
 Total energy in the final basis set = -1510.28110723
    9   -1510.2811080906      8.36E-09 Convergence criterion met
 Total energy in the final basis set = -1510.28110809

             Standard Nuclear Orientation (Angstroms)
    I     Atom           X                Y                Z
 ----------------------------------------------------------------
    1      O      -3.8476025033     1.6720621194     1.0621250655
    2      C      -4.5451238219     1.2799257139     0.1017058399
    3      C      -4.8909155305    -0.1971069457    -0.2901813448
    4      C      -3.6040512256    -1.0749117415    -0.6158017495
    5      C      -2.2705142262    -0.2510206250    -0.5037228202
    6      O      -1.3714396148    -0.8661320180     0.4256045677
    7      C      -0.0074033021    -0.3092797565     0.2561213745
    8      C       1.0100957596    -1.4828668670     0.0367590949
    9      O       2.3948208177    -0.9523856630     0.0516329387
   10      C       2.7641894233    -0.4769990059    -1.2489043462
   11      C       4.2354825836     0.0501247388    -1.1916823473
   12      C       4.5751926619     0.9894890699     0.0449604185
   13      C       3.3517380933     1.3843538925     0.9448139508
   14      O       3.0606028858     0.9649426801     2.0852662204
   15      O      -5.1829874460     2.1528607781    -0.8378134940
   16      O       2.5878748249     2.3583553216     0.2172983380
   17      O       2.0225525590    -0.5341954239    -2.2542080295
   18      C       1.4502481968     2.8502327706     1.0286169181
   19      C       5.2403309783    -1.1548466237    -0.9169010240
   20      C       6.7143537243    -0.6649290424    -1.2084112929
   21      C       7.0102333486     0.1974355214     0.0746566679
   22      C       5.6274805909     0.0959528140     0.8288144577
   23      O       5.1931495516    -1.2935514521     0.5542294928
   24      H       4.4470470381     0.5527880815    -2.1516514008
   25      H       5.0364246638     1.9256933266    -0.3182998873
   26      H       4.9562014817    -2.1060599356    -1.4076132461
   27      H       7.3982288962    -1.5248544191    -1.2859567976
   28      H       6.7770259916    -0.0784314224    -2.1389867057
   29      H       7.8131013109    -0.2492386174     0.6825495027
   30      H       7.2830632039     1.2379322034    -0.1631947199
   31      H       5.6547417825     0.2810942433     1.9200197675
   32      O      -1.9900991746     0.7677246874    -1.1752234287
   33      C      -4.8491256048     3.5616010004    -0.5248178483
   34      C      -5.4962637252    -1.0103236111     0.9351529092
   35      C      -6.1808549586    -2.3152707297     0.3678536056
   36      C      -4.9197476085    -3.1878044082     0.0140450248
   37      C      -3.7467500697    -2.2287725957     0.4611858917
   38      O      -4.3008694419    -1.5229922080     1.6403160097
   39      H      -5.5869574242    -0.1713760614    -1.1465901057
   40      H      -3.6548133869    -1.4688641400    -1.6480194625
   41      H      -3.7556547906     3.7391844773    -0.5777360715
   42      H      -6.1219916031    -0.4083349788     1.6222516619
   43      H      -6.7976648668    -2.7942037020     1.1448666452
   44      H      -6.8155261168    -2.1056338394    -0.5080359722
   45      H      -4.8970450650    -4.1205451965     0.5994376994
   46      H      -4.8637987578    -3.4417863006    -1.0565617211
   47      H      -2.7927525393    -2.7258219999     0.7201665019
   48      H      -5.2048170604     3.8519666741     0.4850452783
   49      H      -5.3620206584     4.1743416515    -1.2886888250
   50      H       0.5110969723     2.6960539683     0.4627289161
   51      H       1.5853658345     3.9332785017     1.2199304464
   52      H       1.4127070916     2.3004324005     1.9907483305
   53      H       0.9485331352    -2.2045146082     0.8759278594
   54      H       0.7962795887    -1.9991082280    -0.9232225404
   55      H       0.2686369174     0.2414265489     1.1795370095
   56      H      -0.0067809350     0.3962053193    -0.6025482272
 ----------------------------------------------------------------

    9   -1510.2811083278      6.65E-09 Convergence criterion met
 Total energy in the final basis set = -1510.28110833
 Final energy is   -1510.28110832782
 **  OPTIMIZATION CONVERGED  **

                    Orbital Energies (a.u.)
 --------------------------------------------------------------

 Alpha MOs
 -- Occupied --
-18.937 -18.935 -18.931 -18.928 -18.889 -18.886 -18.877 -18.876
-18.875 -18.869 -10.101 -10.101 -10.099 -10.094 -10.072 -10.064
-10.062 -10.061 -10.059 -10.058 -10.057 -10.055 -10.040 -10.039
-10.038 -10.035 -10.021 -10.020 -10.020 -10.019  -1.017  -1.012
 -1.006  -1.005  -0.970  -0.968  -0.940  -0.936  -0.933  -0.931
 -0.764  -0.762  -0.728  -0.722  -0.712  -0.706  -0.694  -0.660
 -0.659  -0.614  -0.597  -0.583  -0.546  -0.544  -0.538  -0.537
 -0.513  -0.511  -0.485  -0.480  -0.461  -0.460  -0.452  -0.442
 -0.432  -0.432  -0.428  -0.410  -0.409  -0.407  -0.405  -0.402
 -0.391  -0.380  -0.374  -0.363  -0.363  -0.360  -0.353  -0.349
 -0.346  -0.342  -0.337  -0.332  -0.330  -0.326  -0.323  -0.309
 -0.308  -0.306  -0.305  -0.301  -0.290  -0.288  -0.286  -0.274
 -0.273  -0.253  -0.250  -0.246  -0.245  -0.235  -0.232  -0.186
 -0.174  -0.172  -0.167  -0.159  -0.159  -0.152  -0.147  -0.144
 -0.142

          Ground-State Mulliken Net Atomic Charges

     Atom                 Charge (a.u.)
  ----------------------------------------
      1 O                    -0.213568
      2 C                     0.208492
      3 C                    -0.079794
      4 C                    -0.077346
      5 C                     0.213688
      6 O                    -0.169184
      7 C                    -0.057444
      8 C                    -0.049250
      9 O                    -0.164856
     10 C                     0.206908
     11 C                    -0.077744
     12 C                    -0.078011
     13 C                     0.213199
     14 O                    -0.210348
     15 O                    -0.168462
     16 O                    -0.175359
     17 O                    -0.213634
     18 C                    -0.137968
     19 C                     0.026163
     20 C                    -0.144211
     21 C                    -0.143611
     22 C                     0.025507
     23 O                    -0.184735
     24 H                     0.086988
     25 H                     0.085441
     26 H                     0.082408
     27 H                     0.078383
     28 H                     0.074153
     29 H                     0.078344
     30 H                     0.073416
     31 H                     0.089384
     32 O                    -0.215824
     33 C                    -0.128484
     34 C                     0.025782
     35 C                    -0.143738
     36 C                    -0.144513
     37 C                     0.024023
     38 O                    -0.186182
     39 H                     0.086052
     40 H                     0.086019
     41 H                     0.091649
     42 H                     0.083284
     43 H                     0.077991
     44 H                     0.073685
     45 H                     0.077977
     46 H                     0.072775
     47 H                     0.091496
     48 H                     0.087677
     49 H                     0.089719
     50 H                     0.089652
     51 H                     0.084630
     52 H                     0.100135
     53 H                     0.094889
     54 H                     0.092371
     55 H                     0.090015
     56 H                     0.101973
  ----------------------------------------
  Sum of atomic charges =     0.000000

                    Cartesian Multipole Moments
 -----------------------------------------------------------------
    Charge (ESU x 10^10)
                 0.0000
    Dipole Moment (Debye)
         X      -0.0141      Y       0.1984      Z      -1.8282
       Tot       1.8390
    Quadrupole Moments (Debye-Ang)
        XX    -134.2420     XY       6.6314     YY    -149.6745
        XZ      -1.3358     YZ       5.0180     ZZ    -170.2477

 Total job time:  73.66s(wall), 3504.97s(cpu)
        *  Thank you very much for using Q-Chem.  Have a nice day.  *
