 Q-Chem 5.0, Q-Chem, Inc., Pleasanton, CA (2017)
 Q-Chem 5.0.1 for Intel X86 EM64T Linux

User input:
--------------------------------------------------------------
$molecule
0  1
O 4.0548366201 -1.3230963771 1.3821390341
C 4.8818646047 -0.9937467915 0.5057838297
C 4.96349797 0.3566966709 -0.2867971339
C 3.5576100727 0.9995625172 -0.6214569314
C 2.337611687 0.0218578687 -0.4908530803
O 1.1749422551 0.7845837207 -0.140778251
C -0.0261425074 -0.0836828203 -0.1161723568
C -1.0542886503 0.4203791741 -1.1907477146
O -2.4140092125 0.2380338955 -0.632308044
C -3.3600603151 -0.0308032856 -1.6774809528
C -4.7830351418 -0.1918652327 -1.0357479025
C -4.7691406859 -0.8493554455 0.3999173771
C -3.5036730879 -1.7089923983 0.74433651
O -3.0557874972 -1.9673391633 1.8814526729
O 5.977029889 -1.8173724845 0.0848376693
O -3.0582071133 -2.3605403205 -0.4562411273
O -3.0698682231 -0.0880927503 -2.8917545977
C -1.9568438159 -3.299650323 -0.1490058963
C -5.3083261133 1.2628569849 -0.6499026092
C -6.7973804699 1.1698938767 -0.1221618999
C -6.574488537 0.6692432274 1.3547165202
C -5.0193219778 0.4069070244 1.338793813
O -4.5110017755 1.562158413 0.5624421836
H -5.4412824253 -0.7175716989 -1.7484124339
H -5.6278290331 -1.542825462 0.486813156
H -5.1343946596 2.0316648703 -1.4278505114
H -7.2828673236 2.1580807014 -0.1500018549
H -7.3982638583 0.4654785222 -0.7198777855
H -6.8211426779 1.4560334802 2.085684104
H -7.1564609211 -0.2347603932 1.5953371793
H -4.525041737 0.3457396526 2.3279003235
O 2.3197983385 -1.2024478797 -0.7463655021
C 5.9651158006 -3.0933106958 0.8370127221
C 5.5504530682 1.4699866839 0.6888830529
C 5.8547778528 2.7849891579 -0.1338216076
C 4.4092115766 3.3851354522 -0.3034981032
C 3.5380344113 2.249964133 0.3608041993
O 4.3688411062 1.8216221493 1.5097341673
H 5.5865944625 0.2108597135 -1.1861363038
H 3.5547029873 1.3505270089 -1.6711780713
H 5.0197570446 -3.6511993997 0.6775791671
H 6.3797955742 1.1172694728 1.3323467245
H 6.5103198724 3.4576469402 0.4415356282
H 6.3369241008 2.5623212787 -1.0992492143
H 4.2970398446 4.3299713647 0.2522097101
H 4.1389088047 3.5600053557 -1.3571359042
H 2.5248567003 2.5458113839 0.6941476637
H 6.0946496521 -2.9272721832 1.9262088244
H 6.8148001723 -3.6849971895 0.4496406339
H -1.5877664239 -3.6687189331 -1.1236185708
H -2.313110118 -4.1561273833 0.4597473921
H -1.1313990989 -2.8021580357 0.3980698287
H -0.875371635 1.502296227 -1.3825193738
H -0.9601854933 -0.1223660336 -2.1553648714
H -0.488375466 -0.0073402563 0.8912894385
H 0.291168889 -1.130557216 -0.3078827226
$end

$rem
JOBTYPE                   OPT
METHOD                    B3LYP
DFT_D                     d3_op
BASIS                     STO-3G
GEOM_OPT_MAX_CYCLES       100
GEOM_OPT_TOL_GRADIENT     300
GEOM_OPT_TOL_DISPLACEMENT 1200
GEOM_OPT_TOL_ENERGY       100
SYMMETRY                  False
THRESH                    12
SCF_CONVERGENCE           8
MAX_SUB_FILE_NUM          128
MEM_STATIC                400
MEM_TOTAL                 4000
$end
--------------------------------------------------------------

   16   -1510.2779847265      6.09E-09 Convergence criterion met
 Total energy in the final basis set = -1510.27798473
   13   -1510.2794059509      7.70E-09 Convergence criterion met
 Total energy in the final basis set = -1510.27940595
   13   -1510.2787117656      7.57E-09 Convergence criterion met
 Total energy in the final basis set = -1510.27871177
   13   -1510.2811932708      3.68E-09 Convergence criterion met
 Total energy in the final basis set = -1510.28119327
   13   -1510.2820387541      8.83E-09 Convergence criterion met
 Total energy in the final basis set = -1510.28203875
   14   -1510.2828278968      1.10E-09 Convergence criterion met
 Total energy in the final basis set = -1510.28282790
   13   -1510.2834781353      4.73E-09 Convergence criterion met
 Total energy in the final basis set = -1510.28347814
   13   -1510.2840258959      2.80E-09 Convergence criterion met
   12   -1510.2936088236      3.77E-09 Convergence criterion met
 Total energy in the final basis set = -1510.29360882
   12   -1510.2936639417      4.54E-09 Convergence criterion met
 Total energy in the final basis set = -1510.29366394
   11   -1510.2936712701      5.64E-09 Convergence criterion met
 Total energy in the final basis set = -1510.29367127
   11   -1510.2936789913      4.05E-09 Convergence criterion met
 Total energy in the final basis set = -1510.29367899
   10   -1510.2936846306      8.33E-09 Convergence criterion met
 Total energy in the final basis set = -1510.29368463
    9   -1510.2936875462      8.98E-09 Convergence criterion met
 Total energy in the final basis set = -1510.29368755

             Standard Nuclear Orientation (Angstroms)
    I     Atom           X                Y                Z
 ----------------------------------------------------------------
    1      O      -3.8514976077     1.5068512634     1.6521041175
    2      C      -3.8357379942     1.2407719977     0.4319254398
    3      C      -4.4594362675    -0.0182955715    -0.2774141114
    4      C      -3.4365884300    -1.1801224199    -0.6104812113
    5      C      -1.9754827510    -0.8769891678    -0.1399660556
    6      O      -1.1792585305    -2.0389162839    -0.3628175796
    7      C       0.2244357370    -1.8058398336     0.0576867682
    8      C       1.0980680307    -1.3716587521    -1.1705796306
    9      O       2.3859837343    -0.9294528522    -0.5909005719
   10      C       3.2056230045    -0.2941646508    -1.5826735756
   11      C       4.4535550323     0.2853057874    -0.8390816590
   12      C       4.0522456003     1.1415062255     0.4358077593
   13      C       2.5001501918     1.3102207269     0.6340017665
   14      O       1.8295463860     1.0592306947     1.6574232376
   15      O      -3.3545585852     2.1320146022    -0.5856225159
   16      O       1.9703808843     1.8862547014    -0.5663906869
   17      O       2.9306367766    -0.2473298304    -2.7995740472
   18      C       0.5328101072     2.2073884847    -0.4022081756
   19      C       5.3114726534    -0.8644786999    -0.1509251380
   20      C       6.6921040459    -0.2472726243     0.3097723665
   21      C       6.2581688229     0.5497992132     1.5964818263
   22      C       4.7021946780     0.2886045905     1.6009348277
   23      O       4.5914571850    -1.1084800317     1.1181571290
   24      H       5.0469376707     0.8708470502    -1.5625779873
   25      H       4.4981439029     2.1516120287     0.3777185408
   26      H       5.3863226084    -1.7984529608    -0.7413373645
   27      H       7.4104558261    -1.0469309322     0.5504518617
   28      H       7.1322868561     0.4016756238    -0.4643466587
   29      H       6.7214493446     0.1320374241     2.5045521216
   30      H       6.5024432299     1.6223540958     1.5357784010
   31      H       4.1905064516     0.4016969738     2.5765908139
   32      O      -1.5522050961     0.1877603016     0.3698062687
   33      C      -2.7832521000     3.3408618003     0.0478495813
   34      C      -5.4642613416    -0.7775566554     0.6900909515
   35      C      -6.3802802753    -1.7188333655    -0.1852202228
   36      C      -5.3723515676    -2.8729655435    -0.5448817208
   37      C      -4.0712672935    -2.3879009668     0.2081624830
   38      O      -4.5924040111    -1.7260962748     1.4234954822
   39      H      -4.9614274720     0.3248490254    -1.1992677732
   40      H      -3.4099632863    -1.4022975595    -1.6931077303
   41      H      -2.0197254927     3.0779918970     0.8069676491
   42      H      -5.9932118381    -0.1155671433     1.4024899272
   43      H      -7.2280013412    -2.0940019168     0.4097699167
   44      H      -6.7727235566    -1.2035484376    -1.0762235832
   45      H      -5.7078775329    -3.8436055540    -0.1461954369
   46      H      -5.2099752148    -2.9743344213    -1.6299501948
   47      H      -3.3466586325    -3.1834702447     0.4691129943
   48      H      -3.5684654208     3.9534824088     0.5372302368
   49      H      -2.3157519042     3.9250068688    -0.7659609412
   50      H       0.1852904290     2.5439867503    -1.3960941361
   51      H       0.3974548442     3.0317700413     0.3267457542
   52      H      -0.0795890767     1.3382262844    -0.0669854037
   53      H       1.2410600795    -2.2160825299    -1.8794517037
   54      H       0.6061314622    -0.5389189781    -1.7193583197
   55      H       0.5946985966    -2.7623580379     0.4772313620
   56      H       0.2700970986    -1.0112144517     0.8339494367
 ----------------------------------------------------------------

   10   -1510.2936903055      6.95E-09 Convergence criterion met
 Total energy in the final basis set = -1510.29369031
 Final energy is   -1510.29369030549
 **  OPTIMIZATION CONVERGED  **

                    Orbital Energies (a.u.)
 --------------------------------------------------------------

 Alpha MOs
 -- Occupied --
-18.951 -18.934 -18.924 -18.922 -18.898 -18.889 -18.886 -18.877
-18.868 -18.862 -10.117 -10.101 -10.094 -10.091 -10.077 -10.076
-10.063 -10.061 -10.058 -10.056 -10.056 -10.046 -10.045 -10.037
-10.035 -10.034 -10.022 -10.021 -10.020 -10.018  -1.029  -1.015
 -1.001  -1.000  -0.972  -0.969  -0.953  -0.939  -0.929  -0.925
 -0.766  -0.762  -0.731  -0.723  -0.714  -0.705  -0.697  -0.658
 -0.652  -0.618  -0.597  -0.582  -0.547  -0.545  -0.539  -0.536
 -0.519  -0.509  -0.488  -0.475  -0.466  -0.459  -0.456  -0.443
 -0.434  -0.433  -0.429  -0.412  -0.409  -0.406  -0.403  -0.402
 -0.398  -0.380  -0.370  -0.369  -0.362  -0.357  -0.349  -0.348
 -0.345  -0.338  -0.336  -0.335  -0.330  -0.327  -0.325  -0.315
 -0.309  -0.306  -0.304  -0.302  -0.291  -0.290  -0.278  -0.276
 -0.273  -0.262  -0.251  -0.247  -0.243  -0.236  -0.233  -0.193
 -0.178  -0.175  -0.167  -0.165  -0.156  -0.146  -0.146  -0.143
 -0.142

          Ground-State Mulliken Net Atomic Charges

     Atom                 Charge (a.u.)
  ----------------------------------------
      1 O                    -0.214856
      2 C                     0.214687
      3 C                    -0.081671
      4 C                    -0.077343
      5 C                     0.220725
      6 O                    -0.169180
      7 C                    -0.051694
      8 C                    -0.047154
      9 O                    -0.170825
     10 C                     0.214746
     11 C                    -0.078624
     12 C                    -0.078179
     13 C                     0.214123
     14 O                    -0.215114
     15 O                    -0.175563
     16 O                    -0.179403
     17 O                    -0.210623
     18 C                    -0.142959
     19 C                     0.025620
     20 C                    -0.143973
     21 C                    -0.143695
     22 C                     0.024281
     23 O                    -0.186847
     24 H                     0.085561
     25 H                     0.083310
     26 H                     0.081665
     27 H                     0.077741
     28 H                     0.073619
     29 H                     0.078036
     30 H                     0.073176
     31 H                     0.090700
     32 O                    -0.205825
     33 C                    -0.128835
     34 C                     0.025364
     35 C                    -0.144161
     36 C                    -0.143716
     37 C                     0.025280
     38 O                    -0.187764
     39 H                     0.084229
     40 H                     0.087819
     41 H                     0.093924
     42 H                     0.088945
     43 H                     0.078639
     44 H                     0.073543
     45 H                     0.078964
     46 H                     0.073506
     47 H                     0.087928
     48 H                     0.084547
     49 H                     0.085400
     50 H                     0.083199
     51 H                     0.079482
     52 H                     0.106854
     53 H                     0.087506
     54 H                     0.089040
     55 H                     0.095765
     56 H                     0.110078
  ----------------------------------------
  Sum of atomic charges =    -0.000000

                    Cartesian Multipole Moments
 -----------------------------------------------------------------
    Charge (ESU x 10^10)
                 0.0000
    Dipole Moment (Debye)
         X       0.2832      Y      -0.0580      Z      -2.3319
       Tot       2.3498
    Quadrupole Moments (Debye-Ang)
        XX    -138.9458     XY       6.1122     YY    -152.1248
        XZ      11.5229     YZ       2.9050     ZZ    -172.3223

 Total job time:  132.02s(wall), 6288.36s(cpu)
        *  Thank you very much for using Q-Chem.  Have a nice day.  *
