 Q-Chem 5.0, Q-Chem, Inc., Pleasanton, CA (2017)
 Q-Chem 5.0.1 for Intel X86 EM64T Linux

User input:
--------------------------------------------------------------
$molecule
0  1
O -3.94934 -3.66094 2.70899
C -3.26408 -4.56952 2.26188
C -3.36658 -6.02376 2.66595
C -3.70145 -6.32248 4.13649
C -4.07128 -5.13576 4.99846
O -4.9229 -5.53039 5.99065
C -5.23595 -4.48223 6.91402
C -4.76238 -4.85675 8.31459
O -5.69913 -4.37782 9.29234
C -5.16667 -4.03717 10.49217
C -6.20336 -3.56276 11.48256
C -7.38208 -2.79417 10.86762
C -7.54059 -2.91874 9.3656
O -8.58405 -2.76394 8.74772
O -2.22556 -4.25597 1.44315
O -6.50131 -2.25138 8.76321
O -3.96623 -3.91677 10.70209
C -6.58032 -1.50981 7.59648
C -6.94975 -4.74403 12.13781
C -7.52927 -4.30024 13.47933
C -8.62569 -3.36588 13.01312
C -8.54575 -3.58926 11.49731
O -8.10773 -4.91771 11.36329
H -5.67567 -3.008 12.29171
H -7.41362 -1.71562 11.13884
H -6.31341 -5.6462 12.27349
H -7.99878 -5.20057 13.93735
H -6.80707 -3.86062 14.20043
H -9.59338 -3.72909 13.4249
H -8.47779 -2.29398 13.26785
H -9.5271 -3.35506 11.02878
O -3.29862 -4.19277 5.1351
C -1.93455 -2.97918 1.0103
C -4.57447 -6.68012 1.96319
C -4.35362 -8.18564 1.85184
C -4.50344 -8.59288 3.2992
C -4.92498 -7.25382 3.91979
O -5.62301 -6.59914 2.89346
H -2.44878 -6.54322 2.30648
H -2.86995 -6.84731 4.65669
H -1.71721 -2.32048 1.8782
H -4.78418 -6.25451 0.95662
H -5.21523 -8.59393 1.27578
H -3.40672 -8.50292 1.36445
H -5.32183 -9.34394 3.36694
H -3.58251 -8.98793 3.78029
H -5.50854 -7.46629 4.84016
H -2.78885 -2.5681 0.43094
H -1.04072 -3.01229 0.35421
H -5.57509 -1.11177 7.34871
H -7.27344 -0.65372 7.7393
H -6.9438 -2.13507 6.7547
H -4.82967 -5.96447 8.38719
H -3.69305 -4.58632 8.45914
H -6.34648 -4.45886 6.92611
H -4.90244 -3.45474 6.65221
$end

$opt
CONSTRAINT
tors           1           2           3           4     -35.319
tors           3           4           5           6    +150.857
tors           4           5           6           7    +175.333
tors           5           6           7           8    -118.278
tors           6           7           8           9    -143.392
tors           7           8           9          10    -148.818
tors           8           9          10          11    -179.090
tors           9          10          11          12     -33.782
tors          11          12          13          14    +155.668
ENDCONSTRAINT
$end

$rem
JOBTYPE                   OPT
METHOD                    B3LYP
DFT_D                     d3_op
BASIS                     STO-3G
GEOM_OPT_MAX_CYCLES       100
GEOM_OPT_TOL_GRADIENT     300
GEOM_OPT_TOL_DISPLACEMENT 1200
GEOM_OPT_TOL_ENERGY       100
SYMMETRY                  False
THRESH                    12
SCF_CONVERGENCE           8
MAX_SUB_FILE_NUM          128
MEM_STATIC                400
MEM_TOTAL                 4000
$end
--------------------------------------------------------------

   15   -1510.1010819606      8.19E-09 Convergence criterion met
 Total energy in the final basis set = -1510.10108196
   14   -1510.1739853504      8.46E-09 Convergence criterion met
 Total energy in the final basis set = -1510.17398535
   15   -1510.2126420405      2.13E-09 Convergence criterion met
 Total energy in the final basis set = -1510.21264204
   15   -1510.2381045201      1.81E-09 Convergence criterion met
 Total energy in the final basis set = -1510.23810452
   14   -1510.2507085635      3.49E-09 Convergence criterion met
 Total energy in the final basis set = -1510.25070856
   14   -1510.2586564871      1.83E-09 Convergence criterion met
 Total energy in the final basis set = -1510.25865649
   13   -1510.2640142322      7.51E-09 Convergence criterion met
 Total energy in the final basis set = -1510.26401423
   12   -1510.2676923120      7.74E-09 Convergence criterion met
   11   -1510.2772921018      8.01E-09 Convergence criterion met
 Total energy in the final basis set = -1510.27729210
   12   -1510.2774337734      2.86E-09 Convergence criterion met
 Total energy in the final basis set = -1510.27743377
   11   -1510.2775056838      4.33E-09 Convergence criterion met
 Total energy in the final basis set = -1510.27750568
   11   -1510.2775411788      3.74E-09 Convergence criterion met
 Total energy in the final basis set = -1510.27754118
   10   -1510.2775538625      9.40E-09 Convergence criterion met
 Total energy in the final basis set = -1510.27755386
    9   -1510.2775568524      9.57E-09 Convergence criterion met
 Total energy in the final basis set = -1510.27755685

             Standard Nuclear Orientation (Angstroms)
    I     Atom           X                Y                Z
 ----------------------------------------------------------------
    1      O       4.0548366201    -1.3230963771     1.3821390341
    2      C       4.8818646047    -0.9937467915     0.5057838297
    3      C       4.9634979700     0.3566966709    -0.2867971339
    4      C       3.5576100727     0.9995625172    -0.6214569314
    5      C       2.3376116870     0.0218578687    -0.4908530803
    6      O       1.1749422551     0.7845837207    -0.1407782510
    7      C      -0.0261425074    -0.0836828203    -0.1161723568
    8      C      -1.0542886503     0.4203791741    -1.1907477146
    9      O      -2.4140092125     0.2380338955    -0.6323080440
   10      C      -3.3600603151    -0.0308032856    -1.6774809528
   11      C      -4.7830351418    -0.1918652327    -1.0357479025
   12      C      -4.7691406859    -0.8493554455     0.3999173771
   13      C      -3.5036730879    -1.7089923983     0.7443365100
   14      O      -3.0557874972    -1.9673391633     1.8814526729
   15      O       5.9770298890    -1.8173724845     0.0848376693
   16      O      -3.0582071133    -2.3605403205    -0.4562411273
   17      O      -3.0698682231    -0.0880927503    -2.8917545977
   18      C      -1.9568438159    -3.2996503230    -0.1490058963
   19      C      -5.3083261133     1.2628569849    -0.6499026092
   20      C      -6.7973804699     1.1698938767    -0.1221618999
   21      C      -6.5744885370     0.6692432274     1.3547165202
   22      C      -5.0193219778     0.4069070244     1.3387938130
   23      O      -4.5110017755     1.5621584130     0.5624421836
   24      H      -5.4412824253    -0.7175716989    -1.7484124339
   25      H      -5.6278290331    -1.5428254620     0.4868131560
   26      H      -5.1343946596     2.0316648703    -1.4278505114
   27      H      -7.2828673236     2.1580807014    -0.1500018549
   28      H      -7.3982638583     0.4654785222    -0.7198777855
   29      H      -6.8211426779     1.4560334802     2.0856841040
   30      H      -7.1564609211    -0.2347603932     1.5953371793
   31      H      -4.5250417370     0.3457396526     2.3279003235
   32      O       2.3197983385    -1.2024478797    -0.7463655021
   33      C       5.9651158006    -3.0933106958     0.8370127221
   34      C       5.5504530682     1.4699866839     0.6888830529
   35      C       5.8547778528     2.7849891579    -0.1338216076
   36      C       4.4092115766     3.3851354522    -0.3034981032
   37      C       3.5380344113     2.2499641330     0.3608041993
   38      O       4.3688411062     1.8216221493     1.5097341673
   39      H       5.5865944625     0.2108597135    -1.1861363038
   40      H       3.5547029873     1.3505270089    -1.6711780713
   41      H       5.0197570446    -3.6511993997     0.6775791671
   42      H       6.3797955742     1.1172694728     1.3323467245
   43      H       6.5103198724     3.4576469402     0.4415356282
   44      H       6.3369241008     2.5623212787    -1.0992492143
   45      H       4.2970398446     4.3299713647     0.2522097101
   46      H       4.1389088047     3.5600053557    -1.3571359042
   47      H       2.5248567003     2.5458113839     0.6941476637
   48      H       6.0946496521    -2.9272721832     1.9262088244
   49      H       6.8148001723    -3.6849971895     0.4496406339
   50      H      -1.5877664239    -3.6687189331    -1.1236185708
   51      H      -2.3131101180    -4.1561273833     0.4597473921
   52      H      -1.1313990989    -2.8021580357     0.3980698287
   53      H      -0.8753716350     1.5022962270    -1.3825193738
   54      H      -0.9601854933    -0.1223660336    -2.1553648714
   55      H      -0.4883754660    -0.0073402563     0.8912894385
   56      H       0.2911688890    -1.1305572160    -0.3078827226
 ----------------------------------------------------------------

    9   -1510.2775577096      4.40E-09 Convergence criterion met
 Total energy in the final basis set = -1510.27755771
 Final energy is   -1510.27755770965
 **  OPTIMIZATION CONVERGED  **

                    Orbital Energies (a.u.)
 --------------------------------------------------------------

 Alpha MOs
 -- Occupied --
-18.934 -18.931 -18.931 -18.929 -18.887 -18.887 -18.877 -18.873
-18.872 -18.869 -10.102 -10.100 -10.098 -10.093 -10.068 -10.066
-10.063 -10.061 -10.060 -10.060 -10.059 -10.057 -10.039 -10.038
-10.037 -10.036 -10.021 -10.021 -10.019 -10.019  -1.015  -1.013
 -1.005  -1.004  -0.970  -0.970  -0.940  -0.935  -0.933  -0.929
 -0.764  -0.763  -0.728  -0.722  -0.712  -0.704  -0.693  -0.661
 -0.659  -0.613  -0.597  -0.579  -0.546  -0.544  -0.538  -0.537
 -0.514  -0.511  -0.486  -0.478  -0.465  -0.462  -0.451  -0.439
 -0.434  -0.432  -0.422  -0.410  -0.408  -0.408  -0.406  -0.398
 -0.393  -0.386  -0.374  -0.365  -0.361  -0.357  -0.355  -0.348
 -0.345  -0.339  -0.337  -0.331  -0.329  -0.324  -0.317  -0.312
 -0.311  -0.305  -0.302  -0.296  -0.292  -0.291  -0.288  -0.274
 -0.272  -0.254  -0.251  -0.246  -0.245  -0.234  -0.233  -0.181
 -0.177  -0.171  -0.169  -0.160  -0.156  -0.148  -0.146  -0.143
 -0.143

          Ground-State Mulliken Net Atomic Charges

     Atom                 Charge (a.u.)
  ----------------------------------------
      1 O                    -0.210020
      2 C                     0.211933
      3 C                    -0.078774
      4 C                    -0.078567
      5 C                     0.215665
      6 O                    -0.173094
      7 C                    -0.056011
      8 C                    -0.051735
      9 O                    -0.170619
     10 C                     0.216692
     11 C                    -0.076712
     12 C                    -0.078249
     13 C                     0.215740
     14 O                    -0.215245
     15 O                    -0.171623
     16 O                    -0.174124
     17 O                    -0.216473
     18 C                    -0.129134
     19 C                     0.024435
     20 C                    -0.144976
     21 C                    -0.142020
     22 C                     0.025267
     23 O                    -0.187649
     24 H                     0.087280
     25 H                     0.083738
     26 H                     0.082251
     27 H                     0.078258
     28 H                     0.073702
     29 H                     0.078354
     30 H                     0.073479
     31 H                     0.090265
     32 O                    -0.213916
     33 C                    -0.128776
     34 C                     0.025440
     35 C                    -0.144788
     36 C                    -0.142867
     37 C                     0.024139
     38 O                    -0.187903
     39 H                     0.086717
     40 H                     0.084500
     41 H                     0.091233
     42 H                     0.082552
     43 H                     0.078298
     44 H                     0.073834
     45 H                     0.078345
     46 H                     0.072917
     47 H                     0.093860
     48 H                     0.087631
     49 H                     0.088889
     50 H                     0.091277
     51 H                     0.087380
     52 H                     0.090888
     53 H                     0.087071
     54 H                     0.095890
     55 H                     0.095119
     56 H                     0.100236
  ----------------------------------------
  Sum of atomic charges =     0.000000

                    Cartesian Multipole Moments
 -----------------------------------------------------------------
    Charge (ESU x 10^10)
                 0.0000
    Dipole Moment (Debye)
         X      -0.1043      Y       0.1258      Z      -1.4557
       Tot       1.4648
    Quadrupole Moments (Debye-Ang)
        XX    -131.2153     XY       3.1384     YY    -152.6461
        XZ      -5.0729     YZ      -3.5140     ZZ    -170.0743

 Total job time:  63.87s(wall), 3035.89s(cpu)
        *  Thank you very much for using Q-Chem.  Have a nice day.  *
