 Q-Chem 5.0, Q-Chem, Inc., Pleasanton, CA (2017)
 Q-Chem 5.0.1 for Intel X86 EM64T Linux

User input:
--------------------------------------------------------------
$molecule
0  1
O -3.94934 -3.66094 2.70899
C -3.26408 -4.56952 2.26188
C -3.36658 -6.02376 2.66595
C -2.86427 -6.40011 4.06948
C -2.48026 -5.25351 4.97828
O -2.82714 -5.54621 6.26646
C -2.20128 -4.68881 7.22688
C -1.00065 -5.3899 7.85384
O -0.89957 -5.03923 9.24297
C 0.29866 -4.53712 9.63192
C 0.64131 -4.87465 11.06347
C 1.34091 -3.75203 11.84358
C 1.27473 -2.37284 11.21896
O 0.34741 -1.585 11.33705
O -2.40912 -4.29571 1.24114
O 2.37614 -1.98569 10.52351
O 1.1596 -4.15789 8.84692
C 2.50861 -0.76583 9.89405
C -0.55111 -5.16927 12.00538
C -0.07853 -6.02475 13.18101
C 0.74132 -5.01529 13.9565
C 0.48335 -3.75531 13.12419
O -0.82007 -3.93658 12.62449
H 1.29093 -5.77726 11.007
H 2.41092 -3.9745 12.05443
H -1.41352 -5.66885 11.51544
H -0.98012 -6.28315 13.78189
H 0.45549 -6.95926 12.90464
H 0.2987 -4.9094 14.97194
H 1.82651 -5.24263 14.0354
H 0.64742 -2.84396 13.74107
O -1.63065 -4.42722 4.66413
C -2.2109 -3.03905 0.70851
C -4.82047 -6.51993 2.71275
C -4.85933 -8.03146 2.5086
C -4.27707 -8.5048 3.82213
C -4.12361 -7.16813 4.56057
O -5.18216 -6.38515 4.06501
H -2.79912 -6.60145 1.89995
H -1.97129 -7.06238 4.0214
H -1.82987 -2.34815 1.49077
H -5.48065 -6.01377 1.97441
H -5.93191 -8.32856 2.46706
H -4.34062 -8.40144 1.59811
H -5.03385 -9.14621 4.32672
H -3.31027 -9.04796 3.74665
H -4.13909 -7.37198 5.65188
H -3.16213 -2.64575 0.29034
H -1.46191 -3.10361 -0.10716
H 3.50225 -0.71564 9.40352
H 2.43321 0.05817 10.63543
H 1.72084 -0.64822 9.11938
H -1.22306 -6.47904 7.8617
H -0.09433 -5.26657 7.22084
H -2.96801 -4.57604 8.02349
H -1.97945 -3.64719 6.90091
$end

$opt
CONSTRAINT
tors           1           2           3           4     -71.242
tors           3           4           5           6    +143.760
tors           4           5           6           7    +164.800
tors           5           6           7           8    -100.057
tors           6           7           8           9    -143.392
tors           7           8           9          10    -125.818
tors           8           9          10          11    -148.728
tors           9          10          11          12    -141.614
tors          11          12          13          14     +83.879
ENDCONSTRAINT
$end

$rem
JOBTYPE                   OPT
METHOD                    B3LYP
DFT_D                     d3_op
BASIS                     STO-3G
GEOM_OPT_MAX_CYCLES       100
GEOM_OPT_TOL_GRADIENT     300
GEOM_OPT_TOL_DISPLACEMENT 1200
GEOM_OPT_TOL_ENERGY       100
SYMMETRY                  False
THRESH                    12
SCF_CONVERGENCE           8
MAX_SUB_FILE_NUM          128
MEM_STATIC                400
MEM_TOTAL                 4000
$end
--------------------------------------------------------------

   15   -1510.1383554861      6.74E-09 Convergence criterion met
 Total energy in the final basis set = -1510.13835549
   14   -1510.2077140401      6.93E-09 Convergence criterion met
 Total energy in the final basis set = -1510.20771404
   15   -1510.2447738904      1.19E-09 Convergence criterion met
 Total energy in the final basis set = -1510.24477389
   14   -1510.2615077738      6.96E-09 Convergence criterion met
 Total energy in the final basis set = -1510.26150777
   13   -1510.2678900967      8.07E-09 Convergence criterion met
 Total energy in the final basis set = -1510.26789010
   13   -1510.2706737380      2.87E-09 Convergence criterion met
 Total energy in the final basis set = -1510.27067374
   13   -1510.2719450562      2.64E-09 Convergence criterion met
 Total energy in the final basis set = -1510.27194506
   12   -1510.2724853274      5.58E-09 Convergence criterion met
   11   -1510.2738874893      6.55E-09 Convergence criterion met
 Total energy in the final basis set = -1510.27388749
   11   -1510.2739178886      4.92E-09 Convergence criterion met
 Total energy in the final basis set = -1510.27391789
   11   -1510.2739434607      3.75E-09 Convergence criterion met
 Total energy in the final basis set = -1510.27394346
   10   -1510.2739551861      5.46E-09 Convergence criterion met
 Total energy in the final basis set = -1510.27395519
    9   -1510.2739609599      9.66E-09 Convergence criterion met
 Total energy in the final basis set = -1510.27396096
    9   -1510.2739622239      4.39E-09 Convergence criterion met
 Total energy in the final basis set = -1510.27396222

             Standard Nuclear Orientation (Angstroms)
    I     Atom           X                Y                Z
 ----------------------------------------------------------------
    1      O      -4.9072844056     1.2600763463     1.8132495075
    2      C      -5.1548692290     1.2864557878     0.5888096907
    3      C      -5.3408782606     0.0660396809    -0.3807781193
    4      C      -3.9917745145    -0.7129450021    -0.6912931344
    5      C      -2.7371289200    -0.0599411584    -0.0099399238
    6      O      -1.8252951618    -1.0802718149     0.4165933492
    7      C      -0.4996743042    -0.4895285785     0.7206292344
    8      C       0.4812702145    -0.7213449387    -0.4912621600
    9      O       1.8494702848    -0.9817793577     0.0182224873
   10      C       2.7939761711    -0.0767788023    -0.5758406029
   11      C       4.1997049935    -0.7656637686    -0.7118966082
   12      C       5.4085847051     0.2202565470    -0.4098009210
   13      C       4.9521626003     1.6939956945    -0.1227145404
   14      O       4.5597262705     2.1748218553     0.9616996577
   15      O      -5.3429468661     2.4867413949    -0.1712114056
   16      O       5.0943825321     2.4413264643    -1.3369823015
   17      O       2.4921912671     1.0625884291    -0.9956226993
   18      C       4.5618901801     3.8098905719    -1.1493148009
   19      C       4.4426857479    -1.8791667423     0.3886741650
   20      C       5.7159227288    -2.7230050972    -0.0146785850
   21      C       6.8764125134    -1.7305248810     0.3665629293
   22      C       6.0507159499    -0.4796302454     0.8633986628
   23      O       4.8932510993    -1.0892175895     1.5576154040
   24      H       4.2604847432    -1.1756466735    -1.7377309872
   25      H       6.1122345835     0.2428716918    -1.2604800019
   26      H       3.5363655039    -2.4633472326     0.6382513853
   27      H       5.7663998417    -3.6515443034     0.5755824038
   28      H       5.7149929889    -2.9844955159    -1.0849213593
   29      H       7.4954079722    -2.1311988595     1.1850200555
   30      H       7.5303772716    -1.4887893435    -0.4865387488
   31      H       6.5884937350     0.2094215821     1.5428817408
   32      O      -2.5239085234     1.1673531605     0.1114579988
   33      C      -5.1062006264     3.6671516563     0.6908440821
   34      C      -6.1935148396    -1.0910937725     0.2965203190
   35      C      -6.6686439578    -2.0859538878    -0.8355489494
   36      C      -5.3312142222    -2.8567949239    -1.1426852708
   37      C      -4.3375212068    -2.1578618715    -0.1332967080
   38      O      -5.1842300556    -1.8715220342     1.0470722926
   39      H      -5.8105894841     0.4338813116    -1.3095410620
   40      H      -3.7958335798    -0.7393392141    -1.7797957197
   41      H      -4.0722902552     3.6707965859     1.0923356566
   42      H      -6.9899118783    -0.7344526073     0.9779519877
   43      H      -7.4478398345    -2.7636530412    -0.4520560403
   44      H      -7.0636508360    -1.5529045323    -1.7151035175
   45      H      -5.4215169400    -3.9300340546    -0.9111461466
   46      H      -5.0063990199    -2.7478702091    -2.1898150913
   47      H      -3.4491634569    -2.7505819080     0.1574719552
   48      H      -5.8163086972     3.7008368573     1.5424450486
   49      H      -5.2579556223     4.5526836313     0.0466480637
   50      H       4.7503556841     4.3460178364    -2.0975956120
   51      H       5.0687275133     4.3367156965    -0.3151308847
   52      H       3.4716779761     3.7881516622    -0.9452740668
   53      H       0.1531492876    -1.6248797519    -1.0513318083
   54      H       0.4854327902     0.1594796636    -1.1668789658
   55      H      -0.1049371080    -1.0187605082     1.6126137105
   56      H      -0.6144342693     0.5921031144     0.9428717898
 ----------------------------------------------------------------

    9   -1510.2739628945      2.66E-09 Convergence criterion met
 Total energy in the final basis set = -1510.27396289
 Final energy is   -1510.27396289446
 **  OPTIMIZATION CONVERGED  **

                    Orbital Energies (a.u.)
 --------------------------------------------------------------

 Alpha MOs
 -- Occupied --
-18.939 -18.936 -18.925 -18.925 -18.888 -18.886 -18.886 -18.883
-18.865 -18.863 -10.109 -10.105 -10.092 -10.090 -10.075 -10.071
-10.058 -10.058 -10.058 -10.058 -10.056 -10.055 -10.042 -10.041
-10.034 -10.033 -10.021 -10.020 -10.019 -10.019  -1.020  -1.016
 -1.001  -1.001  -0.969  -0.969  -0.946  -0.941  -0.928  -0.926
 -0.764  -0.762  -0.728  -0.722  -0.714  -0.706  -0.694  -0.656
 -0.656  -0.617  -0.596  -0.581  -0.546  -0.545  -0.538  -0.537
 -0.513  -0.511  -0.488  -0.478  -0.460  -0.456  -0.453  -0.448
 -0.432  -0.432  -0.424  -0.410  -0.406  -0.403  -0.402  -0.401
 -0.394  -0.389  -0.375  -0.363  -0.361  -0.357  -0.353  -0.352
 -0.344  -0.339  -0.338  -0.330  -0.330  -0.327  -0.323  -0.311
 -0.309  -0.307  -0.305  -0.298  -0.292  -0.283  -0.282  -0.275
 -0.273  -0.254  -0.253  -0.247  -0.246  -0.233  -0.233  -0.187
 -0.174  -0.169  -0.167  -0.164  -0.161  -0.144  -0.144  -0.143
 -0.142

          Ground-State Mulliken Net Atomic Charges

     Atom                 Charge (a.u.)
  ----------------------------------------
      1 O                    -0.214339
      2 C                     0.210539
      3 C                    -0.080417
      4 C                    -0.077621
      5 C                     0.213333
      6 O                    -0.171296
      7 C                    -0.054394
      8 C                    -0.053686
      9 O                    -0.174789
     10 C                     0.215962
     11 C                    -0.076662
     12 C                    -0.080825
     13 C                     0.210206
     14 O                    -0.214262
     15 O                    -0.170196
     16 O                    -0.170150
     17 O                    -0.207144
     18 C                    -0.128255
     19 C                     0.022910
     20 C                    -0.144671
     21 C                    -0.143586
     22 C                     0.025241
     23 O                    -0.187927
     24 H                     0.086098
     25 H                     0.084558
     26 H                     0.092127
     27 H                     0.078138
     28 H                     0.072144
     29 H                     0.078133
     30 H                     0.073262
     31 H                     0.086143
     32 O                    -0.210496
     33 C                    -0.128289
     34 C                     0.025797
     35 C                    -0.144076
     36 C                    -0.144221
     37 C                     0.023185
     38 O                    -0.186913
     39 H                     0.084865
     40 H                     0.084604
     41 H                     0.093270
     42 H                     0.084441
     43 H                     0.077957
     44 H                     0.073295
     45 H                     0.077926
     46 H                     0.071974
     47 H                     0.091970
     48 H                     0.086726
     49 H                     0.087943
     50 H                     0.087706
     51 H                     0.087755
     52 H                     0.093009
     53 H                     0.085747
     54 H                     0.097205
     55 H                     0.095680
     56 H                     0.104368
  ----------------------------------------
  Sum of atomic charges =    -0.000000

                    Cartesian Multipole Moments
 -----------------------------------------------------------------
    Charge (ESU x 10^10)
                -0.0000
    Dipole Moment (Debye)
         X       0.4910      Y      -1.5333      Z      -4.1816
       Tot       4.4809
    Quadrupole Moments (Debye-Ang)
        XX    -142.4903     XY      -4.3988     YY    -152.2069
        XZ       2.7662     YZ       3.9684     ZZ    -166.0409

 Total job time:  53.38s(wall), 2532.24s(cpu)
        *  Thank you very much for using Q-Chem.  Have a nice day.  *
