 Q-Chem 5.0, Q-Chem, Inc., Pleasanton, CA (2017)
 Q-Chem 5.0.1 for Intel X86 EM64T Linux

User input:
--------------------------------------------------------------
$molecule
0  1
O -4.9072844056 1.2600763463 1.8132495075
C -5.154869229 1.2864557878 0.5888096907
C -5.3408782606 0.0660396809 -0.3807781193
C -3.9917745145 -0.7129450021 -0.6912931344
C -2.73712892 -0.0599411584 -0.0099399238
O -1.8252951618 -1.0802718149 0.4165933492
C -0.4996743042 -0.4895285785 0.7206292344
C 0.4812702145 -0.7213449387 -0.49126216
O 1.8494702848 -0.9817793577 0.0182224873
C 2.7939761711 -0.0767788023 -0.5758406029
C 4.1997049935 -0.7656637686 -0.7118966082
C 5.4085847051 0.220256547 -0.409800921
C 4.9521626003 1.6939956945 -0.1227145404
O 4.5597262705 2.1748218553 0.9616996577
O -5.3429468661 2.4867413949 -0.1712114056
O 5.0943825321 2.4413264643 -1.3369823015
O 2.4921912671 1.0625884291 -0.9956226993
C 4.5618901801 3.8098905719 -1.1493148009
C 4.4426857479 -1.8791667423 0.388674165
C 5.7159227288 -2.7230050972 -0.014678585
C 6.8764125134 -1.730524881 0.3665629293
C 6.0507159499 -0.4796302454 0.8633986628
O 4.8932510993 -1.0892175895 1.557615404
H 4.2604847432 -1.1756466735 -1.7377309872
H 6.1122345835 0.2428716918 -1.2604800019
H 3.5363655039 -2.4633472326 0.6382513853
H 5.7663998417 -3.6515443034 0.5755824038
H 5.7149929889 -2.9844955159 -1.0849213593
H 7.4954079722 -2.1311988595 1.1850200555
H 7.5303772716 -1.4887893435 -0.4865387488
H 6.588493735 0.2094215821 1.5428817408
O -2.5239085234 1.1673531605 0.1114579988
C -5.1062006264 3.6671516563 0.6908440821
C -6.1935148396 -1.0910937725 0.296520319
C -6.6686439578 -2.0859538878 -0.8355489494
C -5.3312142222 -2.8567949239 -1.1426852708
C -4.3375212068 -2.1578618715 -0.133296708
O -5.1842300556 -1.8715220342 1.0470722926
H -5.8105894841 0.4338813116 -1.309541062
H -3.7958335798 -0.7393392141 -1.7797957197
H -4.0722902552 3.6707965859 1.0923356566
H -6.9899118783 -0.7344526073 0.9779519877
H -7.4478398345 -2.7636530412 -0.4520560403
H -7.063650836 -1.5529045323 -1.7151035175
H -5.42151694 -3.9300340546 -0.9111461466
H -5.0063990199 -2.7478702091 -2.1898150913
H -3.4491634569 -2.750581908 0.1574719552
H -5.8163086972 3.7008368573 1.5424450486
H -5.2579556223 4.5526836313 0.0466480637
H 4.7503556841 4.3460178364 -2.097595612
H 5.0687275133 4.3367156965 -0.3151308847
H 3.4716779761 3.7881516622 -0.9452740668
H 0.1531492876 -1.6248797519 -1.0513318083
H 0.4854327902 0.1594796636 -1.1668789658
H -0.104937108 -1.0187605082 1.6126137105
H -0.6144342693 0.5921031144 0.9428717898
$end

$rem
JOBTYPE                   OPT
METHOD                    B3LYP
DFT_D                     d3_op
BASIS                     STO-3G
GEOM_OPT_MAX_CYCLES       100
GEOM_OPT_TOL_GRADIENT     300
GEOM_OPT_TOL_DISPLACEMENT 1200
GEOM_OPT_TOL_ENERGY       100
SYMMETRY                  False
THRESH                    12
SCF_CONVERGENCE           8
MAX_SUB_FILE_NUM          128
MEM_STATIC                400
MEM_TOTAL                 4000
$end
--------------------------------------------------------------

   16   -1510.2739838190      4.93E-09 Convergence criterion met
 Total energy in the final basis set = -1510.27398382
   14   -1510.2779589645      2.37E-09 Convergence criterion met
 Total energy in the final basis set = -1510.27795896
   13   -1510.2803722451      9.40E-09 Convergence criterion met
 Total energy in the final basis set = -1510.28037225
   14   -1510.2819641992      2.24E-09 Convergence criterion met
 Total energy in the final basis set = -1510.28196420
   13   -1510.2826982451      6.13E-09 Convergence criterion met
 Total energy in the final basis set = -1510.28269825
   13   -1510.2835028734      5.52E-09 Convergence criterion met
 Total energy in the final basis set = -1510.28350287
   13   -1510.2842324346      3.98E-09 Convergence criterion met
 Total energy in the final basis set = -1510.28423243
   13   -1510.2848884161      5.01E-09 Convergence criterion met
   11   -1510.2927997428      1.63E-09 Convergence criterion met
 Total energy in the final basis set = -1510.29279974
    9   -1510.2927974563      4.70E-09 Convergence criterion met
 Total energy in the final basis set = -1510.29279746
    9   -1510.2927986587      5.50E-09 Convergence criterion met
 Total energy in the final basis set = -1510.29279866
    9   -1510.2927997075      6.92E-09 Convergence criterion met
 Total energy in the final basis set = -1510.29279971
    9   -1510.2927980286      7.05E-09 Convergence criterion met
 Total energy in the final basis set = -1510.29279803
   10   -1510.2928006775      2.52E-09 Convergence criterion met
 Total energy in the final basis set = -1510.29280068

             Standard Nuclear Orientation (Angstroms)
    I     Atom           X                Y                Z
 ----------------------------------------------------------------
    1      O      -3.2519737496     2.2925317278     0.4912898580
    2      C      -3.2074652590     1.3656658405    -0.3461075063
    3      C      -4.3248222911     0.2995332708    -0.6315740478
    4      C      -3.8123714422    -1.2025791011    -0.5734850606
    5      C      -2.2823744640    -1.3238837487    -0.2735092215
    6      O      -1.6627262118    -1.9938410410    -1.3874084832
    7      C      -0.1973673429    -2.0584429208    -1.1827134340
    8      C       0.4982333456    -1.1483849558    -2.2606352511
    9      O       1.9672558463    -1.0717550007    -2.0520475964
   10      C       2.2949105216    -0.2140290434    -0.9613423395
   11      C       3.8432181844    -0.2647503228    -0.7451182703
   12      C       4.3439159999     0.7152813965     0.3914764176
   13      C       3.2402772619     1.6597841054     0.9991732500
   14      O       2.7443594904     1.5983304203     2.1436609329
   15      O      -2.1063841892     1.1170123773    -1.2262896564
   16      O       2.9855155344     2.7150455131     0.0594554630
   17      O       1.4639809405     0.4355154626    -0.2833681446
   18      C       1.9591945120     3.6290488815     0.6092089964
   19      C       4.2597933939    -1.6716819827    -0.1296535561
   20      C       5.8326452268    -1.8074927822    -0.1939542088
   21      C       6.2701327968    -0.8697566332     0.9919538492
   22      C       4.8709596444    -0.3203233581     1.4721610350
   23      O       3.9744083744    -1.4900914912     1.3101365738
   24      H       4.3430962585    -0.0772849813    -1.7124702544
   25      H       5.1609410868     1.3527882715     0.0087369254
   26      H       3.6925468605    -2.5296739097    -0.5402777698
   27      H       6.1352999468    -2.8520875063    -0.0184450811
   28      H       6.2360879922    -1.4828092778    -1.1664997676
   29      H       6.7555427947    -1.4421128576     1.7984006344
   30      H       6.9483488390    -0.0630469419     0.6713130506
   31      H       4.8264786613     0.0546420064     2.5130134485
   32      O      -1.6703532452    -0.9646404540     0.7556925504
   33      C      -0.9870831435     2.0480108222    -0.9356188800
   34      C      -5.4020573653     0.3018546783     0.5287766587
   35      C      -6.6806755774    -0.4824703301     0.0383362607
   36      C      -6.1682474762    -1.9696528546     0.1048148761
   37      C      -4.6920798278    -1.7611431489     0.6294938430
   38      O      -4.8056943205    -0.6019613897     1.5409274093
   39      H      -4.7760780351     0.5190850398    -1.6169496191
   40      H      -4.0212199412    -1.7350572314    -1.5176828622
   41      H      -0.0944421400     1.4499617955    -0.6402700086
   42      H      -5.5823905741     1.3033897960     0.9654305834
   43      H      -7.5230342192    -0.3149541444     0.7279811136
   44      H      -6.9895497300    -0.1834592159    -0.9762559705
   45      H      -6.7507753522    -2.5661106915     0.8249551313
   46      H      -6.1938069803    -2.4745023476    -0.8741081416
   47      H      -4.2504490808    -2.6282494937     1.1579360810
   48      H      -1.2867165661     2.7331866618    -0.1182821591
   49      H      -0.7658955461     2.6300162777    -1.8515299797
   50      H       1.6821482166     4.3141149735    -0.2130390261
   51      H       2.3553389790     4.2182584376     1.4619501346
   52      H       1.0633473695     3.0744687684     0.9527956281
   53      H       0.3697670304    -1.5817230902    -3.2725020591
   54      H       0.0335282453    -0.1409946331    -2.2372700486
   55      H       0.1304146686    -3.1124336709    -1.2915713939
   56      H       0.0286477715    -1.6861547356    -0.1589019824
 ----------------------------------------------------------------

    8   -1510.2928002711      9.81E-09 Convergence criterion met
 Total energy in the final basis set = -1510.29280027
 Final energy is   -1510.29280027106
 **  OPTIMIZATION CONVERGED  **

                    Orbital Energies (a.u.)
 --------------------------------------------------------------

 Alpha MOs
 -- Occupied --
-18.951 -18.930 -18.927 -18.920 -18.898 -18.888 -18.885 -18.874
-18.874 -18.862 -10.117 -10.098 -10.096 -10.090 -10.078 -10.066
-10.064 -10.059 -10.057 -10.055 -10.054 -10.044 -10.038 -10.037
-10.036 -10.034 -10.023 -10.020 -10.019 -10.018  -1.028  -1.011
 -1.003  -0.998  -0.972  -0.968  -0.953  -0.935  -0.931  -0.924
 -0.765  -0.762  -0.729  -0.722  -0.714  -0.705  -0.696  -0.655
 -0.651  -0.621  -0.597  -0.581  -0.547  -0.543  -0.538  -0.535
 -0.513  -0.507  -0.485  -0.474  -0.462  -0.457  -0.456  -0.449
 -0.436  -0.431  -0.428  -0.412  -0.410  -0.408  -0.401  -0.398
 -0.393  -0.381  -0.376  -0.365  -0.362  -0.356  -0.354  -0.346
 -0.343  -0.338  -0.334  -0.331  -0.328  -0.326  -0.325  -0.316
 -0.310  -0.308  -0.304  -0.302  -0.292  -0.286  -0.277  -0.275
 -0.269  -0.262  -0.246  -0.245  -0.243  -0.236  -0.231  -0.197
 -0.174  -0.169  -0.165  -0.162  -0.159  -0.151  -0.146  -0.142
 -0.141

          Ground-State Mulliken Net Atomic Charges

     Atom                 Charge (a.u.)
  ----------------------------------------
      1 O                    -0.209471
      2 C                     0.214688
      3 C                    -0.077834
      4 C                    -0.078739
      5 C                     0.213754
      6 O                    -0.173892
      7 C                    -0.060338
      8 C                    -0.051132
      9 O                    -0.168876
     10 C                     0.221724
     11 C                    -0.077255
     12 C                    -0.081519
     13 C                     0.215412
     14 O                    -0.213427
     15 O                    -0.178644
     16 O                    -0.177456
     17 O                    -0.204331
     18 C                    -0.129366
     19 C                     0.025152
     20 C                    -0.143942
     21 C                    -0.143762
     22 C                     0.024946
     23 O                    -0.188740
     24 H                     0.088275
     25 H                     0.083928
     26 H                     0.084320
     27 H                     0.078601
     28 H                     0.073649
     29 H                     0.078764
     30 H                     0.073595
     31 H                     0.091345
     32 O                    -0.208467
     33 C                    -0.153863
     34 C                     0.024474
     35 C                    -0.144248
     36 C                    -0.143789
     37 C                     0.026035
     38 O                    -0.185561
     39 H                     0.084313
     40 H                     0.085927
     41 H                     0.108658
     42 H                     0.091420
     43 H                     0.078478
     44 H                     0.072652
     45 H                     0.078083
     46 H                     0.072978
     47 H                     0.083892
     48 H                     0.097276
     49 H                     0.075356
     50 H                     0.085375
     51 H                     0.084449
     52 H                     0.095844
     53 H                     0.091801
     54 H                     0.097760
     55 H                     0.083729
     56 H                     0.107999
  ----------------------------------------
  Sum of atomic charges =     0.000000

                    Cartesian Multipole Moments
 -----------------------------------------------------------------
    Charge (ESU x 10^10)
                -0.0000
    Dipole Moment (Debye)
         X       1.0887      Y      -0.9944      Z      -4.4045
       Tot       4.6447
    Quadrupole Moments (Debye-Ang)
        XX    -135.1004     XY       4.3180     YY    -154.4711
        XZ       4.0515     YZ      -0.1704     ZZ    -166.7556

 Total job time:  138.60s(wall), 6608.33s(cpu)
        *  Thank you very much for using Q-Chem.  Have a nice day.  *
