 Q-Chem 5.0, Q-Chem, Inc., Pleasanton, CA (2017)
 Q-Chem 5.0.1 for Intel X86 EM64T Linux

User input:
--------------------------------------------------------------
$molecule
0  1
O -4.0026149398 1.4587474564 1.5167416441
C -4.658295762 1.1436978453 0.5007677744
C -4.9772292755 -0.2995800922 -0.0270812963
C -3.7099485498 -1.0438394155 -0.6322008317
C -2.411188895 -0.15968836 -0.6045525438
O -1.2840330804 -0.9634270694 -0.2496159426
C -0.0237760479 -0.200821304 -0.4291962393
C 1.0300475847 -1.1348493246 -1.1245618176
O 2.3769351142 -0.8584124996 -0.5752642975
C 3.2277154474 -0.2946219115 -1.5870105985
C 4.6420424667 -0.0441316312 -0.9610602504
C 4.6859886243 1.0246372837 0.2082648488
C 3.364578071 1.8222826164 0.4863378965
O 2.9965271987 2.2950855306 1.5826529205
O -5.2685283445 2.0855975512 -0.3906032553
O 2.673993955 2.0327516686 -0.7505304669
O 2.8938926186 -0.1390878669 -2.7822292609
C 1.5062550343 2.9211641878 -0.5472784028
C 5.1520886731 -1.333595677 -0.1796646784
C 6.6956616828 -1.1676109081 0.1224557587
C 6.6665932313 -0.1521916756 1.3251641998
C 5.1178527786 0.1256249315 1.4433644475
O 4.5148394373 -1.1937929194 1.1491717851
H 5.3205755602 0.2391031122 -1.7846576237
H 5.4674025179 1.7777558062 -0.007507679
H 4.8647890595 -2.2952060265 -0.6472560371
H 7.1362894457 -2.1330950482 0.417448068
H 7.2472253593 -0.7797083044 -0.7488598828
H 7.044943037 -0.6141560683 2.2509743741
H 7.2428967548 0.7654282306 1.1258097207
H 4.7663183019 0.5104750251 2.4207205428
O -2.3418737548 1.0558277062 -0.8972130404
C -4.9201300805 3.4644747571 0.0211746487
C -5.3552017924 -1.2873197103 1.1601848434
C -6.0351949076 -2.5724342222 0.544226395
C -4.7885389776 -3.307573317 -0.0743680659
C -3.624235205 -2.3134205536 0.3117972364
O -4.040456842 -1.7810359565 1.6299213556
H -5.7854565162 -0.2200948117 -0.7750294364
H -3.8900419789 -1.33083301 -1.6853856443
H -3.8236628531 3.6284101435 -0.0117062813
H -5.9080745266 -0.8112097436 1.9929927617
H -6.5063429248 -3.1746038833 1.3372939442
H -6.7993852655 -2.3206760883 -0.2084409503
H -4.6257872568 -4.2905856325 0.3953397576
H -4.8726380733 -3.4460991498 -1.1641755739
H -2.6122176824 -2.7567308668 0.3727118374
H -5.2804215245 3.6902716514 1.0457379986
H -5.4176073502 4.1356084687 -0.7028605151
H 0.9105705553 2.8659199444 -1.4769241854
H 1.8301218459 3.9689014102 -0.3794702624
H 0.8900133258 2.6014749149 0.3162528574
H 0.7808069841 -2.1924340208 -0.8934922142
H 1.0496935902 -0.9815225698 -2.2249759742
H 0.3614511694 0.094427348 0.571642863
H -0.234331256 0.7182849571 -1.0138550764
$end

$rem
JOBTYPE                   OPT
METHOD                    B3LYP
DFT_D                     d3_op
BASIS                     STO-3G
GEOM_OPT_MAX_CYCLES       100
GEOM_OPT_TOL_GRADIENT     300
GEOM_OPT_TOL_DISPLACEMENT 1200
GEOM_OPT_TOL_ENERGY       100
SYMMETRY                  False
THRESH                    12
SCF_CONVERGENCE           8
MAX_SUB_FILE_NUM          128
MEM_STATIC                400
MEM_TOTAL                 4000
$end
--------------------------------------------------------------

   16   -1510.2815251409      5.49E-09 Convergence criterion met
 Total energy in the final basis set = -1510.28152514
   14   -1510.2826964965      1.94E-09 Convergence criterion met
 Total energy in the final basis set = -1510.28269650
   14   -1510.2833333614      2.02E-09 Convergence criterion met
 Total energy in the final basis set = -1510.28333336
   14   -1510.2831663160      2.57E-09 Convergence criterion met
 Total energy in the final basis set = -1510.28316632
   13   -1510.2846677364      8.36E-09 Convergence criterion met
 Total energy in the final basis set = -1510.28466774
   13   -1510.2851507273      4.00E-09 Convergence criterion met
 Total energy in the final basis set = -1510.28515073
   13   -1510.2857872964      3.83E-09 Convergence criterion met
 Total energy in the final basis set = -1510.28578730
   13   -1510.2863002819      4.55E-09 Convergence criterion met
   12   -1510.2987210057      2.94E-09 Convergence criterion met
 Total energy in the final basis set = -1510.29872101
   11   -1510.2987457882      4.36E-09 Convergence criterion met
 Total energy in the final basis set = -1510.29874579
   11   -1510.2987464393      3.48E-09 Convergence criterion met
 Total energy in the final basis set = -1510.29874644
   10   -1510.2987453901      8.42E-09 Convergence criterion met
 Total energy in the final basis set = -1510.29874539
   10   -1510.2987440569      8.79E-09 Convergence criterion met
 Total energy in the final basis set = -1510.29874406
    9   -1510.2987409736      7.75E-09 Convergence criterion met
 Total energy in the final basis set = -1510.29874097

             Standard Nuclear Orientation (Angstroms)
    I     Atom           X                Y                Z
 ----------------------------------------------------------------
    1      O      -3.2995069106     2.1632231554     0.0278896932
    2      C      -3.1065558862     1.0709519549    -0.5469660078
    3      C      -4.0916693552    -0.1592301785    -0.5570017906
    4      C      -3.5169053918    -1.5088622218     0.0517115819
    5      C      -2.0417121685    -1.3533347339     0.5313082896
    6      O      -1.2609620911    -2.4125954346    -0.0291498470
    7      C       0.1853679634    -2.1224958888     0.1333713821
    8      C       0.6154360293    -1.1364316613    -1.0094186351
    9      O       1.9675941719    -0.6413820405    -0.6628331964
   10      C       2.3136996517     0.5263784812    -1.4072703770
   11      C       3.7633931125     0.9353412985    -0.9886594845
   12      C       3.9591634383     0.9910959209     0.5844316911
   13      C       2.6358122028     0.7626795430     1.4035179010
   14      O       2.4401589578    -0.0641942771     2.3193526332
   15      O      -1.9674971903     0.7884873155    -1.3748720908
   16      O       1.6844215279     1.7374686944     0.9667231478
   17      O       1.5800148957     1.0794445339    -2.2585594117
   18      C       0.4452167880     1.6577007559     1.7784604036
   19      C       4.8065571577    -0.2068719525    -1.3645117369
   20      C       6.2681275709     0.3710648959    -1.1946737102
   21      C       6.4284697610     0.3466274295     0.3716459518
   22      C       5.0058887859    -0.1764929152     0.8097531019
   23      O       4.6700857581    -1.1631574334    -0.2446232346
   24      H       4.0040849509     1.8972235786    -1.4734314095
   25      H       4.3787505881     1.9695203302     0.8828102353
   26      H       4.6084385737    -0.7091178367    -2.3314861250
   27      H       7.0016563761    -0.2859287609    -1.6882237172
   28      H       6.3630538110     1.3851305030    -1.6149138435
   29      H       7.2120318842    -0.3616773276     0.6850028146
   30      H       6.6571834107     1.3380139169     0.7938606572
   31      H       4.9453666120    -0.6455552029     1.8111796092
   32      O      -1.5932775018    -0.4495820739     1.2731797677
   33      C      -1.1571854459     2.0212642514    -1.5587246127
   34      C      -5.3160460588     0.1122503891     0.4127763152
   35      C      -6.4736197323    -0.9005657997     0.0592074318
   36      C      -5.9009375229    -2.2375006672     0.6615394433
   37      C      -4.5268059009    -1.7380026290     1.2607399519
   38      O      -4.8230029111    -0.3667328191     1.7258818572
   39      H      -4.4215409185    -0.3197507694    -1.5999850259
   40      H      -3.5597507460    -2.3357151261    -0.6782726569
   41      H      -1.0528517735     2.5732358894    -0.6053342378
   42      H      -5.6046705123     1.1793031009     0.4769680143
   43      H      -7.4108167234    -0.6037354285     0.5559943022
   44      H      -6.6531815514    -0.9647596278    -1.0259240172
   45      H      -6.5480586317    -2.6307663702     1.4615370756
   46      H      -5.7604737815    -3.0223921189    -0.0986438469
   47      H      -4.1217775729    -2.3517880085     2.0886595624
   48      H      -1.6365822359     2.6889973125    -2.3025724700
   49      H      -0.1578767654     1.6938395494    -1.9245669377
   50      H      -0.1896986516     0.7828377093     1.5040001188
   51      H      -0.1114917216     2.5903178313     1.5730663265
   52      H       0.6802432437     1.6004389731     2.8595501629
   53      H       0.6347203782    -1.6597799582    -1.9897573308
   54      H      -0.1319151430    -0.3144907537    -1.0715845244
   55      H       0.7152686427    -3.0915637473     0.0534757110
   56      H       0.3967240284    -1.6594892016     1.1215075915
 ----------------------------------------------------------------

    9   -1510.2987402336      4.97E-09 Convergence criterion met
 Total energy in the final basis set = -1510.29874023
 Final energy is   -1510.29874023355
 **  OPTIMIZATION CONVERGED  **

                    Orbital Energies (a.u.)
 --------------------------------------------------------------

 Alpha MOs
 -- Occupied --
-18.944 -18.942 -18.928 -18.923 -18.889 -18.888 -18.887 -18.884
-18.875 -18.867 -10.111 -10.109 -10.097 -10.094 -10.075 -10.071
-10.063 -10.062 -10.058 -10.057 -10.042 -10.041 -10.040 -10.039
-10.039 -10.035 -10.022 -10.021 -10.021 -10.020  -1.023  -1.018
 -1.006  -1.001  -0.972  -0.970  -0.948  -0.943  -0.932  -0.928
 -0.766  -0.764  -0.731  -0.724  -0.712  -0.706  -0.698  -0.652
 -0.649  -0.618  -0.598  -0.582  -0.547  -0.546  -0.538  -0.537
 -0.518  -0.509  -0.486  -0.477  -0.462  -0.461  -0.454  -0.447
 -0.436  -0.432  -0.430  -0.414  -0.409  -0.407  -0.401  -0.399
 -0.393  -0.379  -0.373  -0.368  -0.361  -0.359  -0.355  -0.352
 -0.342  -0.336  -0.334  -0.332  -0.330  -0.328  -0.325  -0.312
 -0.310  -0.306  -0.305  -0.299  -0.295  -0.289  -0.284  -0.279
 -0.271  -0.258  -0.255  -0.245  -0.243  -0.235  -0.235  -0.187
 -0.181  -0.173  -0.171  -0.161  -0.160  -0.151  -0.146  -0.146
 -0.144

          Ground-State Mulliken Net Atomic Charges

     Atom                 Charge (a.u.)
  ----------------------------------------
      1 O                    -0.208267
      2 C                     0.211205
      3 C                    -0.078571
      4 C                    -0.079568
      5 C                     0.217709
      6 O                    -0.168426
      7 C                    -0.050163
      8 C                    -0.054593
      9 O                    -0.166950
     10 C                     0.221362
     11 C                    -0.077992
     12 C                    -0.078318
     13 C                     0.213505
     14 O                    -0.216704
     15 O                    -0.181155
     16 O                    -0.179968
     17 O                    -0.215931
     18 C                    -0.145659
     19 C                     0.025774
     20 C                    -0.144067
     21 C                    -0.143566
     22 C                     0.024317
     23 O                    -0.186675
     24 H                     0.086459
     25 H                     0.084015
     26 H                     0.081483
     27 H                     0.078100
     28 H                     0.073969
     29 H                     0.078120
     30 H                     0.073551
     31 H                     0.090848
     32 O                    -0.212014
     33 C                    -0.147464
     34 C                     0.024808
     35 C                    -0.144281
     36 C                    -0.143601
     37 C                     0.026429
     38 O                    -0.185690
     39 H                     0.084685
     40 H                     0.087777
     41 H                     0.089552
     42 H                     0.091854
     43 H                     0.078894
     44 H                     0.073393
     45 H                     0.078821
     46 H                     0.073898
     47 H                     0.083951
     48 H                     0.078720
     49 H                     0.111004
     50 H                     0.108201
     51 H                     0.083917
     52 H                     0.085222
     53 H                     0.085169
     54 H                     0.103097
     55 H                     0.095116
     56 H                     0.104697
  ----------------------------------------
  Sum of atomic charges =     0.000000

                    Cartesian Multipole Moments
 -----------------------------------------------------------------
    Charge (ESU x 10^10)
                 0.0000
    Dipole Moment (Debye)
         X       0.4257      Y      -0.9545      Z      -2.1181
       Tot       2.3619
    Quadrupole Moments (Debye-Ang)
        XX    -139.5182     XY      14.1132     YY    -159.5308
        XZ       3.7739     YZ       0.9328     ZZ    -164.5196

 Total job time:  147.19s(wall), 7014.56s(cpu)
        *  Thank you very much for using Q-Chem.  Have a nice day.  *
