 Q-Chem 5.0, Q-Chem, Inc., Pleasanton, CA (2017)
 Q-Chem 5.0.1 for Intel X86 EM64T Linux

User input:
--------------------------------------------------------------
$molecule
0  1
O -3.94934 -3.66094 2.70899
C -3.26408 -4.56952 2.26188
C -3.36658 -6.02376 2.66595
C -2.86427 -6.40011 4.06948
C -2.48026 -5.25351 4.97828
O -2.89814 -5.51155 6.25273
C -2.39514 -4.57445 7.21089
C -1.91797 -5.30603 8.46118
O -2.21935 -4.52656 9.62929
C -1.14469 -4.05383 10.30809
C -1.52622 -3.26199 11.53614
C -2.305 -1.9684 11.25613
C -2.89008 -1.83748 9.86428
O -3.89988 -1.21163 9.57586
O -2.40814 -4.29537 1.24206
O -1.94925 -1.89817 8.88007
O 0.02165 -4.28691 10.01578
C -2.06355 -1.28603 7.64478
C -2.4937 -3.99657 12.48091
C -2.36434 -3.42538 13.89145
C -2.99157 -2.05901 13.70057
C -3.47015 -2.17511 12.24773
O -3.76704 -3.54273 12.0941
H -0.58029 -3.04077 12.08203
H -1.71737 -1.04629 11.46016
H -2.34512 -5.09855 12.49026
H -3.02754 -4.03295 14.5483
H -1.33684 -3.42005 14.31466
H -3.85513 -1.97071 14.39662
H -2.30326 -1.19636 13.83374
H -4.31345 -1.47239 12.06962
O -1.6326 -4.42417 4.66827
C -2.20775 -3.0381 0.71168
C -4.81934 -6.52508 2.71494
C -4.85297 -8.03517 2.50028
C -4.25903 -8.5156 3.80629
C -4.11403 -7.18451 4.55692
O -5.17833 -6.40379 4.06988
H -2.79923 -6.60109 1.89946
H -1.96283 -7.04997 4.0116
H -1.82611 -2.34916 1.4954
H -5.48432 -6.01631 1.98278
H -5.92504 -8.33499 2.46509
H -4.34077 -8.39849 1.58345
H -5.00587 -9.1711 4.30749
H -3.28618 -9.04627 3.72032
H -4.12348 -7.39816 5.64655
H -3.15811 -2.64258 0.29366
H -1.45831 -3.10237 -0.10361
H -1.15408 -1.4963 7.04578
H -2.14947 -0.18602 7.7737
H -2.95553 -1.66185 7.10082
H -2.52218 -6.23145 8.57792
H -0.86579 -5.64239 8.33001
H -3.29694 -4.00152 7.51598
H -1.63286 -3.83999 6.88067
$end

$opt
CONSTRAINT
tors           1           2           3           4     -71.242
tors           3           4           5           6    +140.182
tors           4           5           6           7    +170.941
tors           5           6           7           8    -136.330
tors           6           7           8           9    -143.392
tors           7           8           9          10    -113.947
tors           8           9          10          11    -179.090
tors           9          10          11          12     -64.182
tors          11          12          13          14    +150.844
ENDCONSTRAINT
$end

$rem
JOBTYPE                   OPT
METHOD                    B3LYP
DFT_D                     d3_op
BASIS                     STO-3G
GEOM_OPT_MAX_CYCLES       100
GEOM_OPT_TOL_GRADIENT     300
GEOM_OPT_TOL_DISPLACEMENT 1200
GEOM_OPT_TOL_ENERGY       100
SYMMETRY                  False
THRESH                    12
SCF_CONVERGENCE           8
MAX_SUB_FILE_NUM          128
MEM_STATIC                400
MEM_TOTAL                 4000
$end
--------------------------------------------------------------

   15   -1510.1399789033      9.96E-09 Convergence criterion met
 Total energy in the final basis set = -1510.13997890
   13   -1510.2100476006      7.77E-09 Convergence criterion met
 Total energy in the final basis set = -1510.21004760
   14   -1510.2473786437      4.96E-09 Convergence criterion met
 Total energy in the final basis set = -1510.24737864
   14   -1510.2641262228      6.40E-09 Convergence criterion met
 Total energy in the final basis set = -1510.26412622
   14   -1510.2727866478      5.05E-09 Convergence criterion met
 Total energy in the final basis set = -1510.27278665
   13   -1510.2766064268      4.75E-09 Convergence criterion met
 Total energy in the final basis set = -1510.27660643
   13   -1510.2786898841      2.00E-09 Convergence criterion met
 Total energy in the final basis set = -1510.27868988
   13   -1510.2797421486      2.34E-09 Convergence criterion met
    9   -1510.2815152873      9.77E-09 Convergence criterion met
 Total energy in the final basis set = -1510.28151529
    9   -1510.2815192754      9.16E-09 Convergence criterion met
 Total energy in the final basis set = -1510.28151928
    9   -1510.2815210789      3.63E-09 Convergence criterion met
 Total energy in the final basis set = -1510.28152108
    9   -1510.2815228678      3.66E-09 Convergence criterion met
 Total energy in the final basis set = -1510.28152287
    9   -1510.2815243818      2.93E-09 Convergence criterion met
 Total energy in the final basis set = -1510.28152438
    9   -1510.2815253865      3.05E-09 Convergence criterion met
 Total energy in the final basis set = -1510.28152539

             Standard Nuclear Orientation (Angstroms)
    I     Atom           X                Y                Z
 ----------------------------------------------------------------
    1      O      -4.0026149398     1.4587474564     1.5167416441
    2      C      -4.6582957620     1.1436978453     0.5007677744
    3      C      -4.9772292755    -0.2995800922    -0.0270812963
    4      C      -3.7099485498    -1.0438394155    -0.6322008317
    5      C      -2.4111888950    -0.1596883600    -0.6045525438
    6      O      -1.2840330804    -0.9634270694    -0.2496159426
    7      C      -0.0237760479    -0.2008213040    -0.4291962393
    8      C       1.0300475847    -1.1348493246    -1.1245618176
    9      O       2.3769351142    -0.8584124996    -0.5752642975
   10      C       3.2277154474    -0.2946219115    -1.5870105985
   11      C       4.6420424667    -0.0441316312    -0.9610602504
   12      C       4.6859886243     1.0246372837     0.2082648488
   13      C       3.3645780710     1.8222826164     0.4863378965
   14      O       2.9965271987     2.2950855306     1.5826529205
   15      O      -5.2685283445     2.0855975512    -0.3906032553
   16      O       2.6739939550     2.0327516686    -0.7505304669
   17      O       2.8938926186    -0.1390878669    -2.7822292609
   18      C       1.5062550343     2.9211641878    -0.5472784028
   19      C       5.1520886731    -1.3335956770    -0.1796646784
   20      C       6.6956616828    -1.1676109081     0.1224557587
   21      C       6.6665932313    -0.1521916756     1.3251641998
   22      C       5.1178527786     0.1256249315     1.4433644475
   23      O       4.5148394373    -1.1937929194     1.1491717851
   24      H       5.3205755602     0.2391031122    -1.7846576237
   25      H       5.4674025179     1.7777558062    -0.0075076790
   26      H       4.8647890595    -2.2952060265    -0.6472560371
   27      H       7.1362894457    -2.1330950482     0.4174480680
   28      H       7.2472253593    -0.7797083044    -0.7488598828
   29      H       7.0449430370    -0.6141560683     2.2509743741
   30      H       7.2428967548     0.7654282306     1.1258097207
   31      H       4.7663183019     0.5104750251     2.4207205428
   32      O      -2.3418737548     1.0558277062    -0.8972130404
   33      C      -4.9201300805     3.4644747571     0.0211746487
   34      C      -5.3552017924    -1.2873197103     1.1601848434
   35      C      -6.0351949076    -2.5724342222     0.5442263950
   36      C      -4.7885389776    -3.3075733170    -0.0743680659
   37      C      -3.6242352050    -2.3134205536     0.3117972364
   38      O      -4.0404568420    -1.7810359565     1.6299213556
   39      H      -5.7854565162    -0.2200948117    -0.7750294364
   40      H      -3.8900419789    -1.3308330100    -1.6853856443
   41      H      -3.8236628531     3.6284101435    -0.0117062813
   42      H      -5.9080745266    -0.8112097436     1.9929927617
   43      H      -6.5063429248    -3.1746038833     1.3372939442
   44      H      -6.7993852655    -2.3206760883    -0.2084409503
   45      H      -4.6257872568    -4.2905856325     0.3953397576
   46      H      -4.8726380733    -3.4460991498    -1.1641755739
   47      H      -2.6122176824    -2.7567308668     0.3727118374
   48      H      -5.2804215245     3.6902716514     1.0457379986
   49      H      -5.4176073502     4.1356084687    -0.7028605151
   50      H       0.9105705553     2.8659199444    -1.4769241854
   51      H       1.8301218459     3.9689014102    -0.3794702624
   52      H       0.8900133258     2.6014749149     0.3162528574
   53      H       0.7808069841    -2.1924340208    -0.8934922142
   54      H       1.0496935902    -0.9815225698    -2.2249759742
   55      H       0.3614511694     0.0944273480     0.5716428630
   56      H      -0.2343312560     0.7182849571    -1.0138550764
 ----------------------------------------------------------------

    9   -1510.2815257620      2.12E-09 Convergence criterion met
 Total energy in the final basis set = -1510.28152576
 Final energy is   -1510.28152576197
 **  OPTIMIZATION CONVERGED  **

                    Orbital Energies (a.u.)
 --------------------------------------------------------------

 Alpha MOs
 -- Occupied --
-18.940 -18.939 -18.929 -18.926 -18.888 -18.885 -18.880 -18.878
-18.872 -18.864 -10.104 -10.104 -10.099 -10.091 -10.068 -10.067
-10.066 -10.061 -10.059 -10.058 -10.057 -10.056 -10.040 -10.039
-10.038 -10.033 -10.021 -10.020 -10.019 -10.018  -1.018  -1.016
 -1.006  -1.001  -0.970  -0.968  -0.941  -0.940  -0.933  -0.927
 -0.765  -0.761  -0.728  -0.722  -0.712  -0.705  -0.693  -0.665
 -0.657  -0.614  -0.597  -0.580  -0.546  -0.544  -0.538  -0.536
 -0.514  -0.511  -0.486  -0.481  -0.469  -0.458  -0.451  -0.439
 -0.432  -0.431  -0.424  -0.415  -0.408  -0.407  -0.404  -0.399
 -0.392  -0.388  -0.379  -0.366  -0.361  -0.355  -0.353  -0.348
 -0.346  -0.340  -0.337  -0.331  -0.329  -0.327  -0.321  -0.312
 -0.309  -0.306  -0.304  -0.296  -0.295  -0.290  -0.282  -0.278
 -0.272  -0.254  -0.251  -0.246  -0.244  -0.234  -0.232  -0.182
 -0.181  -0.170  -0.167  -0.160  -0.160  -0.151  -0.144  -0.144
 -0.141

          Ground-State Mulliken Net Atomic Charges

     Atom                 Charge (a.u.)
  ----------------------------------------
      1 O                    -0.214533
      2 C                     0.210079
      3 C                    -0.080261
      4 C                    -0.077342
      5 C                     0.213801
      6 O                    -0.170491
      7 C                    -0.054462
      8 C                    -0.055613
      9 O                    -0.171120
     10 C                     0.215829
     11 C                    -0.078539
     12 C                    -0.078336
     13 C                     0.212589
     14 O                    -0.210799
     15 O                    -0.169748
     16 O                    -0.170540
     17 O                    -0.217228
     18 C                    -0.129229
     19 C                     0.026737
     20 C                    -0.144629
     21 C                    -0.143320
     22 C                     0.024663
     23 O                    -0.185206
     24 H                     0.085311
     25 H                     0.085346
     26 H                     0.083059
     27 H                     0.078196
     28 H                     0.073528
     29 H                     0.078642
     30 H                     0.073143
     31 H                     0.090682
     32 O                    -0.216489
     33 C                    -0.128205
     34 C                     0.025570
     35 C                    -0.144019
     36 C                    -0.144341
     37 C                     0.023106
     38 O                    -0.186990
     39 H                     0.084974
     40 H                     0.085212
     41 H                     0.091944
     42 H                     0.084200
     43 H                     0.077909
     44 H                     0.073323
     45 H                     0.078024
     46 H                     0.072364
     47 H                     0.092629
     48 H                     0.087066
     49 H                     0.088079
     50 H                     0.093641
     51 H                     0.088124
     52 H                     0.096274
     53 H                     0.089442
     54 H                     0.099314
     55 H                     0.091471
     56 H                     0.097169
  ----------------------------------------
  Sum of atomic charges =     0.000000

                    Cartesian Multipole Moments
 -----------------------------------------------------------------
    Charge (ESU x 10^10)
                 0.0000
    Dipole Moment (Debye)
         X       0.3470      Y      -0.2824      Z      -2.1069
       Tot       2.1538
    Quadrupole Moments (Debye-Ang)
        XX    -132.4864     XY       4.2814     YY    -151.6352
        XZ       3.9406     YZ       2.0747     ZZ    -171.7100

 Total job time:  60.49s(wall), 2873.54s(cpu)
        *  Thank you very much for using Q-Chem.  Have a nice day.  *
