 Q-Chem 5.0, Q-Chem, Inc., Pleasanton, CA (2017)
 Q-Chem 5.0.1 for Intel X86 EM64T Linux

User input:
--------------------------------------------------------------
$molecule
0  1
O -3.6960386845 1.3905031909 1.6918359259
C -4.352334184 1.2750744458 0.6343977276
C -4.9231582109 -0.0373091819 -0.0049348869
C -3.8202044491 -0.8700808999 -0.7976579986
C -2.3946525496 -0.2142454784 -0.6896050564
O -1.4973636778 -1.098812671 -0.0114758994
C -0.1280372343 -0.5323312992 0.0087809052
C 0.8166451541 -1.3836053552 -0.9162100272
O 2.2096491385 -1.2378852221 -0.4329493782
C 3.0127758823 -0.5480514577 -1.4003553829
C 4.4759575723 -0.4364621562 -0.8528598417
C 4.7346134905 0.8960884073 -0.017699678
C 3.4306308771 1.7329093863 0.2421220125
O 2.8279112896 1.8896590502 1.32524953
O -4.7033493289 2.3707819164 -0.2184548859
O 3.0127040448 2.3066271652 -1.0011834433
O 2.591441571 -0.1574024961 -2.5113648155
C 1.7541146617 3.0655846487 -0.8189196435
C 4.8529580971 -1.5408240912 0.2226932897
C 6.4278642475 -1.6020014153 0.3226085984
C 6.7335516256 -0.2712124939 1.1053864329
C 5.2750948344 0.2877617269 1.3421574083
O 4.4509409958 -0.9324250635 1.5104093663
H 5.1527366008 -0.4708189064 -1.7250808039
H 5.477210699 1.5389501665 -0.5238313725
H 4.3459191227 -2.5137460378 0.0775774794
H 6.7399705668 -2.4884198525 0.8974955368
H 6.9088991594 -1.6358322779 -0.6680741723
H 7.2311886693 -0.4719306953 2.0673477804
H 7.355907615 0.428439594 0.5248093449
H 5.1500090166 0.957175537 2.2150735235
O -2.0729349045 0.9203732003 -1.1108063728
C -4.0955404753 3.6213106275 0.2915859694
C -5.3717696651 -1.10238901 1.0847865281
C -6.3164271283 -2.151075838 0.3769734359
C -5.2729050069 -2.9670310647 -0.4727610434
C -3.9182078945 -2.2664090291 -0.0572946666
O -4.1394762695 -1.8767469264 1.354925834
H -5.7578704317 0.2393560236 -0.6726942632
H -4.0804233337 -0.9442737627 -1.8694553422
H -2.9881620176 3.5589726053 0.2916408363
H -5.7635997463 -0.6622282493 2.0220710603
H -6.8123836391 -2.7882100759 1.1263746155
H -7.087518962 -1.666834863 -0.2432338484
H -5.2597732097 -4.0301463823 -0.1847096082
H -5.4598678626 -2.8980452194 -1.5565201836
H -3.0106713643 -2.8922283806 -0.1487849717
H -4.4365979832 3.8524379127 1.3214630969
H -4.4211339945 4.4227787169 -0.3966120416
H 1.4594627933 3.4130864829 -1.8261316738
H 1.8969503932 3.9396326975 -0.1508228706
H 0.9492902011 2.4296199677 -0.3972861355
H 0.5419702906 -2.4567897417 -0.838564023
H 0.758749441 -1.0494675041 -1.9744586002
H 0.2413077579 -0.5831474416 1.0545987598
H -0.17094371 0.525708383 -0.3266184007
$end

$rem
JOBTYPE                   OPT
METHOD                    B3LYP
DFT_D                     d3_op
BASIS                     STO-3G
GEOM_OPT_MAX_CYCLES       100
GEOM_OPT_TOL_GRADIENT     300
GEOM_OPT_TOL_DISPLACEMENT 1200
GEOM_OPT_TOL_ENERGY       100
SYMMETRY                  False
THRESH                    12
SCF_CONVERGENCE           8
MAX_SUB_FILE_NUM          128
MEM_STATIC                400
MEM_TOTAL                 4000
$end
--------------------------------------------------------------

   16   -1510.2804469939      6.55E-09 Convergence criterion met
 Total energy in the final basis set = -1510.28044699
   15   -1510.2790894408      4.29E-09 Convergence criterion met
 Total energy in the final basis set = -1510.27908944
   14   -1510.2809864121      3.07E-09 Convergence criterion met
 Total energy in the final basis set = -1510.28098641
   13   -1510.2818619897      5.54E-09 Convergence criterion met
 Total energy in the final basis set = -1510.28186199
   13   -1510.2828252094      5.44E-09 Convergence criterion met
 Total energy in the final basis set = -1510.28282521
   13   -1510.2839373220      6.61E-09 Convergence criterion met
 Total energy in the final basis set = -1510.28393732
   14   -1510.2785345893      7.26E-09 Convergence criterion met
 Total energy in the final basis set = -1510.27853459
   14   -1510.2832795860      2.88E-09 Convergence criterion met
   13   -1510.3004576642      3.98E-09 Convergence criterion met
 Total energy in the final basis set = -1510.30045766
   12   -1510.3005556953      3.21E-09 Convergence criterion met
 Total energy in the final basis set = -1510.30055570
   12   -1510.3005371627      5.21E-09 Convergence criterion met
 Total energy in the final basis set = -1510.30053716
   12   -1510.3005828985      4.18E-09 Convergence criterion met
 Total energy in the final basis set = -1510.30058290
   11   -1510.3005881141      2.65E-09 Convergence criterion met
 Total energy in the final basis set = -1510.30058811
    9   -1510.3005925107      6.36E-09 Convergence criterion met
 Total energy in the final basis set = -1510.30059251

             Standard Nuclear Orientation (Angstroms)
    I     Atom           X                Y                Z
 ----------------------------------------------------------------
    1      O      -2.5040505538     2.4656275053    -0.1038416258
    2      C      -2.8526037136     1.5204822847    -0.8434967476
    3      C      -3.8890263879     0.3839991302    -0.5001771934
    4      C      -3.2548319205    -1.0657494815    -0.4239844621
    5      C      -1.7019111734    -1.0406422496    -0.5796639674
    6      O      -1.2281977599    -2.3257100079    -0.9660380384
    7      C       0.2589021535    -2.3429632485    -0.9439165757
    8      C       0.8998159911    -1.6170521564    -2.1918822245
    9      O       2.2513942818    -1.1591669051    -1.7877132543
   10      C       2.2428101818     0.2345940159    -1.4691784508
   11      C       3.5578353550     0.6008166962    -0.6951535922
   12      C       3.3074724158     0.7019778608     0.8768238462
   13      C       1.8229169904     0.4163424236     1.2997735149
   14      O       1.2334463966    -0.6910663295     1.3031488719
   15      O      -2.4624520171     1.3509307143    -2.2100618368
   16      O       1.2322520250     1.6398944463     1.7137355717
   17      O       1.3139955266     1.0225087463    -1.7569567240
   18      C      -0.2057263071     1.4402124519     2.0398524625
   19      C       4.6511810157    -0.5461580464    -0.7485990715
   20      C       6.0243580084     0.0486266859    -0.2414004524
   21      C       5.7711144845     0.1243360405     1.3099776521
   22      C       4.2940019954    -0.4265220381     1.4028460471
   23      O       4.2394264271    -1.4582952832     0.3430979158
   24      H       3.9347034668     1.5619698666    -1.0887497179
   25      H       3.5814324603     1.7027004925     1.2542077201
   26      H       4.6957253845    -1.0893901442    -1.7113844692
   27      H       6.8519244493    -0.6370349346    -0.4829417693
   28      H       6.2395256556     1.0325728816    -0.6876680783
   29      H       6.4613489132    -0.5312702696     1.8643568337
   30      H       5.8599682573     1.1482986049     1.7065865513
   31      H       4.0095341955    -0.8624120604     2.3799954177
   32      O      -0.9532869531    -0.0579767126    -0.3611413269
   33      C      -1.3728295607     2.2953295670    -2.5553479443
   34      C      -4.4528152586     0.5489979806     0.9704127513
   35      C      -5.7723041532    -0.3063281293     1.0970581077
   36      C      -5.1835921366    -1.7655519049     1.1360747319
   37      C      -3.6325330059    -1.4723223755     1.0697462520
   38      O      -3.4776441997    -0.1970751078     1.8029433416
   39      H      -4.6964038438     0.4117384698    -1.2542852383
   40      H      -3.6875830994    -1.7624878095    -1.1630880053
   41      H      -0.3896743605     1.8771749597    -2.2411373428
   42      H      -4.5195799998     1.6010333078     1.3091485346
   43      H      -6.3038511550    -0.0618497684     2.0305568528
   44      H      -6.4550611099    -0.1452366609     0.2477760369
   45      H      -5.4376643540    -2.2812369560     2.0757560990
   46      H      -5.5226735892    -2.3846817447     0.2902289726
   47      H      -2.9842048793    -2.2572612274     1.5059257780
   48      H      -1.5267943903     3.2760777420    -2.0641184209
   49      H      -1.3966831337     2.4143932931    -3.6542502718
   50      H      -0.6249017068     2.4514511273     2.1878550942
   51      H      -0.3233797653     0.8464994821     2.9688469712
   52      H      -0.7253823138     0.9275271931     1.1985020468
   53      H       1.0209110475    -2.3038565803    -3.0529092520
   54      H       0.2851654613    -0.7394700990    -2.4861832290
   55      H       0.5377331119    -3.4142514188    -0.9313693707
   56      H       0.6469777976    -1.8342550926    -0.0234074421
 ----------------------------------------------------------------

    9   -1510.3005929664      4.70E-09 Convergence criterion met
 Total energy in the final basis set = -1510.30059297
 Final energy is   -1510.30059296644
 **  OPTIMIZATION CONVERGED  **

                    Orbital Energies (a.u.)
 --------------------------------------------------------------

 Alpha MOs
 -- Occupied --
-18.940 -18.936 -18.929 -18.912 -18.887 -18.886 -18.883 -18.882
-18.869 -18.856 -10.105 -10.105 -10.096 -10.086 -10.066 -10.060
-10.059 -10.059 -10.055 -10.054 -10.039 -10.038 -10.035 -10.034
-10.033 -10.030 -10.020 -10.020 -10.019 -10.018  -1.019  -1.013
 -1.003  -0.992  -0.969  -0.969  -0.942  -0.937  -0.928  -0.919
 -0.762  -0.760  -0.726  -0.721  -0.710  -0.704  -0.690  -0.647
 -0.644  -0.613  -0.593  -0.577  -0.545  -0.542  -0.536  -0.534
 -0.512  -0.505  -0.481  -0.474  -0.455  -0.453  -0.451  -0.445
 -0.432  -0.431  -0.427  -0.413  -0.405  -0.401  -0.396  -0.393
 -0.391  -0.373  -0.370  -0.364  -0.358  -0.352  -0.349  -0.346
 -0.342  -0.334  -0.330  -0.329  -0.325  -0.323  -0.318  -0.311
 -0.308  -0.305  -0.300  -0.297  -0.287  -0.286  -0.275  -0.272
 -0.270  -0.260  -0.245  -0.238  -0.235  -0.233  -0.233  -0.191
 -0.173  -0.163  -0.160  -0.158  -0.155  -0.147  -0.144  -0.143
 -0.138

          Ground-State Mulliken Net Atomic Charges

     Atom                 Charge (a.u.)
  ----------------------------------------
      1 O                    -0.219459
      2 C                     0.214364
      3 C                    -0.081055
      4 C                    -0.078635
      5 C                     0.220055
      6 O                    -0.169001
      7 C                    -0.065114
      8 C                    -0.055534
      9 O                    -0.167720
     10 C                     0.215319
     11 C                    -0.077615
     12 C                    -0.079140
     13 C                     0.213537
     14 O                    -0.221355
     15 O                    -0.180868
     16 O                    -0.165383
     17 O                    -0.210291
     18 C                    -0.140704
     19 C                     0.025858
     20 C                    -0.144485
     21 C                    -0.143837
     22 C                     0.025290
     23 O                    -0.186157
     24 H                     0.085807
     25 H                     0.087737
     26 H                     0.088637
     27 H                     0.077704
     28 H                     0.073220
     29 H                     0.077930
     30 H                     0.074126
     31 H                     0.084322
     32 O                    -0.211112
     33 C                    -0.145193
     34 C                     0.023813
     35 C                    -0.143847
     36 C                    -0.143749
     37 C                     0.025159
     38 O                    -0.190394
     39 H                     0.083152
     40 H                     0.087381
     41 H                     0.109561
     42 H                     0.089739
     43 H                     0.077709
     44 H                     0.073439
     45 H                     0.078162
     46 H                     0.073980
     47 H                     0.084359
     48 H                     0.088234
     49 H                     0.078675
     50 H                     0.090894
     51 H                     0.080245
     52 H                     0.117362
     53 H                     0.085687
     54 H                     0.101247
     55 H                     0.086674
     56 H                     0.121274
  ----------------------------------------
  Sum of atomic charges =    -0.000000

                    Cartesian Multipole Moments
 -----------------------------------------------------------------
    Charge (ESU x 10^10)
                -0.0000
    Dipole Moment (Debye)
         X       0.3364      Y      -0.7990      Z      -0.9603
       Tot       1.2937
    Quadrupole Moments (Debye-Ang)
        XX    -137.2194     XY       8.9988     YY    -163.2238
        XZ       0.4565     YZ       0.4523     ZZ    -156.5864

 Total job time:  135.28s(wall), 6446.19s(cpu)
        *  Thank you very much for using Q-Chem.  Have a nice day.  *
