 Q-Chem 5.0, Q-Chem, Inc., Pleasanton, CA (2017)
 Q-Chem 5.0.1 for Intel X86 EM64T Linux

User input:
--------------------------------------------------------------
$molecule
0  1
O -3.94934 -3.66094 2.70899
C -3.26408 -4.56952 2.26188
C -3.36658 -6.02376 2.66595
C -2.69072 -6.43612 3.98391
C -2.1407 -5.31613 4.83902
O -2.79955 -5.27888 6.03482
C -2.27167 -4.3021 6.93842
C -1.58146 -4.99009 8.11163
O -1.59188 -4.12738 9.25989
C -0.37641 -3.68652 9.66906
C -0.4523 -2.7997 10.88907
C -0.59375 -1.29983 10.59131
C -0.99243 -0.94233 9.17358
O -2.07826 -0.49478 8.83411
O -2.43824 -4.30303 1.21554
O -0.03712 -1.1196 8.22344
O 0.6476 -3.78213 9.00373
C -0.17588 -0.74893 6.90191
C -1.70134 -3.02082 11.77781
C -1.40704 -2.55821 13.20388
C -1.35029 -1.05861 13.0058
C -1.76845 -0.96257 11.53356
O -2.62847 -2.05848 11.34431
H 0.43593 -3.0493 11.51229
H 0.31869 -0.7128 10.83513
H -2.05603 -4.0747 11.79011
H -2.30768 -2.80259 13.81214
H -0.51155 -3.0071 13.68491
H -2.1089 -0.58848 13.6702
H -0.35423 -0.59414 13.17261
H -2.20279 0.04032 11.32574
O -1.20619 -4.59849 4.50275
C -2.2485 -3.04876 0.67422
C -4.81408 -6.48694 2.90628
C -4.92064 -7.99139 2.674
C -4.16538 -8.51402 3.87682
C -3.88183 -7.20242 4.6222
O -4.98122 -6.38538 4.29978
H -2.92669 -6.60771 1.82447
H -1.83384 -7.12488 3.8127
H -1.84098 -2.35849 1.44366
H -5.55815 -5.94646 2.2809
H -5.99551 -8.26182 2.78361
H -4.55169 -8.35018 1.68908
H -4.85304 -9.16108 4.46579
H -3.22864 -9.06641 3.64716
H -3.73252 -7.43046 5.69992
H -3.20901 -2.65067 0.28274
H -1.52355 -3.11944 -0.16239
H 0.74476 -1.02434 6.34792
H -0.32287 0.34975 6.82881
H -1.04173 -1.2673 6.44139
H -2.18323 -5.87803 8.40149
H -0.58722 -5.37633 7.7935
H -3.15479 -3.74947 7.32483
H -1.5937 -3.53301 6.51219
$end

$opt
CONSTRAINT
tors           1           2           3           4     -79.495
tors           3           4           5           6    +116.808
tors           4           5           6           7    +175.903
tors           5           6           7           8    -110.859
tors           6           7           8           9    -154.170
tors           7           8           9          10    -113.947
tors           8           9          10          11    -179.255
tors           9          10          11          12     -90.839
tors          11          12          13          14    +109.140
ENDCONSTRAINT
$end

$rem
JOBTYPE                   OPT
METHOD                    B3LYP
DFT_D                     d3_op
BASIS                     STO-3G
GEOM_OPT_MAX_CYCLES       100
GEOM_OPT_TOL_GRADIENT     300
GEOM_OPT_TOL_DISPLACEMENT 1200
GEOM_OPT_TOL_ENERGY       100
SYMMETRY                  False
THRESH                    12
SCF_CONVERGENCE           8
MAX_SUB_FILE_NUM          128
MEM_STATIC                400
MEM_TOTAL                 4000
$end
--------------------------------------------------------------

   15   -1510.1507298972      6.88E-09 Convergence criterion met
 Total energy in the final basis set = -1510.15072990
   13   -1510.2194077216      9.54E-09 Convergence criterion met
 Total energy in the final basis set = -1510.21940772
   14   -1510.2557814251      5.96E-09 Convergence criterion met
 Total energy in the final basis set = -1510.25578143
   14   -1510.2717024618      3.71E-09 Convergence criterion met
 Total energy in the final basis set = -1510.27170246
   13   -1510.2771966854      8.12E-09 Convergence criterion met
 Total energy in the final basis set = -1510.27719669
   13   -1510.2792409070      3.51E-09 Convergence criterion met
 Total energy in the final basis set = -1510.27924091
   13   -1510.2797443145      2.74E-09 Convergence criterion met
 Total energy in the final basis set = -1510.27974431
   12   -1510.2800857821      6.07E-09 Convergence criterion met
   11   -1510.2802785291      9.48E-09 Convergence criterion met
 Total energy in the final basis set = -1510.28027853
   11   -1510.2803784175      4.38E-09 Convergence criterion met
 Total energy in the final basis set = -1510.28037842
   12   -1510.2804782496      3.42E-09 Convergence criterion met
 Total energy in the final basis set = -1510.28047825
   11   -1510.2805186905      9.92E-09 Convergence criterion met
 Total energy in the final basis set = -1510.28051869
   11   -1510.2805303637      7.27E-09 Convergence criterion met
 Total energy in the final basis set = -1510.28053036
   10   -1510.2805338570      7.17E-09 Convergence criterion met
 Total energy in the final basis set = -1510.28053386

             Standard Nuclear Orientation (Angstroms)
    I     Atom           X                Y                Z
 ----------------------------------------------------------------
    1      O      -3.6960386845     1.3905031909     1.6918359259
    2      C      -4.3523341840     1.2750744458     0.6343977276
    3      C      -4.9231582109    -0.0373091819    -0.0049348869
    4      C      -3.8202044491    -0.8700808999    -0.7976579986
    5      C      -2.3946525496    -0.2142454784    -0.6896050564
    6      O      -1.4973636778    -1.0988126710    -0.0114758994
    7      C      -0.1280372343    -0.5323312992     0.0087809052
    8      C       0.8166451541    -1.3836053552    -0.9162100272
    9      O       2.2096491385    -1.2378852221    -0.4329493782
   10      C       3.0127758823    -0.5480514577    -1.4003553829
   11      C       4.4759575723    -0.4364621562    -0.8528598417
   12      C       4.7346134905     0.8960884073    -0.0176996780
   13      C       3.4306308771     1.7329093863     0.2421220125
   14      O       2.8279112896     1.8896590502     1.3252495300
   15      O      -4.7033493289     2.3707819164    -0.2184548859
   16      O       3.0127040448     2.3066271652    -1.0011834433
   17      O       2.5914415710    -0.1574024961    -2.5113648155
   18      C       1.7541146617     3.0655846487    -0.8189196435
   19      C       4.8529580971    -1.5408240912     0.2226932897
   20      C       6.4278642475    -1.6020014153     0.3226085984
   21      C       6.7335516256    -0.2712124939     1.1053864329
   22      C       5.2750948344     0.2877617269     1.3421574083
   23      O       4.4509409958    -0.9324250635     1.5104093663
   24      H       5.1527366008    -0.4708189064    -1.7250808039
   25      H       5.4772106990     1.5389501665    -0.5238313725
   26      H       4.3459191227    -2.5137460378     0.0775774794
   27      H       6.7399705668    -2.4884198525     0.8974955368
   28      H       6.9088991594    -1.6358322779    -0.6680741723
   29      H       7.2311886693    -0.4719306953     2.0673477804
   30      H       7.3559076150     0.4284395940     0.5248093449
   31      H       5.1500090166     0.9571755370     2.2150735235
   32      O      -2.0729349045     0.9203732003    -1.1108063728
   33      C      -4.0955404753     3.6213106275     0.2915859694
   34      C      -5.3717696651    -1.1023890100     1.0847865281
   35      C      -6.3164271283    -2.1510758380     0.3769734359
   36      C      -5.2729050069    -2.9670310647    -0.4727610434
   37      C      -3.9182078945    -2.2664090291    -0.0572946666
   38      O      -4.1394762695    -1.8767469264     1.3549258340
   39      H      -5.7578704317     0.2393560236    -0.6726942632
   40      H      -4.0804233337    -0.9442737627    -1.8694553422
   41      H      -2.9881620176     3.5589726053     0.2916408363
   42      H      -5.7635997463    -0.6622282493     2.0220710603
   43      H      -6.8123836391    -2.7882100759     1.1263746155
   44      H      -7.0875189620    -1.6668348630    -0.2432338484
   45      H      -5.2597732097    -4.0301463823    -0.1847096082
   46      H      -5.4598678626    -2.8980452194    -1.5565201836
   47      H      -3.0106713643    -2.8922283806    -0.1487849717
   48      H      -4.4365979832     3.8524379127     1.3214630969
   49      H      -4.4211339945     4.4227787169    -0.3966120416
   50      H       1.4594627933     3.4130864829    -1.8261316738
   51      H       1.8969503932     3.9396326975    -0.1508228706
   52      H       0.9492902011     2.4296199677    -0.3972861355
   53      H       0.5419702906    -2.4567897417    -0.8385640230
   54      H       0.7587494410    -1.0494675041    -1.9744586002
   55      H       0.2413077579    -0.5831474416     1.0545987598
   56      H      -0.1709437100     0.5257083830    -0.3266184007
 ----------------------------------------------------------------

    9   -1510.2805341934      3.26E-09 Convergence criterion met
 Total energy in the final basis set = -1510.28053419
 Final energy is   -1510.28053419339
 **  OPTIMIZATION CONVERGED  **

                    Orbital Energies (a.u.)
 --------------------------------------------------------------

 Alpha MOs
 -- Occupied --
-18.938 -18.935 -18.933 -18.930 -18.886 -18.885 -18.878 -18.877
-18.876 -18.869 -10.103 -10.101 -10.098 -10.094 -10.067 -10.065
-10.062 -10.059 -10.059 -10.058 -10.057 -10.057 -10.040 -10.039
-10.038 -10.035 -10.020 -10.019 -10.019 -10.018  -1.017  -1.014
 -1.009  -1.005  -0.968  -0.968  -0.941  -0.937  -0.934  -0.931
 -0.763  -0.762  -0.727  -0.722  -0.713  -0.705  -0.692  -0.661
 -0.659  -0.614  -0.596  -0.580  -0.546  -0.545  -0.536  -0.536
 -0.513  -0.510  -0.485  -0.481  -0.465  -0.459  -0.451  -0.443
 -0.432  -0.431  -0.424  -0.413  -0.409  -0.406  -0.404  -0.400
 -0.393  -0.383  -0.373  -0.369  -0.362  -0.354  -0.353  -0.349
 -0.346  -0.341  -0.338  -0.330  -0.330  -0.329  -0.324  -0.310
 -0.308  -0.305  -0.305  -0.297  -0.291  -0.284  -0.281  -0.277
 -0.274  -0.254  -0.252  -0.248  -0.247  -0.232  -0.231  -0.186
 -0.177  -0.172  -0.167  -0.160  -0.160  -0.151  -0.147  -0.142
 -0.142

          Ground-State Mulliken Net Atomic Charges

     Atom                 Charge (a.u.)
  ----------------------------------------
      1 O                    -0.212466
      2 C                     0.206926
      3 C                    -0.079469
      4 C                    -0.077023
      5 C                     0.210420
      6 O                    -0.166580
      7 C                    -0.055295
      8 C                    -0.056851
      9 O                    -0.169074
     10 C                     0.207626
     11 C                    -0.078442
     12 C                    -0.077581
     13 C                     0.205820
     14 O                    -0.208967
     15 O                    -0.168078
     16 O                    -0.169166
     17 O                    -0.210514
     18 C                    -0.127948
     19 C                     0.026110
     20 C                    -0.143794
     21 C                    -0.144590
     22 C                     0.024682
     23 O                    -0.185753
     24 H                     0.085599
     25 H                     0.085973
     26 H                     0.087107
     27 H                     0.077985
     28 H                     0.072866
     29 H                     0.078271
     30 H                     0.072911
     31 H                     0.088924
     32 O                    -0.217438
     33 C                    -0.128042
     34 C                     0.025331
     35 C                    -0.143628
     36 C                    -0.144809
     37 C                     0.024394
     38 O                    -0.185850
     39 H                     0.085610
     40 H                     0.085734
     41 H                     0.091297
     42 H                     0.085360
     43 H                     0.078007
     44 H                     0.073186
     45 H                     0.077784
     46 H                     0.072358
     47 H                     0.090535
     48 H                     0.088152
     49 H                     0.089435
     50 H                     0.093827
     51 H                     0.087858
     52 H                     0.088812
     53 H                     0.087577
     54 H                     0.099431
     55 H                     0.098457
     56 H                     0.096993
  ----------------------------------------
  Sum of atomic charges =     0.000000

                    Cartesian Multipole Moments
 -----------------------------------------------------------------
    Charge (ESU x 10^10)
                 0.0000
    Dipole Moment (Debye)
         X       0.0964      Y      -0.2966      Z      -2.1790
       Tot       2.2012
    Quadrupole Moments (Debye-Ang)
        XX    -131.1018     XY       1.3486     YY    -150.2291
        XZ       3.0711     YZ       5.0861     ZZ    -171.5086

 Total job time:  44.31s(wall), 2103.92s(cpu)
        *  Thank you very much for using Q-Chem.  Have a nice day.  *
