 Q-Chem 5.0, Q-Chem, Inc., Pleasanton, CA (2017)
 Q-Chem 5.0.1 for Intel X86 EM64T Linux

User input:
--------------------------------------------------------------
$molecule
0  1
O -3.94934 -3.66094 2.70899
C -3.26408 -4.56952 2.26188
C -3.36658 -6.02376 2.66595
C -2.76614 -6.41941 4.02491
C -2.28878 -5.28688 4.90673
O -2.51865 -5.59137 6.21817
C -1.68575 -4.85653 7.12124
C -1.16645 -5.77481 8.22271
O -0.92259 -5.01632 9.41774
C 0.37601 -4.93053 9.79911
C 0.56439 -4.14008 11.07205
C 0.59597 -2.61572 10.88876
C 0.08808 -2.09959 9.55746
O -0.94701 -1.47126 9.38909
O -2.42988 -4.30088 1.22272
O 0.88874 -2.33299 8.48442
O 1.27847 -5.60859 9.32357
C 0.68869 -1.78343 7.2345
C -0.5557 -4.29715 12.11729
C -0.01043 -3.97546 13.50736
C 0.18542 -2.47711 13.3939
C -0.4042 -2.22553 12.0004
O -1.40781 -3.20542 11.87359
H 1.52616 -4.48791 11.51489
H 1.60005 -2.1668 11.05505
H -1.02719 -5.30411 12.1083
H -0.83266 -4.17296 14.23217
H 0.89098 -4.54942 13.81219
H -0.43114 -1.98379 14.17785
H 1.23866 -2.12819 13.46078
H -0.74003 -1.16849 11.9157
O -1.48001 -4.45375 4.51318
C -2.23786 -3.04595 0.68378
C -4.82192 -6.49292 2.81998
C -4.90496 -8.00287 2.61631
C -4.23856 -8.49188 3.88327
C -4.00136 -7.16086 4.60918
O -5.07804 -6.35502 4.19578
H -2.86918 -6.60691 1.85664
H -1.89448 -7.10082 3.9057
H -1.83785 -2.35542 1.45688
H -5.52549 -5.97195 2.13388
H -5.98305 -8.28009 2.65153
H -4.46 -8.37858 1.66984
H -4.97099 -9.11594 4.44263
H -3.2932 -9.05778 3.73686
H -3.93907 -7.36674 5.69845
H -3.19587 -2.64934 0.28472
H -1.50605 -3.11486 -0.147
H 1.4674 -2.16145 6.54094
H 0.76637 -0.67676 7.29113
H -0.3116 -2.05693 6.84084
H -1.96934 -6.4952 8.48963
H -0.32012 -6.37932 7.82836
H -2.36675 -4.12837 7.61346
H -0.83765 -4.28143 6.69599
$end

$opt
CONSTRAINT
tors           1           2           3           4     -75.831
tors           3           4           5           6    +144.912
tors           4           5           6           7    +158.059
tors           5           6           7           8    -137.351
tors           6           7           8           9    -151.736
tors           7           8           9          10    -113.947
tors           8           9          10          11    -179.090
tors           9          10          11          12     -82.064
tors          11          12          13          14    +110.469
ENDCONSTRAINT
$end

$rem
JOBTYPE                   OPT
METHOD                    B3LYP
DFT_D                     d3_op
BASIS                     STO-3G
GEOM_OPT_MAX_CYCLES       100
GEOM_OPT_TOL_GRADIENT     300
GEOM_OPT_TOL_DISPLACEMENT 1200
GEOM_OPT_TOL_ENERGY       100
SYMMETRY                  False
THRESH                    12
SCF_CONVERGENCE           8
MAX_SUB_FILE_NUM          128
MEM_STATIC                400
MEM_TOTAL                 4000
$end
--------------------------------------------------------------

   15   -1510.1471265860      8.86E-09 Convergence criterion met
 Total energy in the final basis set = -1510.14712659
   13   -1510.2163018607      8.40E-09 Convergence criterion met
 Total energy in the final basis set = -1510.21630186
   14   -1510.2533742535      5.82E-09 Convergence criterion met
 Total energy in the final basis set = -1510.25337425
   14   -1510.2699671322      4.22E-09 Convergence criterion met
 Total energy in the final basis set = -1510.26996713
    2   -1510.2699671321      4.70E-09 Convergence criterion met
 Total energy in the final basis set = -1510.26996713
   13   -1510.2756798210      8.30E-09 Convergence criterion met
 Total energy in the final basis set = -1510.27567982
   13   -1510.2774240342      5.01E-09 Convergence criterion met
 Total energy in the final basis set = -1510.27742403
   13   -1510.2781882638      4.07E-09 Convergence criterion met
   11   -1510.2790575449      6.35E-09 Convergence criterion met
 Total energy in the final basis set = -1510.27905754
   10   -1510.2790697935      4.58E-09 Convergence criterion met
 Total energy in the final basis set = -1510.27906979
    9   -1510.2790755713      7.68E-09 Convergence criterion met
 Total energy in the final basis set = -1510.27907557
    9   -1510.2790772961      5.16E-09 Convergence criterion met
 Total energy in the final basis set = -1510.27907730
    9   -1510.2790796626      3.62E-09 Convergence criterion met
 Total energy in the final basis set = -1510.27907966
    9   -1510.2790822920      4.44E-09 Convergence criterion met
 Total energy in the final basis set = -1510.27908229

             Standard Nuclear Orientation (Angstroms)
    I     Atom           X                Y                Z
 ----------------------------------------------------------------
    1      O      -4.3726402539     1.4325711411     1.7153541343
    2      C      -4.7480067091     1.2534543709     0.5371721334
    3      C      -5.0095700730    -0.1123310427    -0.1908778029
    4      C      -3.6775923693    -0.8678232372    -0.6101582351
    5      C      -2.3731021967    -0.0796828519    -0.2280225982
    6      O      -1.3420445197    -0.9992242832     0.1457440648
    7      C      -0.0051046232    -0.3724793763     0.0003110735
    8      C       0.9570573632    -1.4261476144    -0.6550153711
    9      O       2.3457681295    -1.1551965414    -0.2152603780
   10      C       3.1530269253    -0.7403355118    -1.3266078536
   11      C       4.6119081766    -0.4884770587    -0.8215775051
   12      C       4.8203353827     0.9426930396    -0.1551725071
   13      C       3.4864166200     1.7478238195     0.0439055528
   14      O       2.9146719898     2.0243865083     1.1194714905
   15      O      -5.0411152911     2.3091543804    -0.3869774976
   16      O       2.9955413624     2.1208773319    -1.2490079512
   17      O       2.7360355242    -0.6516900827    -2.5027143880
   18      C       1.7517527328     2.9146542652    -1.1191143409
   19      C       5.0602778408    -1.4393572314     0.3701932625
   20      C       6.6385249949    -1.4202173427     0.4338005563
   21      C       6.8978695883     0.0088089822     1.0409807860
   22      C       5.4206672202     0.5270757095     1.2498382685
   23      O       4.6589099686    -0.6988277959     1.5863580869
   24      H       5.2772124831    -0.5975453660    -1.6963417457
   25      H       5.5186644205     1.5552041182    -0.7538320723
   26      H       4.5974450508    -2.4447262368     0.3557280820
   27      H       7.0042188905    -2.2156233554     1.1026306344
   28      H       7.0979853034    -1.5534262289    -0.5586796307
   29      H       7.4254103356    -0.0513530064     2.0060301574
   30      H       7.4735345326     0.6604179141     0.3640598830
   31      H       5.2844745638     1.2905828508     2.0399433064
   32      O      -2.2065230698     1.1575246161    -0.3190405902
   33      C      -4.7100011041     3.6159775807     0.2248692392
   34      C      -5.6589058968    -1.1855253806     0.7834783628
   35      C      -6.2518795898    -2.3579929919    -0.0940854981
   36      C      -4.9369925388    -3.1072892788    -0.5268854451
   37      C      -3.8358859528    -2.2293405269     0.1883612164
   38      O      -4.4898136404    -1.8056427547     1.4476242021
   39      H      -5.6463504473     0.0856889211    -1.0709841775
   40      H      -3.6442730751    -1.0396944439    -1.7025095407
   41      H      -3.6264209412     3.6886069740     0.4509922215
   42      H      -6.3495168966    -0.7606768822     1.5372758099
   43      H      -6.9038124288    -3.0041987222     0.5151099951
   44      H      -6.8295335347    -1.9824492379    -0.9537836333
   45      H      -4.9143664585    -4.1395756666    -0.1428319929
   46      H      -4.8023282773    -3.1335170554    -1.6200600271
   47      H      -2.8755235106    -2.7380872740     0.3973258616
   48      H      -5.2788225557     3.7865840379     1.1618602885
   49      H      -4.9856882866     4.3832900223    -0.5217291044
   50      H       1.3266379836     2.9888978872    -2.1368909718
   51      H       1.9634609739     3.9327448301    -0.7324179246
   52      H       1.0214329873     2.4295557779    -0.4412769914
   53      H       0.6807550456    -2.4412406637    -0.2992162934
   54      H       0.9122226844    -1.3860498538    -1.7643806744
   55      H       0.3900563242    -0.0989103309     1.0041626204
   56      H      -0.0843852087     0.5544327005    -0.6042432201
 ----------------------------------------------------------------

    9   -1510.2790827960      3.26E-09 Convergence criterion met
 Total energy in the final basis set = -1510.27908280
 Final energy is   -1510.27908279597
 **  OPTIMIZATION CONVERGED  **

                    Orbital Energies (a.u.)
 --------------------------------------------------------------

 Alpha MOs
 -- Occupied --
-18.937 -18.937 -18.935 -18.924 -18.888 -18.885 -18.881 -18.880
-18.878 -18.863 -10.105 -10.103 -10.100 -10.090 -10.072 -10.070
-10.064 -10.061 -10.058 -10.057 -10.057 -10.055 -10.041 -10.040
-10.040 -10.033 -10.021 -10.020 -10.019 -10.018  -1.019  -1.015
 -1.011  -1.000  -0.970  -0.968  -0.944  -0.939  -0.937  -0.926
 -0.765  -0.761  -0.728  -0.722  -0.714  -0.705  -0.694  -0.664
 -0.656  -0.615  -0.597  -0.581  -0.547  -0.544  -0.538  -0.536
 -0.515  -0.511  -0.484  -0.481  -0.467  -0.457  -0.452  -0.444
 -0.433  -0.431  -0.424  -0.415  -0.408  -0.406  -0.403  -0.400
 -0.394  -0.390  -0.375  -0.367  -0.360  -0.354  -0.353  -0.350
 -0.348  -0.342  -0.337  -0.332  -0.329  -0.328  -0.323  -0.310
 -0.308  -0.307  -0.305  -0.298  -0.293  -0.285  -0.281  -0.278
 -0.272  -0.255  -0.254  -0.249  -0.245  -0.234  -0.232  -0.186
 -0.179  -0.173  -0.167  -0.162  -0.161  -0.154  -0.144  -0.143
 -0.141

          Ground-State Mulliken Net Atomic Charges

     Atom                 Charge (a.u.)
  ----------------------------------------
      1 O                    -0.213930
      2 C                     0.210436
      3 C                    -0.080579
      4 C                    -0.077156
      5 C                     0.214881
      6 O                    -0.172748
      7 C                    -0.052265
      8 C                    -0.055519
      9 O                    -0.168708
     10 C                     0.208612
     11 C                    -0.078688
     12 C                    -0.077499
     13 C                     0.207372
     14 O                    -0.208058
     15 O                    -0.170422
     16 O                    -0.171134
     17 O                    -0.211675
     18 C                    -0.130106
     19 C                     0.026559
     20 C                    -0.143615
     21 C                    -0.144592
     22 C                     0.024864
     23 O                    -0.184952
     24 H                     0.085769
     25 H                     0.086123
     26 H                     0.085705
     27 H                     0.078312
     28 H                     0.073231
     29 H                     0.078582
     30 H                     0.073092
     31 H                     0.089361
     32 O                    -0.212269
     33 C                    -0.128286
     34 C                     0.025658
     35 C                    -0.143997
     36 C                    -0.144325
     37 C                     0.023136
     38 O                    -0.187020
     39 H                     0.084594
     40 H                     0.085325
     41 H                     0.092425
     42 H                     0.084789
     43 H                     0.077833
     44 H                     0.073126
     45 H                     0.077885
     46 H                     0.072168
     47 H                     0.091787
     48 H                     0.087377
     49 H                     0.087364
     50 H                     0.092516
     51 H                     0.087338
     52 H                     0.092842
     53 H                     0.090439
     54 H                     0.099641
     55 H                     0.096083
     56 H                     0.092318
  ----------------------------------------
  Sum of atomic charges =     0.000000

                    Cartesian Multipole Moments
 -----------------------------------------------------------------
    Charge (ESU x 10^10)
                -0.0000
    Dipole Moment (Debye)
         X       0.8957      Y      -0.4810      Z      -2.9449
       Tot       3.1155
    Quadrupole Moments (Debye-Ang)
        XX    -134.7897     XY       2.3279     YY    -150.4329
        XZ       6.2526     YZ       1.6387     ZZ    -172.4045

 Total job time:  51.83s(wall), 2461.67s(cpu)
        *  Thank you very much for using Q-Chem.  Have a nice day.  *
