 Q-Chem 5.0, Q-Chem, Inc., Pleasanton, CA (2017)
 Q-Chem 5.0.1 for Intel X86 EM64T Linux

User input:
--------------------------------------------------------------
$molecule
0  1
O -4.3726402539 1.4325711411 1.7153541343
C -4.7480067091 1.2534543709 0.5371721334
C -5.009570073 -0.1123310427 -0.1908778029
C -3.6775923693 -0.8678232372 -0.6101582351
C -2.3731021967 -0.0796828519 -0.2280225982
O -1.3420445197 -0.9992242832 0.1457440648
C -0.0051046232 -0.3724793763 0.0003110735
C 0.9570573632 -1.4261476144 -0.6550153711
O 2.3457681295 -1.1551965414 -0.215260378
C 3.1530269253 -0.7403355118 -1.3266078536
C 4.6119081766 -0.4884770587 -0.8215775051
C 4.8203353827 0.9426930396 -0.1551725071
C 3.48641662 1.7478238195 0.0439055528
O 2.9146719898 2.0243865083 1.1194714905
O -5.0411152911 2.3091543804 -0.3869774976
O 2.9955413624 2.1208773319 -1.2490079512
O 2.7360355242 -0.6516900827 -2.502714388
C 1.7517527328 2.9146542652 -1.1191143409
C 5.0602778408 -1.4393572314 0.3701932625
C 6.6385249949 -1.4202173427 0.4338005563
C 6.8978695883 0.0088089822 1.040980786
C 5.4206672202 0.5270757095 1.2498382685
O 4.6589099686 -0.6988277959 1.5863580869
H 5.2772124831 -0.597545366 -1.6963417457
H 5.5186644205 1.5552041182 -0.7538320723
H 4.5974450508 -2.4447262368 0.355728082
H 7.0042188905 -2.2156233554 1.1026306344
H 7.0979853034 -1.5534262289 -0.5586796307
H 7.4254103356 -0.0513530064 2.0060301574
H 7.4735345326 0.6604179141 0.364059883
H 5.2844745638 1.2905828508 2.0399433064
O -2.2065230698 1.1575246161 -0.3190405902
C -4.7100011041 3.6159775807 0.2248692392
C -5.6589058968 -1.1855253806 0.7834783628
C -6.2518795898 -2.3579929919 -0.0940854981
C -4.9369925388 -3.1072892788 -0.5268854451
C -3.8358859528 -2.2293405269 0.1883612164
O -4.4898136404 -1.8056427547 1.4476242021
H -5.6463504473 0.0856889211 -1.0709841775
H -3.6442730751 -1.0396944439 -1.7025095407
H -3.6264209412 3.688606974 0.4509922215
H -6.3495168966 -0.7606768822 1.5372758099
H -6.9038124288 -3.0041987222 0.5151099951
H -6.8295335347 -1.9824492379 -0.9537836333
H -4.9143664585 -4.1395756666 -0.1428319929
H -4.8023282773 -3.1335170554 -1.6200600271
H -2.8755235106 -2.738087274 0.3973258616
H -5.2788225557 3.7865840379 1.1618602885
H -4.9856882866 4.3832900223 -0.5217291044
H 1.3266379836 2.9888978872 -2.1368909718
H 1.9634609739 3.9327448301 -0.7324179246
H 1.0214329873 2.4295557779 -0.4412769914
H 0.6807550456 -2.4412406637 -0.2992162934
H 0.9122226844 -1.3860498538 -1.7643806744
H 0.3900563242 -0.0989103309 1.0041626204
H -0.0843852087 0.5544327005 -0.6042432201
$end

$rem
JOBTYPE                   OPT
METHOD                    B3LYP
DFT_D                     d3_op
BASIS                     STO-3G
GEOM_OPT_MAX_CYCLES       100
GEOM_OPT_TOL_GRADIENT     300
GEOM_OPT_TOL_DISPLACEMENT 1200
GEOM_OPT_TOL_ENERGY       100
SYMMETRY                  False
THRESH                    12
SCF_CONVERGENCE           8
MAX_SUB_FILE_NUM          128
MEM_STATIC                400
MEM_TOTAL                 4000
$end
--------------------------------------------------------------

   16   -1510.2790239546      1.50E-09 Convergence criterion met
 Total energy in the final basis set = -1510.27902395
   14   -1510.2812132008      3.13E-09 Convergence criterion met
 Total energy in the final basis set = -1510.28121320
   14   -1510.2824429831      2.66E-09 Convergence criterion met
 Total energy in the final basis set = -1510.28244298
   14   -1510.2834103724      2.14E-09 Convergence criterion met
 Total energy in the final basis set = -1510.28341037
   13   -1510.2843992563      7.56E-09 Convergence criterion met
 Total energy in the final basis set = -1510.28439926
   13   -1510.2848228914      6.10E-09 Convergence criterion met
 Total energy in the final basis set = -1510.28482289
   13   -1510.2854229853      3.29E-09 Convergence criterion met
 Total energy in the final basis set = -1510.28542299
   13   -1510.2860626610      3.96E-09 Convergence criterion met
   12   -1510.2985817025      4.22E-09 Convergence criterion met
 Total energy in the final basis set = -1510.29858170
   12   -1510.2985930034      3.06E-09 Convergence criterion met
 Total energy in the final basis set = -1510.29859300
   13   -1510.2985708441      2.24E-09 Convergence criterion met
 Total energy in the final basis set = -1510.29857084
   11   -1510.2985703860      7.15E-09 Convergence criterion met
 Total energy in the final basis set = -1510.29857039
   11   -1510.2985512517      9.09E-09 Convergence criterion met
 Total energy in the final basis set = -1510.29855125
   10   -1510.2985530301      4.39E-09 Convergence criterion met
 Total energy in the final basis set = -1510.29855303

             Standard Nuclear Orientation (Angstroms)
    I     Atom           X                Y                Z
 ----------------------------------------------------------------
    1      O      -3.1268116300     2.1894714512    -0.1576323745
    2      C      -2.9899680051     1.0694474320    -0.6937547581
    3      C      -4.0280350584    -0.1154196291    -0.6469867553
    4      C      -3.5084042061    -1.4718823342    -0.0063200474
    5      C      -2.0325286879    -1.3572109301     0.4818210686
    6      O      -1.2754255744    -2.4407191880    -0.0642880955
    7      C       0.1757009344    -2.1840327041     0.1138707640
    8      C       0.6420148229    -1.2193042031    -1.0328803769
    9      O       1.9816074963    -0.7152683101    -0.6503027847
   10      C       2.3776012389     0.3945054075    -1.4551485053
   11      C       3.8106024503     0.8209677373    -0.9990249013
   12      C       3.9290215821     1.0150270042     0.5709208376
   13      C       2.5707929090     0.8442708849     1.3453749487
   14      O       2.3348254799     0.0836672546     2.3078710720
   15      O      -1.8782955701     0.7065852784    -1.5293127305
   16      O       1.6406441433     1.7849086350     0.8015443202
   17      O       1.6904112719     0.8947888699    -2.3755901263
   18      C       0.3701986353     1.7608634222     1.5675990614
   19      C       4.8570538454    -0.3582988742    -1.2214968888
   20      C       6.3157653448     0.2252558179    -1.0492188762
   21      C       6.4056548365     0.3701437191     0.5159503407
   22      C       4.9681093345    -0.1194848820     0.9461237305
   23      O       4.6720730482    -1.2026959704    -0.0217769371
   24      H       4.0890665386     1.7344529066    -1.5524271327
   25      H       4.3284560315     2.0194567790     0.8031516991
   26      H       4.6932545906    -0.9505661507    -2.1430428720
   27      H       7.0615362630    -0.4888290427    -1.4335126897
   28      H       6.4435593616     1.1856445505    -1.5742357451
   29      H       7.1814636465    -0.2881100673     0.9382503787
   30      H       6.6049295111     1.4048354069     0.8371026638
   31      H       4.8686398346    -0.4917117013     1.9844012181
   32      O      -1.5646520587    -0.4621800888     1.2221692471
   33      C      -1.0503885755     1.9048700726    -1.8280052388
   34      C      -5.2304139975     0.2383354290     0.3254932916
   35      C      -6.4388954636    -0.7216729805    -0.0035521205
   36      C      -5.9254160788    -2.0759845363     0.6136613456
   37      C      -4.5283819310    -1.6323684187     1.2046578045
   38      O      -4.7568256468    -0.2402595049     1.6455488689
   39      H      -4.3789379375    -0.2923004106    -1.6805479955
   40      H      -3.5799763982    -2.3135141888    -0.7166171672
   41      H      -0.9684119348     2.5604873517    -0.9404957074
   42      H      -5.4638235719     1.3198314008     0.3694132493
   43      H      -7.3555950103    -0.3721901810     0.4973584197
   44      H      -6.6322406941    -0.7926184090    -1.0859232798
   45      H      -6.5878623016    -2.4308599468     1.4190930943
   46      H      -5.8213979124    -2.8748333725    -0.1378948172
   47      H      -4.1525815762    -2.2503292278     2.0431836703
   48      H      -1.5076136138     2.4841798432    -2.6553453414
   49      H      -0.0441341111     1.5352594538    -2.1301008655
   50      H      -0.2317786788     0.8438603635     1.3669240634
   51      H      -0.1979822501     2.6503334900     1.2399298880
   52      H       0.5610042848     1.8279240190     2.6568977502
   53      H       0.6924553530    -1.7584650045    -2.0033961837
   54      H      -0.1058180000    -0.4002879440    -1.1313695404
   55      H       0.6833722765    -3.1661990599     0.0533399743
   56      H       0.3822559850    -1.7123388534     1.0990537174
 ----------------------------------------------------------------

    9   -1510.2985530174      9.33E-09 Convergence criterion met
 Total energy in the final basis set = -1510.29855302
 Final energy is   -1510.29855301744
 **  OPTIMIZATION CONVERGED  **

                    Orbital Energies (a.u.)
 --------------------------------------------------------------

 Alpha MOs
 -- Occupied --
-18.943 -18.942 -18.928 -18.922 -18.890 -18.888 -18.887 -18.884
-18.877 -18.866 -10.110 -10.108 -10.099 -10.093 -10.075 -10.070
-10.064 -10.062 -10.058 -10.056 -10.042 -10.041 -10.039 -10.039
-10.038 -10.035 -10.022 -10.021 -10.021 -10.019  -1.023  -1.018
 -1.007  -1.000  -0.972  -0.970  -0.948  -0.942  -0.933  -0.927
 -0.766  -0.763  -0.730  -0.724  -0.712  -0.706  -0.697  -0.653
 -0.648  -0.618  -0.598  -0.582  -0.547  -0.546  -0.539  -0.537
 -0.518  -0.509  -0.486  -0.476  -0.462  -0.461  -0.454  -0.447
 -0.436  -0.432  -0.429  -0.415  -0.410  -0.407  -0.401  -0.398
 -0.392  -0.379  -0.373  -0.368  -0.361  -0.359  -0.355  -0.352
 -0.341  -0.336  -0.334  -0.332  -0.330  -0.328  -0.324  -0.312
 -0.310  -0.306  -0.305  -0.299  -0.295  -0.288  -0.284  -0.279
 -0.271  -0.258  -0.255  -0.245  -0.243  -0.236  -0.234  -0.186
 -0.181  -0.174  -0.170  -0.161  -0.160  -0.152  -0.146  -0.146
 -0.143

          Ground-State Mulliken Net Atomic Charges

     Atom                 Charge (a.u.)
  ----------------------------------------
      1 O                    -0.207739
      2 C                     0.211217
      3 C                    -0.078416
      4 C                    -0.079439
      5 C                     0.217336
      6 O                    -0.168274
      7 C                    -0.050364
      8 C                    -0.054968
      9 O                    -0.166771
     10 C                     0.220993
     11 C                    -0.078259
     12 C                    -0.078327
     13 C                     0.213166
     14 O                    -0.215852
     15 O                    -0.181401
     16 O                    -0.180080
     17 O                    -0.216195
     18 C                    -0.145503
     19 C                     0.025943
     20 C                    -0.143874
     21 C                    -0.143760
     22 C                     0.024318
     23 O                    -0.186652
     24 H                     0.086337
     25 H                     0.083959
     26 H                     0.081383
     27 H                     0.078014
     28 H                     0.073893
     29 H                     0.078053
     30 H                     0.073464
     31 H                     0.090881
     32 O                    -0.211895
     33 C                    -0.148406
     34 C                     0.024754
     35 C                    -0.144140
     36 C                    -0.143691
     37 C                     0.026519
     38 O                    -0.185564
     39 H                     0.084777
     40 H                     0.087933
     41 H                     0.090442
     42 H                     0.091836
     43 H                     0.078930
     44 H                     0.073378
     45 H                     0.078862
     46 H                     0.073875
     47 H                     0.084078
     48 H                     0.078029
     49 H                     0.111317
     50 H                     0.108771
     51 H                     0.084250
     52 H                     0.084685
     53 H                     0.084974
     54 H                     0.103087
     55 H                     0.094579
     56 H                     0.105540
  ----------------------------------------
  Sum of atomic charges =     0.000000

                    Cartesian Multipole Moments
 -----------------------------------------------------------------
    Charge (ESU x 10^10)
                 0.0000
    Dipole Moment (Debye)
         X       0.2774      Y      -0.9812      Z      -2.1675
       Tot       2.3953
    Quadrupole Moments (Debye-Ang)
        XX    -138.4104     XY      13.1990     YY    -159.3524
        XZ       3.4356     YZ       1.0341     ZZ    -164.8058

 Total job time:  143.28s(wall), 6833.45s(cpu)
        *  Thank you very much for using Q-Chem.  Have a nice day.  *
