 Q-Chem 5.0, Q-Chem, Inc., Pleasanton, CA (2017)
 Q-Chem 5.0.1 for Intel X86 EM64T Linux

User input:
--------------------------------------------------------------
$molecule
0  1
O -4.6192113199 1.4714534393 1.4815935004
C -4.9959179501 1.1676998025 0.3294824973
C -5.1736632767 -0.269932084 -0.2759173768
C -3.8023405441 -1.0221054601 -0.5494437388
C -2.5438354149 -0.1334625506 -0.2519790985
O -1.4782165704 -0.95510225 0.2353322473
C -0.2216376738 -0.172720252 0.3275666934
C 0.7531354411 -0.5958235932 -0.831922519
O 2.1455912122 -0.4788517662 -0.3397827828
C 2.9877337991 0.1404047889 -1.3262769309
C 4.4755885322 -0.2922959779 -1.0806227443
C 5.2438756587 0.6453302132 -0.0456586486
C 4.2897498512 1.7057141674 0.6107188235
O 3.7611867561 1.6616222722 1.7417312495
O -5.3810111438 2.1195965686 -0.6706689429
O 4.0596451224 2.7466996029 -0.3462883282
O 2.5597726891 0.8349020391 -2.2742365125
C 3.0669873795 3.7107800571 0.1819899709
C 4.6177100368 -1.7020150473 -0.3671813216
C 6.0992955582 -2.2090117652 -0.5823854542
C 6.8851681817 -1.2793109692 0.4160680219
C 5.7084679484 -0.4226347557 1.0278189109
O 4.5705962061 -1.3705280228 1.0742525186
H 4.9808102476 -0.2749406204 -2.0628755396
H 6.0891495053 1.1656416504 -0.5304634271
H 3.8235026069 -2.4285970786 -0.6242587072
H 6.1861120492 -3.2702901334 -0.3002006311
H 6.4320142514 -2.092035262 -1.626226776
H 7.385716808 -1.8642043765 1.2038649361
H 7.6369001198 -0.6519162424 -0.0892368979
H 5.8958768367 -0.0003660942 2.0338135045
O -2.4528301756 1.1020659979 -0.4327006684
C -5.1641809888 3.493456663 -0.1629587074
C -5.83782755 -1.2562966371 0.7772405702
C -6.3258896111 -2.5501885143 0.0116268114
C -4.959787668 -3.2914156823 -0.2356372485
C -3.9408699131 -2.2760310903 0.4157152341
O -4.685210649 -1.7338147885 1.5745869102
H -5.7724659282 -0.1853552454 -1.1992970579
H -3.7368712425 -1.3403366412 -1.6070859155
H -4.0907074137 3.6793991645 0.0454565108
H -6.5918485655 -0.7830420023 1.4353132379
H -7.0001483092 -3.1449675 0.6481471977
H -6.8502191715 -2.3017699945 -0.9249481928
H -4.9243063258 -4.259711874 0.2884911775
H -4.753784435 -3.4614876193 -1.3045689031
H -2.9719725026 -2.7042214094 0.7365706009
H -5.7415951137 3.6830970014 0.7650574689
H -5.5105436798 4.1746387116 -0.9618001707
H 2.9715367442 4.5017494902 -0.5843148707
H 3.3991145801 4.1573137166 1.1412536556
H 2.0805457644 3.228560481 0.340694438
H 0.5633081691 -1.660355622 -1.094695941
H 0.6161828799 0.0378666776 -1.7341683912
H 0.2489458417 -0.4177646523 1.3026794288
H -0.4591641334 0.9109696697 0.2819849912
$end

$rem
JOBTYPE                   OPT
METHOD                    B3LYP
DFT_D                     d3_op
BASIS                     STO-3G
GEOM_OPT_MAX_CYCLES       100
GEOM_OPT_TOL_GRADIENT     300
GEOM_OPT_TOL_DISPLACEMENT 1200
GEOM_OPT_TOL_ENERGY       100
SYMMETRY                  False
THRESH                    12
SCF_CONVERGENCE           8
MAX_SUB_FILE_NUM          128
MEM_STATIC                400
MEM_TOTAL                 4000
$end
--------------------------------------------------------------

   16   -1510.2762955979      6.22E-09 Convergence criterion met
 Total energy in the final basis set = -1510.27629560
   14   -1510.2797653489      1.83E-09 Convergence criterion met
 Total energy in the final basis set = -1510.27976535
   14   -1510.2822457111      2.10E-09 Convergence criterion met
 Total energy in the final basis set = -1510.28224571
   14   -1510.2828272947      3.83E-09 Convergence criterion met
 Total energy in the final basis set = -1510.28282729
   13   -1510.2838743574      7.77E-09 Convergence criterion met
 Total energy in the final basis set = -1510.28387436
   13   -1510.2848490125      3.99E-09 Convergence criterion met
 Total energy in the final basis set = -1510.28484901
   13   -1510.2858397293      5.50E-09 Convergence criterion met
 Total energy in the final basis set = -1510.28583973
   14   -1510.2862087718      5.47E-09 Convergence criterion met
   12   -1510.3006165675      7.26E-09 Convergence criterion met
 Total energy in the final basis set = -1510.30061657
   12   -1510.3006687614      2.52E-09 Convergence criterion met
 Total energy in the final basis set = -1510.30066876
   11   -1510.3006731765      9.95E-09 Convergence criterion met
 Total energy in the final basis set = -1510.30067318
   11   -1510.3006763434      3.79E-09 Convergence criterion met
 Total energy in the final basis set = -1510.30067634
   11   -1510.3006706821      6.89E-09 Convergence criterion met
 Total energy in the final basis set = -1510.30067068
    9   -1510.3006730640      7.23E-09 Convergence criterion met
 Total energy in the final basis set = -1510.30067306

             Standard Nuclear Orientation (Angstroms)
    I     Atom           X                Y                Z
 ----------------------------------------------------------------
    1      O      -2.3418593387     2.4349604915     0.1191231377
    2      C      -2.7665000999     1.5750834673    -0.6823983017
    3      C      -3.8283450899     0.4487058175    -0.3872051116
    4      C      -3.2567807612    -1.0244186781    -0.4915992349
    5      C      -1.7096414046    -1.0449141359    -0.7003922744
    6      O      -1.3009163599    -2.3101549493    -1.2075133940
    7      C       0.1839275048    -2.4008506532    -1.2028115497
    8      C       0.8597112896    -1.5959558711    -2.3818978793
    9      O       2.1968667199    -1.1583390034    -1.9106020601
   10      C       2.1845854078     0.2265960471    -1.5575053050
   11      C       3.4971173281     0.5757958828    -0.7741870456
   12      C       3.3044248086     0.4871993143     0.8065085998
   13      C       1.8489787913     0.1046728730     1.2529689383
   14      O       1.2879623881    -1.0128437056     1.1547741669
   15      O      -2.4605799744     1.5218682327    -2.0788440878
   16      O       1.2498162238     1.2561705527     1.8308762328
   17      O       1.2600672335     1.0207233943    -1.8411906213
   18      C      -0.1692031261     0.9868488370     2.1872938152
   19      C       4.6504385095    -0.4898805177    -0.9915302823
   20      C       6.0047370183     0.1250822085    -0.4562848883
   21      C       5.8043306779    -0.0021383201     1.1000070453
   22      C       4.3624596900    -0.6428096694     1.1675654457
   23      O       4.3297859339    -1.5456116337    -0.0040649886
   24      H       3.8056677588     1.5952404247    -1.0670213286
   25      H       3.5568241247     1.4513776809     1.2810130456
   26      H       4.6935144947    -0.9153914480    -2.0121861941
   27      H       6.8628595923    -0.4714521255    -0.8042902478
   28      H       6.1429104593     1.1680198499    -0.7834097637
   29      H       6.5476466330    -0.6803737849     1.5485727742
   30      H       5.8529681971     0.9688350579     1.6183249488
   31      H       4.1347171104    -1.2047852421     2.0940387383
   32      O      -0.9152770702    -0.1162215232    -0.4163466340
   33      C      -1.3705040960     2.4728464815    -2.4041598822
   34      C      -4.3040478976     0.4881536462     1.1226798103
   35      C      -5.6606893514    -0.3081329060     1.2352945732
   36      C      -5.1532561071    -1.7898944906     1.0804588006
   37      C      -3.5929422804    -1.5714682051     0.9667331072
   38      O      -3.3324172175    -0.3907556414     1.8194787387
   39      H      -4.6747473175     0.5813189251    -1.0850286493
   40      H      -3.7462491218    -1.6207453865    -1.2815014432
   41      H      -0.3829593670     2.0171435877    -2.1663091005
   42      H      -4.2944923884     1.5011865103     1.5695328026
   43      H      -6.1251583211    -0.1428253464     2.2204867005
   44      H      -6.3796796069    -0.0194163667     0.4521515056
   45      H      -5.3927904236    -2.3961868914     1.9685276203
   46      H      -5.5652023289    -2.2902930690     0.1894644397
   47      H      -2.9711730477    -2.4308695185     1.2852871572
   48      H      -1.4850404098     3.4183018727    -1.8385809346
   49      H      -1.4416151189     2.6703412755    -3.4896031341
   50      H      -0.5845187314     1.9543980572     2.5211755895
   51      H      -0.2410803371     0.2443239113     3.0074269127
   52      H      -0.7256729270     0.6176958375     1.2961678799
   53      H       1.0101847849    -2.2272755609    -3.2801716090
   54      H       0.2526871512    -0.7017856608    -2.6411526768
   55      H       0.4082532174    -3.4814777874    -1.2888796041
   56      H       0.6012583994    -1.9970275417    -0.2441989841
 ----------------------------------------------------------------

    9   -1510.3006725651      3.13E-09 Convergence criterion met
 Total energy in the final basis set = -1510.30067257
 Final energy is   -1510.30067256512
 **  OPTIMIZATION CONVERGED  **

                    Orbital Energies (a.u.)
 --------------------------------------------------------------

 Alpha MOs
 -- Occupied --
-18.939 -18.935 -18.929 -18.912 -18.887 -18.886 -18.882 -18.882
-18.869 -18.856 -10.105 -10.104 -10.096 -10.086 -10.065 -10.061
-10.059 -10.059 -10.055 -10.055 -10.039 -10.038 -10.035 -10.034
-10.034 -10.030 -10.020 -10.020 -10.019 -10.018  -1.019  -1.012
 -1.003  -0.992  -0.969  -0.969  -0.942  -0.937  -0.928  -0.919
 -0.762  -0.760  -0.726  -0.721  -0.710  -0.704  -0.690  -0.647
 -0.644  -0.613  -0.593  -0.576  -0.545  -0.542  -0.536  -0.534
 -0.513  -0.505  -0.480  -0.474  -0.455  -0.453  -0.451  -0.444
 -0.432  -0.431  -0.428  -0.412  -0.405  -0.401  -0.397  -0.394
 -0.391  -0.372  -0.369  -0.364  -0.358  -0.352  -0.348  -0.345
 -0.342  -0.334  -0.330  -0.330  -0.324  -0.323  -0.319  -0.311
 -0.308  -0.305  -0.301  -0.298  -0.288  -0.284  -0.275  -0.272
 -0.270  -0.259  -0.244  -0.239  -0.235  -0.233  -0.233  -0.191
 -0.173  -0.162  -0.160  -0.158  -0.155  -0.147  -0.144  -0.142
 -0.138

          Ground-State Mulliken Net Atomic Charges

     Atom                 Charge (a.u.)
  ----------------------------------------
      1 O                    -0.219632
      2 C                     0.214119
      3 C                    -0.081287
      4 C                    -0.078452
      5 C                     0.219454
      6 O                    -0.169219
      7 C                    -0.065490
      8 C                    -0.055720
      9 O                    -0.166453
     10 C                     0.215776
     11 C                    -0.077624
     12 C                    -0.079093
     13 C                     0.213854
     14 O                    -0.221126
     15 O                    -0.180513
     16 O                    -0.165380
     17 O                    -0.210891
     18 C                    -0.139381
     19 C                     0.026345
     20 C                    -0.144471
     21 C                    -0.143665
     22 C                     0.025444
     23 O                    -0.185291
     24 H                     0.085973
     25 H                     0.087877
     26 H                     0.087356
     27 H                     0.077725
     28 H                     0.073283
     29 H                     0.077827
     30 H                     0.074080
     31 H                     0.084336
     32 O                    -0.211444
     33 C                    -0.145259
     34 C                     0.023536
     35 C                    -0.143678
     36 C                    -0.143816
     37 C                     0.024901
     38 O                    -0.191111
     39 H                     0.083162
     40 H                     0.087467
     41 H                     0.110644
     42 H                     0.089817
     43 H                     0.077672
     44 H                     0.073535
     45 H                     0.078160
     46 H                     0.074087
     47 H                     0.084383
     48 H                     0.087329
     49 H                     0.078745
     50 H                     0.090770
     51 H                     0.080831
     52 H                     0.115613
     53 H                     0.085404
     54 H                     0.101435
     55 H                     0.086438
     56 H                     0.121618
  ----------------------------------------
  Sum of atomic charges =    -0.000000

                    Cartesian Multipole Moments
 -----------------------------------------------------------------
    Charge (ESU x 10^10)
                -0.0000
    Dipole Moment (Debye)
         X       0.1332      Y      -0.6029      Z      -0.9118
       Tot       1.1012
    Quadrupole Moments (Debye-Ang)
        XX    -137.4674     XY       8.7385     YY    -163.1672
        XZ       0.2902     YZ      -0.2019     ZZ    -156.3753

 Total job time:  140.13s(wall), 6677.89s(cpu)
        *  Thank you very much for using Q-Chem.  Have a nice day.  *
