 Q-Chem 5.0, Q-Chem, Inc., Pleasanton, CA (2017)
 Q-Chem 5.0.1 for Intel X86 EM64T Linux

User input:
--------------------------------------------------------------
$molecule
0  1
O -3.94934 -3.66094 2.70899
C -3.26408 -4.56952 2.26188
C -3.36658 -6.02376 2.66595
C -2.86427 -6.40011 4.06948
C -2.48026 -5.25351 4.97828
O -2.76643 -5.57325 6.27493
C -2.2557 -4.62239 7.21529
C -1.0482 -5.20147 7.94518
O -0.99932 -4.69541 9.28846
C 0.22614 -4.30827 9.72149
C 0.35777 -4.34614 11.22545
C -0.08861 -3.066 11.94675
C -0.91562 -2.09831 11.12435
O -2.13179 -1.98463 11.17494
O -2.40918 -4.29574 1.24108
O -0.23037 -1.37885 10.19745
O 1.2168 -4.25306 9.00294
C -0.81358 -0.49848 9.31065
C -0.50291 -5.411 11.93311
C 0.11089 -5.75345 13.2895
C -0.17746 -4.48072 14.05814
C -0.99966 -3.71066 13.01777
O -1.6695 -4.71913 12.2992
H 1.431 -4.55566 11.44038
H 0.73748 -2.48847 12.41712
H -0.64426 -6.33445 11.32994
H -0.49844 -6.57778 13.72492
H 1.1784 -6.0612 13.26518
H -0.80517 -4.73943 14.93977
H 0.71736 -3.90652 14.38225
H -1.64767 -2.96196 13.52508
O -1.65285 -4.41119 4.64787
C -2.21093 -3.03907 0.70851
C -4.82143 -6.51568 2.71191
C -4.86472 -8.0285 2.51717
C -4.2923 -8.4954 3.83713
C -4.1309 -7.15404 4.56465
O -5.18473 -6.36923 4.06205
H -2.79943 -6.60191 1.90018
H -1.97777 -7.07146 4.02809
H -1.82979 -2.34824 1.49079
H -5.47792 -6.01204 1.96853
H -5.9376 -8.3236 2.47028
H -4.34044 -8.4042 1.61222
H -5.05772 -9.12388 4.34503
H -3.33114 -9.04963 3.77077
H -4.15034 -7.34827 5.6576
H -3.16216 -2.64567 0.29044
H -1.46199 -3.10362 -0.10722
H -0.02532 -0.05039 8.67169
H -1.33231 0.31408 9.86291
H -1.53824 -1.03483 8.66101
H -1.25133 -6.28768 8.06768
H -0.12867 -5.12145 7.3249
H -3.07514 -4.48989 7.95426
H -2.04145 -3.59896 6.831
$end

$opt
CONSTRAINT
tors           1           2           3           4     -71.242
tors           3           4           5           6    +146.749
tors           4           5           6           7    +171.453
tors           5           6           7           8    -106.268
tors           6           7           8           9    -147.351
tors           7           8           9          10    -136.268
tors           8           9          10          11    -155.730
tors           9          10          11          12     -87.328
tors          11          12          13          14    +100.476
ENDCONSTRAINT
$end

$rem
JOBTYPE                   OPT
METHOD                    B3LYP
DFT_D                     d3_op
BASIS                     STO-3G
GEOM_OPT_MAX_CYCLES       100
GEOM_OPT_TOL_GRADIENT     300
GEOM_OPT_TOL_DISPLACEMENT 1200
GEOM_OPT_TOL_ENERGY       100
SYMMETRY                  False
THRESH                    12
SCF_CONVERGENCE           8
MAX_SUB_FILE_NUM          128
MEM_STATIC                400
MEM_TOTAL                 4000
$end
--------------------------------------------------------------

   16   -1510.1403336531      2.59E-09 Convergence criterion met
 Total energy in the final basis set = -1510.14033365
   13   -1510.2099106409      8.44E-09 Convergence criterion met
 Total energy in the final basis set = -1510.20991064
   14   -1510.2474452852      4.62E-09 Convergence criterion met
 Total energy in the final basis set = -1510.24744529
   14   -1510.2646962323      2.54E-09 Convergence criterion met
 Total energy in the final basis set = -1510.26469623
   13   -1510.2713313605      8.69E-09 Convergence criterion met
 Total energy in the final basis set = -1510.27133136
   13   -1510.2740516593      3.00E-09 Convergence criterion met
 Total energy in the final basis set = -1510.27405166
   13   -1510.2749992735      2.35E-09 Convergence criterion met
 Total energy in the final basis set = -1510.27499927
   12   -1510.2753088696      8.36E-09 Convergence criterion met
   10   -1510.2761378362      3.87E-09 Convergence criterion met
 Total energy in the final basis set = -1510.27613784
    9   -1510.2761403857      4.19E-09 Convergence criterion met
 Total energy in the final basis set = -1510.27614039
    9   -1510.2761418386      4.25E-09 Convergence criterion met
 Total energy in the final basis set = -1510.27614184
    9   -1510.2761432415      3.90E-09 Convergence criterion met
 Total energy in the final basis set = -1510.27614324
    9   -1510.2761450842      5.08E-09 Convergence criterion met
 Total energy in the final basis set = -1510.27614508
    9   -1510.2761478497      6.68E-09 Convergence criterion met
 Total energy in the final basis set = -1510.27614785

             Standard Nuclear Orientation (Angstroms)
    I     Atom           X                Y                Z
 ----------------------------------------------------------------
    1      O      -4.6192113199     1.4714534393     1.4815935004
    2      C      -4.9959179501     1.1676998025     0.3294824973
    3      C      -5.1736632767    -0.2699320840    -0.2759173768
    4      C      -3.8023405441    -1.0221054601    -0.5494437388
    5      C      -2.5438354149    -0.1334625506    -0.2519790985
    6      O      -1.4782165704    -0.9551022500     0.2353322473
    7      C      -0.2216376738    -0.1727202520     0.3275666934
    8      C       0.7531354411    -0.5958235932    -0.8319225190
    9      O       2.1455912122    -0.4788517662    -0.3397827828
   10      C       2.9877337991     0.1404047889    -1.3262769309
   11      C       4.4755885322    -0.2922959779    -1.0806227443
   12      C       5.2438756587     0.6453302132    -0.0456586486
   13      C       4.2897498512     1.7057141674     0.6107188235
   14      O       3.7611867561     1.6616222722     1.7417312495
   15      O      -5.3810111438     2.1195965686    -0.6706689429
   16      O       4.0596451224     2.7466996029    -0.3462883282
   17      O       2.5597726891     0.8349020391    -2.2742365125
   18      C       3.0669873795     3.7107800571     0.1819899709
   19      C       4.6177100368    -1.7020150473    -0.3671813216
   20      C       6.0992955582    -2.2090117652    -0.5823854542
   21      C       6.8851681817    -1.2793109692     0.4160680219
   22      C       5.7084679484    -0.4226347557     1.0278189109
   23      O       4.5705962061    -1.3705280228     1.0742525186
   24      H       4.9808102476    -0.2749406204    -2.0628755396
   25      H       6.0891495053     1.1656416504    -0.5304634271
   26      H       3.8235026069    -2.4285970786    -0.6242587072
   27      H       6.1861120492    -3.2702901334    -0.3002006311
   28      H       6.4320142514    -2.0920352620    -1.6262267760
   29      H       7.3857168080    -1.8642043765     1.2038649361
   30      H       7.6369001198    -0.6519162424    -0.0892368979
   31      H       5.8958768367    -0.0003660942     2.0338135045
   32      O      -2.4528301756     1.1020659979    -0.4327006684
   33      C      -5.1641809888     3.4934566630    -0.1629587074
   34      C      -5.8378275500    -1.2562966371     0.7772405702
   35      C      -6.3258896111    -2.5501885143     0.0116268114
   36      C      -4.9597876680    -3.2914156823    -0.2356372485
   37      C      -3.9408699131    -2.2760310903     0.4157152341
   38      O      -4.6852106490    -1.7338147885     1.5745869102
   39      H      -5.7724659282    -0.1853552454    -1.1992970579
   40      H      -3.7368712425    -1.3403366412    -1.6070859155
   41      H      -4.0907074137     3.6793991645     0.0454565108
   42      H      -6.5918485655    -0.7830420023     1.4353132379
   43      H      -7.0001483092    -3.1449675000     0.6481471977
   44      H      -6.8502191715    -2.3017699945    -0.9249481928
   45      H      -4.9243063258    -4.2597118740     0.2884911775
   46      H      -4.7537844350    -3.4614876193    -1.3045689031
   47      H      -2.9719725026    -2.7042214094     0.7365706009
   48      H      -5.7415951137     3.6830970014     0.7650574689
   49      H      -5.5105436798     4.1746387116    -0.9618001707
   50      H       2.9715367442     4.5017494902    -0.5843148707
   51      H       3.3991145801     4.1573137166     1.1412536556
   52      H       2.0805457644     3.2285604810     0.3406944380
   53      H       0.5633081691    -1.6603556220    -1.0946959410
   54      H       0.6161828799     0.0378666776    -1.7341683912
   55      H       0.2489458417    -0.4177646523     1.3026794288
   56      H      -0.4591641334     0.9109696697     0.2819849912
 ----------------------------------------------------------------

    9   -1510.2761483819      8.25E-09 Convergence criterion met
 Total energy in the final basis set = -1510.27614838
 Final energy is   -1510.27614838185
 **  OPTIMIZATION CONVERGED  **

                    Orbital Energies (a.u.)
 --------------------------------------------------------------

 Alpha MOs
 -- Occupied --
-18.939 -18.933 -18.931 -18.924 -18.887 -18.886 -18.882 -18.881
-18.876 -18.862 -10.105 -10.103 -10.097 -10.090 -10.071 -10.069
-10.062 -10.061 -10.058 -10.058 -10.057 -10.055 -10.040 -10.040
-10.038 -10.033 -10.021 -10.020 -10.019 -10.018  -1.018  -1.014
 -1.008  -1.000  -0.969  -0.968  -0.944  -0.938  -0.935  -0.925
 -0.764  -0.761  -0.727  -0.722  -0.714  -0.705  -0.693  -0.661
 -0.656  -0.615  -0.596  -0.580  -0.547  -0.544  -0.537  -0.536
 -0.515  -0.510  -0.485  -0.479  -0.465  -0.458  -0.451  -0.444
 -0.433  -0.431  -0.424  -0.412  -0.408  -0.405  -0.403  -0.399
 -0.394  -0.386  -0.373  -0.365  -0.361  -0.357  -0.352  -0.351
 -0.348  -0.342  -0.336  -0.332  -0.329  -0.329  -0.321  -0.311
 -0.309  -0.307  -0.304  -0.300  -0.293  -0.283  -0.280  -0.276
 -0.272  -0.253  -0.252  -0.247  -0.245  -0.234  -0.232  -0.184
 -0.177  -0.171  -0.167  -0.162  -0.161  -0.151  -0.143  -0.143
 -0.141

          Ground-State Mulliken Net Atomic Charges

     Atom                 Charge (a.u.)
  ----------------------------------------
      1 O                    -0.214883
      2 C                     0.210892
      3 C                    -0.080348
      4 C                    -0.077661
      5 C                     0.213832
      6 O                    -0.170846
      7 C                    -0.054556
      8 C                    -0.054917
      9 O                    -0.171923
     10 C                     0.207433
     11 C                    -0.078062
     12 C                    -0.077627
     13 C                     0.205801
     14 O                    -0.207561
     15 O                    -0.170375
     16 O                    -0.169832
     17 O                    -0.207997
     18 C                    -0.128234
     19 C                     0.026758
     20 C                    -0.144046
     21 C                    -0.144430
     22 C                     0.025267
     23 O                    -0.184479
     24 H                     0.086193
     25 H                     0.086104
     26 H                     0.084895
     27 H                     0.078004
     28 H                     0.072943
     29 H                     0.078366
     30 H                     0.073210
     31 H                     0.088036
     32 O                    -0.212452
     33 C                    -0.128299
     34 C                     0.025760
     35 C                    -0.144231
     36 C                    -0.144017
     37 C                     0.023489
     38 O                    -0.186887
     39 H                     0.084933
     40 H                     0.084832
     41 H                     0.092032
     42 H                     0.084279
     43 H                     0.077854
     44 H                     0.073183
     45 H                     0.078051
     46 H                     0.072189
     47 H                     0.092448
     48 H                     0.087198
     49 H                     0.087605
     50 H                     0.092042
     51 H                     0.089496
     52 H                     0.088611
     53 H                     0.084341
     54 H                     0.097611
     55 H                     0.098207
     56 H                     0.101771
  ----------------------------------------
  Sum of atomic charges =     0.000000

                    Cartesian Multipole Moments
 -----------------------------------------------------------------
    Charge (ESU x 10^10)
                -0.0000
    Dipole Moment (Debye)
         X       0.8705      Y      -1.0331      Z      -2.9151
       Tot       3.2129
    Quadrupole Moments (Debye-Ang)
        XX    -136.1153     XY       1.5869     YY    -149.9209
        XZ       4.0712     YZ       6.4680     ZZ    -170.4134

 Total job time:  73.91s(wall), 3515.20s(cpu)
        *  Thank you very much for using Q-Chem.  Have a nice day.  *
