 Q-Chem 5.0, Q-Chem, Inc., Pleasanton, CA (2017)
 Q-Chem 5.0.1 for Intel X86 EM64T Linux

User input:
--------------------------------------------------------------
$molecule
0  1
O -3.94934 -3.66094 2.70899
C -3.26408 -4.56952 2.26188
C -3.36658 -6.02376 2.66595
C -3.46675 -6.32991 4.16931
C -3.63227 -5.14125 5.09006
O -4.50818 -5.44876 6.09188
C -4.59321 -4.43305 7.09704
C -4.23923 -5.01362 8.46223
O -5.06067 -4.41455 9.47674
C -4.40406 -3.64324 10.37846
C -5.31777 -3.06049 11.43021
C -5.79339 -1.62703 11.15223
C -5.59177 -1.12689 9.73593
O -6.4807 -0.76472 8.97883
O -2.2611 -4.26286 1.39748
O -4.3031 -0.96956 9.33374
O -3.22962 -3.3101 10.2774
C -3.92506 -0.45402 8.11145
C -6.6926 -3.76412 11.58049
C -7.24304 -3.52186 12.98517
C -7.58126 -2.04849 12.90436
C -7.3018 -1.78615 11.41963
O -7.57939 -3.01208 10.78991
H -4.7904 -3.18093 12.40336
H -5.30509 -0.88708 11.8235
H -6.65988 -4.857 11.37836
H -8.1922 -4.1004 13.05894
H -6.57759 -3.81001 13.82713
H -8.66096 -1.92299 13.14166
H -6.96682 -1.38398 13.54989
H -7.89132 -0.91069 11.06879
O -2.80542 -4.23744 5.14354
C -1.98744 -2.98924 0.94451
C -4.68923 -6.64283 2.16485
C -4.51995 -8.14921 1.99515
C -4.42305 -8.58011 3.44112
C -4.7177 -7.24867 4.14731
O -5.56612 -6.56589 3.26105
H -2.52676 -6.56688 2.17422
H -2.55965 -6.86557 4.52658
H -1.73344 -2.32539 1.79845
H -5.05587 -6.19296 1.21563
H -5.4773 -8.53109 1.57248
H -3.67988 -8.47593 1.34525
H -5.22271 -9.32909 3.63567
H -3.43591 -8.98687 3.75057
H -5.13801 -7.47384 5.15021
H -2.86474 -2.58073 0.39872
H -1.12177 -3.02755 0.25194
H -2.81786 -0.45065 8.04484
H -4.29366 0.58865 8.00613
H -4.33235 -1.07801 7.2884
H -4.52365 -6.0879 8.46982
H -3.13828 -4.98812 8.62245
H -5.67158 -4.16438 7.12032
H -4.05352 -3.4754 6.92974
$end

$opt
CONSTRAINT
tors           1           2           3           4     -45.265
tors           3           4           5           6    +140.796
tors           4           5           6           7    +172.775
tors           5           6           7           8    -122.039
tors           6           7           8           9    -143.392
tors           7           8           9          10    -113.947
tors           8           9          10          11    -179.090
tors           9          10          11          12     -96.625
tors          11          12          13          14    +119.498
ENDCONSTRAINT
$end

$rem
JOBTYPE                   OPT
METHOD                    B3LYP
DFT_D                     d3_op
BASIS                     STO-3G
GEOM_OPT_MAX_CYCLES       100
GEOM_OPT_TOL_GRADIENT     300
GEOM_OPT_TOL_DISPLACEMENT 1200
GEOM_OPT_TOL_ENERGY       100
SYMMETRY                  False
THRESH                    12
SCF_CONVERGENCE           8
MAX_SUB_FILE_NUM          128
MEM_STATIC                400
MEM_TOTAL                 4000
$end
--------------------------------------------------------------

   15   -1510.1427996350      6.69E-09 Convergence criterion met
 Total energy in the final basis set = -1510.14279963
   13   -1510.2120625282      7.66E-09 Convergence criterion met
 Total energy in the final basis set = -1510.21206253
   14   -1510.2490677142      7.83E-09 Convergence criterion met
 Total energy in the final basis set = -1510.24906771
   14   -1510.2656882701      5.76E-09 Convergence criterion met
 Total energy in the final basis set = -1510.26568827
   13   -1510.2720846413      7.61E-09 Convergence criterion met
 Total energy in the final basis set = -1510.27208464
   13   -1510.2749841647      2.90E-09 Convergence criterion met
 Total energy in the final basis set = -1510.27498416
   13   -1510.2762639177      3.63E-09 Convergence criterion met
 Total energy in the final basis set = -1510.27626392
   12   -1510.2768184082      9.30E-09 Convergence criterion met
   12   -1510.2784226591      3.72E-09 Convergence criterion met
 Total energy in the final basis set = -1510.27842266
   11   -1510.2784551614      2.74E-09 Convergence criterion met
 Total energy in the final basis set = -1510.27845516
   10   -1510.2784698825      6.63E-09 Convergence criterion met
 Total energy in the final basis set = -1510.27846988
   10   -1510.2784813361      5.56E-09 Convergence criterion met
 Total energy in the final basis set = -1510.27848134
    9   -1510.2784870959      4.52E-09 Convergence criterion met
 Total energy in the final basis set = -1510.27848710
    9   -1510.2784903010      4.94E-09 Convergence criterion met
 Total energy in the final basis set = -1510.27849030

             Standard Nuclear Orientation (Angstroms)
    I     Atom           X                Y                Z
 ----------------------------------------------------------------
    1      O      -3.7526491790     1.3716158713     1.4331259129
    2      C      -4.6158420964     1.2327051096     0.5402324595
    3      C      -5.0066669639    -0.0848103244    -0.2150061476
    4      C      -3.7597421543    -0.9359404053    -0.6983143206
    5      C      -2.3920974120    -0.1746784967    -0.5862894021
    6      O      -1.3690271988    -1.0740850880    -0.1414807884
    7      C      -0.0465641091    -0.4055084305    -0.2011292611
    8      C       0.9196600287    -1.2302140492    -1.1297576991
    9      O       2.2897715239    -1.1807371444    -0.5674172647
   10      C       3.1633224228    -0.4596237778    -1.4493335067
   11      C       4.6087184415    -0.4404156783    -0.8463319568
   12      C       4.9648885555     0.8792347363    -0.0273920478
   13      C       3.7272499608     1.7844122359     0.3242741603
   14      O       3.3286884561     2.1005988059     1.4657985648
   15      O      -5.4560841424     2.2897048148     0.0609698515
   16      O       3.1052231720     2.2168599907    -0.8884587169
   17      O       2.8140573790    -0.0144755862    -2.5651748187
   18      C       1.9056268346     3.0318143925    -0.5858792275
   19      C       4.9091933332    -1.5590739341     0.2402789012
   20      C       6.4750971161    -1.7596881822     0.2960176328
   21      C       6.9217098274    -0.4364101270     1.0222022247
   22      C       5.5257894541     0.2430085098     1.3105010187
   23      O       4.6069211643    -0.8998766321     1.5302140645
   24      H       5.3000234165    -0.5297129113    -1.7037549776
   25      H       5.7153480925     1.4862056967    -0.5658595635
   26      H       4.3115681697    -2.4835822128     0.1262571900
   27      H       6.7245765371    -2.6509106843     0.8938642560
   28      H       6.9203574821    -1.8701380332    -0.7057220719
   29      H       7.4509382001    -0.6494306766     1.9643500797
   30      H       7.5653512892     0.1966574804     0.3904039712
   31      H       5.4919472412     0.9324562436     2.1762113447
   32      O      -2.1826353831     1.0159140222    -0.9114226401
   33      C      -5.1260676339     3.5515467837     0.7632547273
   34      C      -5.6706360690    -1.1117846677     0.8027643625
   35      C      -6.3051383747    -2.3061639641    -0.0162470531
   36      C      -5.0228406964    -3.1394675496    -0.3880990435
   37      C      -3.8869732522    -2.2270760072     0.2193245273
   38      O      -4.4962670027    -1.7174262006     1.4693887709
   39      H      -5.6833657741     0.1716356744    -1.0483163822
   40      H      -3.8810408749    -1.2081872908    -1.7640782750
   41      H      -4.0701616395     3.8458230604     0.5942458288
   42      H      -6.3430443309    -0.6456140556     1.5487689424
   43      H      -6.9970939030    -2.8847439501     0.6160179983
   44      H      -6.8512913042    -1.9503043404    -0.9045540928
   45      H      -5.0264603790    -4.1249911139     0.1043703543
   46      H      -4.9078956481    -3.2871743669    -1.4738766961
   47      H      -2.9225220352    -2.7278279689     0.4286055856
   48      H      -5.2970633245     3.4678826281     1.8560974788
   49      H      -5.7980745318     4.3213168238     0.3413441255
   50      H       1.4251762187     3.2391533171    -1.5597128640
   51      H       2.1764314312     3.9885109585    -0.0941639789
   52      H       1.1972559723     2.4874091636     0.0708332134
   53      H       0.5968949842    -2.2930733993    -1.1389952778
   54      H       0.9389579634    -0.8292515621    -2.1659184566
   55      H       0.3758636288    -0.3821323582     0.8266473400
   56      H      -0.1951362982     0.6332050996    -0.5662221664
 ----------------------------------------------------------------

    9   -1510.2784909205      3.92E-09 Convergence criterion met
 Total energy in the final basis set = -1510.27849092
 Final energy is   -1510.27849092054
 **  OPTIMIZATION CONVERGED  **

                    Orbital Energies (a.u.)
 --------------------------------------------------------------

 Alpha MOs
 -- Occupied --
-18.936 -18.935 -18.934 -18.930 -18.887 -18.885 -18.876 -18.876
-18.875 -18.868 -10.102 -10.100 -10.098 -10.094 -10.066 -10.064
-10.062 -10.060 -10.060 -10.058 -10.057 -10.056 -10.039 -10.039
-10.038 -10.036 -10.021 -10.019 -10.019 -10.018  -1.016  -1.013
 -1.008  -1.005  -0.970  -0.968  -0.941  -0.936  -0.934  -0.929
 -0.763  -0.762  -0.726  -0.722  -0.714  -0.705  -0.691  -0.662
 -0.660  -0.614  -0.596  -0.579  -0.545  -0.544  -0.537  -0.536
 -0.512  -0.512  -0.483  -0.478  -0.466  -0.460  -0.450  -0.443
 -0.434  -0.432  -0.421  -0.413  -0.409  -0.407  -0.404  -0.400
 -0.391  -0.386  -0.373  -0.368  -0.359  -0.358  -0.352  -0.348
 -0.343  -0.340  -0.338  -0.330  -0.329  -0.329  -0.321  -0.310
 -0.309  -0.305  -0.303  -0.295  -0.292  -0.288  -0.282  -0.277
 -0.273  -0.254  -0.251  -0.247  -0.246  -0.233  -0.232  -0.184
 -0.177  -0.172  -0.167  -0.160  -0.159  -0.152  -0.147  -0.143
 -0.142

          Ground-State Mulliken Net Atomic Charges

     Atom                 Charge (a.u.)
  ----------------------------------------
      1 O                    -0.211627
      2 C                     0.210721
      3 C                    -0.079085
      4 C                    -0.078231
      5 C                     0.215041
      6 O                    -0.171084
      7 C                    -0.058224
      8 C                    -0.057609
      9 O                    -0.170842
     10 C                     0.209939
     11 C                    -0.079399
     12 C                    -0.077284
     13 C                     0.207399
     14 O                    -0.209631
     15 O                    -0.170152
     16 O                    -0.168953
     17 O                    -0.210827
     18 C                    -0.128712
     19 C                     0.025116
     20 C                    -0.143322
     21 C                    -0.145047
     22 C                     0.024158
     23 O                    -0.187474
     24 H                     0.084940
     25 H                     0.085844
     26 H                     0.088163
     27 H                     0.077872
     28 H                     0.072713
     29 H                     0.078364
     30 H                     0.072892
     31 H                     0.090175
     32 O                    -0.216139
     33 C                    -0.128680
     34 C                     0.025712
     35 C                    -0.144455
     36 C                    -0.143530
     37 C                     0.023681
     38 O                    -0.186858
     39 H                     0.086303
     40 H                     0.084558
     41 H                     0.091522
     42 H                     0.082698
     43 H                     0.078143
     44 H                     0.073667
     45 H                     0.078146
     46 H                     0.072517
     47 H                     0.093514
     48 H                     0.087980
     49 H                     0.089097
     50 H                     0.094020
     51 H                     0.088562
     52 H                     0.091128
     53 H                     0.087807
     54 H                     0.100513
     55 H                     0.094110
     56 H                     0.100146
  ----------------------------------------
  Sum of atomic charges =    -0.000000

                    Cartesian Multipole Moments
 -----------------------------------------------------------------
    Charge (ESU x 10^10)
                -0.0000
    Dipole Moment (Debye)
         X      -0.1825      Y      -0.6482      Z      -2.2619
       Tot       2.3600
    Quadrupole Moments (Debye-Ang)
        XX    -131.3037     XY      -0.1317     YY    -150.6071
        XZ       1.9927     YZ       5.1837     ZZ    -170.7242

 Total job time:  53.98s(wall), 2565.86s(cpu)
        *  Thank you very much for using Q-Chem.  Have a nice day.  *
