 Q-Chem 5.0, Q-Chem, Inc., Pleasanton, CA (2017)
 Q-Chem 5.0.1 for Intel X86 EM64T Linux

User input:
--------------------------------------------------------------
$molecule
0  1
O -3.752649179 1.3716158713 1.4331259129
C -4.6158420964 1.2327051096 0.5402324595
C -5.0066669639 -0.0848103244 -0.2150061476
C -3.7597421543 -0.9359404053 -0.6983143206
C -2.392097412 -0.1746784967 -0.5862894021
O -1.3690271988 -1.074085088 -0.1414807884
C -0.0465641091 -0.4055084305 -0.2011292611
C 0.9196600287 -1.2302140492 -1.1297576991
O 2.2897715239 -1.1807371444 -0.5674172647
C 3.1633224228 -0.4596237778 -1.4493335067
C 4.6087184415 -0.4404156783 -0.8463319568
C 4.9648885555 0.8792347363 -0.0273920478
C 3.7272499608 1.7844122359 0.3242741603
O 3.3286884561 2.1005988059 1.4657985648
O -5.4560841424 2.2897048148 0.0609698515
O 3.105223172 2.2168599907 -0.8884587169
O 2.814057379 -0.0144755862 -2.5651748187
C 1.9056268346 3.0318143925 -0.5858792275
C 4.9091933332 -1.5590739341 0.2402789012
C 6.4750971161 -1.7596881822 0.2960176328
C 6.9217098274 -0.436410127 1.0222022247
C 5.5257894541 0.2430085098 1.3105010187
O 4.6069211643 -0.8998766321 1.5302140645
H 5.3000234165 -0.5297129113 -1.7037549776
H 5.7153480925 1.4862056967 -0.5658595635
H 4.3115681697 -2.4835822128 0.12625719
H 6.7245765371 -2.6509106843 0.893864256
H 6.9203574821 -1.8701380332 -0.7057220719
H 7.4509382001 -0.6494306766 1.9643500797
H 7.5653512892 0.1966574804 0.3904039712
H 5.4919472412 0.9324562436 2.1762113447
O -2.1826353831 1.0159140222 -0.9114226401
C -5.1260676339 3.5515467837 0.7632547273
C -5.670636069 -1.1117846677 0.8027643625
C -6.3051383747 -2.3061639641 -0.0162470531
C -5.0228406964 -3.1394675496 -0.3880990435
C -3.8869732522 -2.2270760072 0.2193245273
O -4.4962670027 -1.7174262006 1.4693887709
H -5.6833657741 0.1716356744 -1.0483163822
H -3.8810408749 -1.2081872908 -1.764078275
H -4.0701616395 3.8458230604 0.5942458288
H -6.3430443309 -0.6456140556 1.5487689424
H -6.997093903 -2.8847439501 0.6160179983
H -6.8512913042 -1.9503043404 -0.9045540928
H -5.026460379 -4.1249911139 0.1043703543
H -4.9078956481 -3.2871743669 -1.4738766961
H -2.9225220352 -2.7278279689 0.4286055856
H -5.2970633245 3.4678826281 1.8560974788
H -5.7980745318 4.3213168238 0.3413441255
H 1.4251762187 3.2391533171 -1.559712864
H 2.1764314312 3.9885109585 -0.0941639789
H 1.1972559723 2.4874091636 0.0708332134
H 0.5968949842 -2.2930733993 -1.1389952778
H 0.9389579634 -0.8292515621 -2.1659184566
H 0.3758636288 -0.3821323582 0.82664734
H -0.1951362982 0.6332050996 -0.5662221664
$end

$rem
JOBTYPE                   OPT
METHOD                    B3LYP
DFT_D                     d3_op
BASIS                     STO-3G
GEOM_OPT_MAX_CYCLES       100
GEOM_OPT_TOL_GRADIENT     300
GEOM_OPT_TOL_DISPLACEMENT 1200
GEOM_OPT_TOL_ENERGY       100
SYMMETRY                  False
THRESH                    12
SCF_CONVERGENCE           8
MAX_SUB_FILE_NUM          128
MEM_STATIC                400
MEM_TOTAL                 4000
$end
--------------------------------------------------------------

   16   -1510.2784613647      7.39E-09 Convergence criterion met
 Total energy in the final basis set = -1510.27846136
   14   -1510.2782954034      2.74E-09 Convergence criterion met
 Total energy in the final basis set = -1510.27829540
   13   -1510.2799968427      9.71E-09 Convergence criterion met
 Total energy in the final basis set = -1510.27999684
   13   -1510.2809676244      5.55E-09 Convergence criterion met
 Total energy in the final basis set = -1510.28096762
   13   -1510.2817529256      2.87E-09 Convergence criterion met
 Total energy in the final basis set = -1510.28175293
   13   -1510.2824510989      4.77E-09 Convergence criterion met
 Total energy in the final basis set = -1510.28245110
   13   -1510.2831172355      5.20E-09 Convergence criterion met
 Total energy in the final basis set = -1510.28311724
   13   -1510.2836669038      9.14E-09 Convergence criterion met
   11   -1510.2986796439      5.96E-09 Convergence criterion met
 Total energy in the final basis set = -1510.29867964
   10   -1510.2986798972      9.10E-09 Convergence criterion met
 Total energy in the final basis set = -1510.29867990
   10   -1510.2986702622      8.98E-09 Convergence criterion met
 Total energy in the final basis set = -1510.29867026
   10   -1510.2986624138      6.19E-09 Convergence criterion met
 Total energy in the final basis set = -1510.29866241
   11   -1510.2986514939      8.17E-09 Convergence criterion met
 Total energy in the final basis set = -1510.29865149
   11   -1510.2986378956      9.80E-09 Convergence criterion met
 Total energy in the final basis set = -1510.29863790

             Standard Nuclear Orientation (Angstroms)
    I     Atom           X                Y                Z
 ----------------------------------------------------------------
    1      O      -3.1841932137     2.1827984676    -0.0342758145
    2      C      -3.0387160395     1.0820154856    -0.6067164225
    3      C      -4.0713330326    -0.1086112064    -0.6053292577
    4      C      -3.5502018940    -1.4797702723     0.0026902711
    5      C      -2.0750672451    -1.3753240329     0.4954889445
    6      O      -1.3169806500    -2.4438506840    -0.0781900448
    7      C       0.1342812733    -2.1912960334     0.1036677840
    8      C       0.5993053877    -1.1991782426    -1.0200156462
    9      O       1.9453455716    -0.7161276521    -0.6337178238
   10      C       2.3376667240     0.4244851128    -1.3963837525
   11      C       3.7758389588     0.8280841086    -0.9360140755
   12      C       3.9127854214     0.9401166094     0.6403957171
   13      C       2.5595016744     0.7444300744     1.4176041203
   14      O       2.3233278433    -0.0568031459     2.3464845527
   15      O      -1.9199054710     0.7520765583    -1.4460236817
   16      O       1.6334986168     1.7161435419     0.9231379167
   17      O       1.6446928751     0.9632373856    -2.2902903616
   18      C       0.3685940160     1.6699888299     1.6971227066
   19      C       4.8189149959    -0.3375229012    -1.2309179395
   20      C       6.2791450234     0.2354935883    -1.0362483132
   21      C       6.3846708710     0.2814762550     0.5339719386
   22      C       4.9463254089    -0.2205405553     0.9458372709
   23      O       4.6391098158    -1.2472392770    -0.0787952425
   24      H       4.0475626730     1.7689306312    -1.4451506650
   25      H       4.3244313630     1.9277366700     0.9187920881
   26      H       4.6482711545    -0.8770662269    -2.1830193665
   27      H       7.0223694836    -0.4504084437    -1.4728592348
   28      H       6.3995287091     1.2278467016    -1.4997370442
   29      H       7.1562759072    -0.4110672204     0.9065247201
   30      H       6.5990275215     1.2913840376     0.9181363587
   31      H       4.8512168215    -0.6491464661     1.9625884870
   32      O      -1.6088978998    -0.4984255935     1.2583013830
   33      C      -1.0884208855     1.9608469366    -1.6871150334
   34      C      -5.2827330098     0.2126779017     0.3667672283
   35      C      -6.4827549412    -0.7472686570     0.0070482664
   36      C      -5.9658186254    -2.1118650468     0.5981380478
   37      C      -4.5741275906    -1.6739683389     1.2055330440
   38      O      -4.8135928353    -0.2941085099     1.6778111734
   39      H      -4.4117254945    -0.2579016715    -1.6466452382
   40      H      -3.6178282071    -2.3028474539    -0.7295331325
   41      H      -1.0028597042     2.5721108188    -0.7687804244
   42      H      -5.5242575470     1.2910770810     0.4356090669
   43      H      -7.4057180419    -0.4147591556     0.5079323409
   44      H      -6.6665954717    -0.7954232957    -1.0781983896
   45      H      -6.6305403425    -2.4866738479     1.3926010126
   46      H      -5.8542431376    -2.8942804040    -0.1694259704
   47      H      -4.1982642642    -2.3088767640     2.0312785598
   48      H      -1.5438492528     2.5821021409    -2.4844285165
   49      H      -0.0840693260     1.6021283685    -2.0080350175
   50      H      -0.2468280884     0.7715514844     1.4570523919
   51      H      -0.1909050845     2.5811516549     1.4173472302
   52      H       0.5679342994     1.6821848474     2.7868852914
   53      H       0.6392545451    -1.7126536874    -2.0048446611
   54      H      -0.1427082018    -0.3723342223    -1.0914929877
   55      H       0.6420586841    -3.1715757624     0.0179365587
   56      H       0.3432491703    -1.7443623142     1.0997967567
 ----------------------------------------------------------------

    9   -1510.2986370331      8.97E-09 Convergence criterion met
 Total energy in the final basis set = -1510.29863703
 Final energy is   -1510.29863703305
 **  OPTIMIZATION CONVERGED  **

                    Orbital Energies (a.u.)
 --------------------------------------------------------------

 Alpha MOs
 -- Occupied --
-18.944 -18.942 -18.928 -18.922 -18.890 -18.888 -18.887 -18.884
-18.876 -18.866 -10.111 -10.108 -10.098 -10.093 -10.075 -10.070
-10.063 -10.062 -10.058 -10.057 -10.042 -10.041 -10.040 -10.039
-10.038 -10.035 -10.022 -10.021 -10.021 -10.019  -1.023  -1.018
 -1.006  -1.000  -0.972  -0.970  -0.948  -0.943  -0.933  -0.927
 -0.766  -0.764  -0.730  -0.724  -0.712  -0.706  -0.697  -0.653
 -0.649  -0.618  -0.598  -0.582  -0.547  -0.546  -0.539  -0.537
 -0.518  -0.509  -0.486  -0.477  -0.462  -0.461  -0.454  -0.447
 -0.436  -0.432  -0.430  -0.414  -0.410  -0.407  -0.401  -0.399
 -0.392  -0.379  -0.373  -0.368  -0.361  -0.359  -0.355  -0.352
 -0.341  -0.336  -0.334  -0.332  -0.330  -0.328  -0.324  -0.312
 -0.310  -0.306  -0.305  -0.299  -0.295  -0.289  -0.284  -0.279
 -0.271  -0.258  -0.255  -0.245  -0.243  -0.236  -0.234  -0.187
 -0.181  -0.174  -0.170  -0.161  -0.160  -0.152  -0.146  -0.146
 -0.143

          Ground-State Mulliken Net Atomic Charges

     Atom                 Charge (a.u.)
  ----------------------------------------
      1 O                    -0.207780
      2 C                     0.211187
      3 C                    -0.078463
      4 C                    -0.079473
      5 C                     0.217403
      6 O                    -0.168304
      7 C                    -0.050346
      8 C                    -0.054886
      9 O                    -0.166777
     10 C                     0.221171
     11 C                    -0.078113
     12 C                    -0.078346
     13 C                     0.213326
     14 O                    -0.216138
     15 O                    -0.181367
     16 O                    -0.180160
     17 O                    -0.216137
     18 C                    -0.145570
     19 C                     0.025804
     20 C                    -0.143974
     21 C                    -0.143636
     22 C                     0.024286
     23 O                    -0.186634
     24 H                     0.086413
     25 H                     0.083993
     26 H                     0.081443
     27 H                     0.078034
     28 H                     0.073924
     29 H                     0.078089
     30 H                     0.073518
     31 H                     0.090824
     32 O                    -0.211851
     33 C                    -0.148286
     34 C                     0.024804
     35 C                    -0.144199
     36 C                    -0.143648
     37 C                     0.026505
     38 O                    -0.185594
     39 H                     0.084776
     40 H                     0.087893
     41 H                     0.090197
     42 H                     0.091809
     43 H                     0.078925
     44 H                     0.073376
     45 H                     0.078848
     46 H                     0.073877
     47 H                     0.084062
     48 H                     0.078145
     49 H                     0.111282
     50 H                     0.108680
     51 H                     0.084115
     52 H                     0.084656
     53 H                     0.085064
     54 H                     0.103149
     55 H                     0.094733
     56 H                     0.105368
  ----------------------------------------
  Sum of atomic charges =     0.000000

                    Cartesian Multipole Moments
 -----------------------------------------------------------------
    Charge (ESU x 10^10)
                 0.0000
    Dipole Moment (Debye)
         X       0.3186      Y      -0.9208      Z      -2.1663
       Tot       2.3753
    Quadrupole Moments (Debye-Ang)
        XX    -138.5656     XY      13.2737     YY    -159.6165
        XZ       4.0241     YZ       1.1181     ZZ    -164.7868

 Total job time:  165.98s(wall), 7914.39s(cpu)
        *  Thank you very much for using Q-Chem.  Have a nice day.  *
