 Q-Chem 5.0, Q-Chem, Inc., Pleasanton, CA (2017)
 Q-Chem 5.0.1 for Intel X86 EM64T Linux

User input:
--------------------------------------------------------------
$molecule
0  1
O -3.7746763096 1.5802726852 1.2898757682
C -4.4971666402 1.3112456492 0.306482247
C -4.8533644993 -0.1049152299 -0.2652461791
C -3.592739258 -1.0391078292 -0.4980038108
C -2.2167741896 -0.3006724332 -0.3495260469
O -1.2620160607 -1.1817771396 0.2528427316
C 0.0846405527 -0.5601654083 0.2289875697
C 1.0770099325 -1.4910539859 -0.5481583893
O 2.4586417329 -1.019105519 -0.2922113939
C 3.0597236485 -0.5106891812 -1.4914793108
C 4.5153959298 -0.0581963581 -1.1404619994
C 4.5828772895 1.0174496977 0.024642552
C 3.1815691181 1.5229791559 0.5187946852
O 2.6946742738 1.4376364523 1.6661731358
O -5.1771480791 2.2940576497 -0.484661194
O 2.5370834859 2.1542850074 -0.5969498784
O 2.5021278741 -0.49114675 -2.6103024142
C 1.2639580983 2.7898851601 -0.183142684
C 5.3393019592 -1.2476013835 -0.4762906561
C 6.8676464407 -0.8446103655 -0.4402740503
C 6.8866857698 0.1798496454 0.7556340368
C 5.3585523062 0.212147367 1.1473965607
O 4.9254290737 -1.1895651502 0.9428984567
H 4.9893075007 0.3129940365 -2.0657386606
H 5.1600139178 1.9000724396 -0.3066961363
H 5.1250593641 -2.2466841085 -0.9029969445
H 7.4926649819 -1.726740178 -0.2289354312
H 7.1990597609 -0.3960222849 -1.39043181
H 7.4922267209 -0.194384301 1.5963660086
H 7.2642901555 1.1721322591 0.4612872839
H 5.1261832073 0.5411536574 2.1788094846
O -1.9455251767 0.8507618927 -0.7600886939
C -4.8651503271 3.6506893407 0.0210656786
C -5.6343966398 -0.9555301966 0.8318637317
C -6.2429472172 -2.2409124935 0.1416596638
C -4.9626827217 -3.1441126159 -0.007769991
C -3.8497570796 -2.1853019384 0.569452103
O -4.5422809801 -1.4881533715 1.6768310657
H -5.445020081 0.0266155796 -1.1877771548
H -3.6175985931 -1.4556381946 -1.5230575425
H -3.7782906372 3.8644122778 -0.0357431069
H -6.346581699 -0.3690725115 1.4443027176
H -6.9958186467 -2.7091376605 0.7953259921
H -6.713301759 -2.0053243265 -0.8263723016
H -5.0396260292 -4.0554622606 0.6065038312
H -4.7641213568 -3.4363355903 -1.0512331419
H -2.9267731902 -2.6766040136 0.9319264911
H -5.194642388 3.7814703024 1.072118818
H -5.4161005825 4.3540598662 -0.6299810474
H 0.4646878612 2.4755835401 -0.8823389233
H 1.3748903819 3.8917522242 -0.2322987017
H 1.009947027 2.488024249 0.8527736919
H 0.9986185413 -2.5317640479 -0.1696367965
H 0.8757193941 -1.4669265359 -1.6409076113
H 0.4355260959 -0.4315486887 1.2749323165
H -0.0012516372 0.4321284671 -0.2574496195
$end

$rem
JOBTYPE                   OPT
METHOD                    B3LYP
DFT_D                     d3_op
BASIS                     STO-3G
GEOM_OPT_MAX_CYCLES       100
GEOM_OPT_TOL_GRADIENT     300
GEOM_OPT_TOL_DISPLACEMENT 1200
GEOM_OPT_TOL_ENERGY       100
SYMMETRY                  False
THRESH                    12
SCF_CONVERGENCE           8
MAX_SUB_FILE_NUM          128
MEM_STATIC                400
MEM_TOTAL                 4000
$end
--------------------------------------------------------------

   15   -1510.2842381036      9.75E-09 Convergence criterion met
 Total energy in the final basis set = -1510.28423810
   13   -1510.2845703002      9.86E-09 Convergence criterion met
 Total energy in the final basis set = -1510.28457030
   13   -1510.2838116138      6.09E-09 Convergence criterion met
 Total energy in the final basis set = -1510.28381161
   13   -1510.2850139538      7.92E-09 Convergence criterion met
 Total energy in the final basis set = -1510.28501395
   14   -1510.2850071608      2.75E-09 Convergence criterion met
 Total energy in the final basis set = -1510.28500716
   14   -1510.2861686988      2.07E-09 Convergence criterion met
 Total energy in the final basis set = -1510.28616870
   13   -1510.2874621231      4.35E-09 Convergence criterion met
 Total energy in the final basis set = -1510.28746212
   13   -1510.2887251013      9.85E-09 Convergence criterion met
   11   -1510.2987069382      7.29E-09 Convergence criterion met
 Total energy in the final basis set = -1510.29870694
   11   -1510.2986950349      9.04E-09 Convergence criterion met
 Total energy in the final basis set = -1510.29869503
   11   -1510.2986945247      6.97E-09 Convergence criterion met
 Total energy in the final basis set = -1510.29869452
   10   -1510.2986965713      6.60E-09 Convergence criterion met
 Total energy in the final basis set = -1510.29869657
   10   -1510.2986939263      5.37E-09 Convergence criterion met
 Total energy in the final basis set = -1510.29869393
    9   -1510.2986918756      8.90E-09 Convergence criterion met
 Total energy in the final basis set = -1510.29869188

             Standard Nuclear Orientation (Angstroms)
    I     Atom           X                Y                Z
 ----------------------------------------------------------------
    1      O      -3.2823417652     2.1196971334    -0.0758910715
    2      C      -3.0850724954     1.0178183155    -0.6305003090
    3      C      -4.0636476697    -0.2174037121    -0.6166090539
    4      C      -3.4819586889    -1.5552226877     0.0111943082
    5      C      -2.0150430738    -1.3768206245     0.5078918771
    6      O      -1.2118857094    -2.4292531978    -0.0334575238
    7      C       0.2274923130    -2.1146361782     0.1459237714
    8      C       0.6559007525    -1.1316805389    -0.9999581955
    9      O       1.9871112606    -0.5960882489    -0.6315241717
   10      C       2.3290498728     0.5501854129    -1.4101148341
   11      C       3.7557176515     1.0110512862    -0.9679823553
   12      C       3.9020662187     1.1456957118     0.6057947589
   13      C       2.5638625024     0.9112578883     1.3980830315
   14      O       2.3672437806     0.1163437494     2.3415360564
   15      O      -1.9468349220     0.7242617762    -1.4563907907
   16      O       1.5972080570     1.8395584372     0.8981508677
   17      O       1.6073232752     1.0526154657    -2.3022773282
   18      C       0.3406878395     1.7554996978     1.6824862832
   19      C       4.8377415257    -0.1199025250    -1.2592718498
   20      C       6.2783219043     0.5067604355    -1.0829837507
   21      C       6.3944489996     0.5739216301     0.4858437056
   22      C       4.9783245603     0.0255063805     0.9149023564
   23      O       4.6998394894    -1.0226116586    -0.0960116756
   24      H       3.9890595122     1.9552853742    -1.4897209373
   25      H       4.2817239664     2.1500629669     0.8693650059
   26      H       4.6788071858    -0.6757307357    -2.2040328949
   27      H       7.0420635984    -0.1570373926    -1.5183898799
   28      H       6.3593882266     1.4976290057    -1.5581085983
   29      H       7.1935633836    -0.0858613470     0.8597183341
   30      H       6.5749231323     1.5953820631     0.8567960170
   31      H       4.9066647808    -0.3949183249     1.9369950067
   32      O      -1.5884387880    -0.4617756841     1.2487236056
   33      C      -1.1586621965     1.9619111323    -1.6958617374
   34      C      -5.2911729321     0.0611227445     0.3477458484
   35      C      -6.4456312560    -0.9559974966    -0.0030106295
   36      C      -5.8695577911    -2.2886436593     0.6055276700
   37      C      -4.5014688905    -1.7812455351     1.2122243320
   38      O      -4.8041058111    -0.4076917246     1.6666543680
   39      H      -4.3936600134    -0.3962221433    -1.6565966463
   40      H      -3.5066618978    -2.3897866181    -0.7108314472
   41      H      -1.0907452159     2.5726062759    -0.7756578853
   42      H      -5.5811814060     1.1283574077     0.4023071211
   43      H      -7.3839224325    -0.6597372445     0.4920906123
   44      H      -6.6243686067    -1.0251502434    -1.0879806164
   45      H      -6.5195933906    -2.6842515857     1.4019663169
   46      H      -5.7199893782    -3.0739414520    -0.1524895086
   47      H      -4.1012315229    -2.3888986410     2.0469686065
   48      H      -1.6367214740     2.5706457373    -2.4895923386
   49      H      -0.1438625153     1.6381521039    -2.0205741434
   50      H      -0.2528251930     0.8424850325     1.4419606492
   51      H      -0.2453874908     2.6529388767     1.4126910213
   52      H       0.5489582698     1.7664861561     2.7705283406
   53      H       0.7086129412    -1.6650794945    -1.9735847944
   54      H      -0.1118061363    -0.3305380197    -1.0866287623
   55      H       0.7738132237    -3.0757501448     0.0826718621
   56      H       0.4169223332    -1.6382824736     1.1322509089
 ----------------------------------------------------------------

    9   -1510.2986914065      2.07E-09 Convergence criterion met
 Total energy in the final basis set = -1510.29869141
 Final energy is   -1510.29869140650
 **  OPTIMIZATION CONVERGED  **

                    Orbital Energies (a.u.)
 --------------------------------------------------------------

 Alpha MOs
 -- Occupied --
-18.944 -18.942 -18.928 -18.922 -18.889 -18.888 -18.887 -18.884
-18.876 -18.866 -10.111 -10.108 -10.098 -10.093 -10.075 -10.070
-10.063 -10.062 -10.058 -10.057 -10.042 -10.041 -10.040 -10.039
-10.038 -10.035 -10.022 -10.021 -10.021 -10.019  -1.023  -1.018
 -1.006  -1.000  -0.972  -0.970  -0.948  -0.943  -0.933  -0.928
 -0.766  -0.764  -0.730  -0.724  -0.712  -0.706  -0.698  -0.653
 -0.649  -0.618  -0.598  -0.582  -0.547  -0.546  -0.538  -0.537
 -0.518  -0.509  -0.486  -0.477  -0.462  -0.461  -0.454  -0.447
 -0.436  -0.432  -0.430  -0.414  -0.409  -0.407  -0.401  -0.399
 -0.393  -0.379  -0.373  -0.368  -0.361  -0.359  -0.355  -0.352
 -0.341  -0.336  -0.334  -0.332  -0.330  -0.328  -0.325  -0.312
 -0.310  -0.306  -0.305  -0.299  -0.295  -0.289  -0.284  -0.279
 -0.271  -0.258  -0.255  -0.245  -0.243  -0.236  -0.234  -0.187
 -0.181  -0.174  -0.171  -0.161  -0.161  -0.152  -0.146  -0.146
 -0.144

          Ground-State Mulliken Net Atomic Charges

     Atom                 Charge (a.u.)
  ----------------------------------------
      1 O                    -0.208052
      2 C                     0.211233
      3 C                    -0.078528
      4 C                    -0.079445
      5 C                     0.217576
      6 O                    -0.168378
      7 C                    -0.050229
      8 C                    -0.054758
      9 O                    -0.166803
     10 C                     0.221219
     11 C                    -0.078116
     12 C                    -0.078331
     13 C                     0.213356
     14 O                    -0.216273
     15 O                    -0.181328
     16 O                    -0.180032
     17 O                    -0.216078
     18 C                    -0.145608
     19 C                     0.025830
     20 C                    -0.143964
     21 C                    -0.143642
     22 C                     0.024306
     23 O                    -0.186632
     24 H                     0.086417
     25 H                     0.084014
     26 H                     0.081461
     27 H                     0.078056
     28 H                     0.073913
     29 H                     0.078106
     30 H                     0.073493
     31 H                     0.090853
     32 O                    -0.211882
     33 C                    -0.148011
     34 C                     0.024748
     35 C                    -0.144180
     36 C                    -0.143690
     37 C                     0.026455
     38 O                    -0.185632
     39 H                     0.084709
     40 H                     0.087865
     41 H                     0.090026
     42 H                     0.091842
     43 H                     0.078910
     44 H                     0.073392
     45 H                     0.078848
     46 H                     0.073909
     47 H                     0.083991
     48 H                     0.078293
     49 H                     0.111150
     50 H                     0.108429
     51 H                     0.084061
     52 H                     0.085032
     53 H                     0.085134
     54 H                     0.103037
     55 H                     0.094886
     56 H                     0.105046
  ----------------------------------------
  Sum of atomic charges =     0.000000

                    Cartesian Multipole Moments
 -----------------------------------------------------------------
    Charge (ESU x 10^10)
                 0.0000
    Dipole Moment (Debye)
         X       0.3947      Y      -0.9552      Z      -2.1456
       Tot       2.3816
    Quadrupole Moments (Debye-Ang)
        XX    -139.8190     XY      14.2559     YY    -158.7039
        XZ       3.7077     YZ       1.0767     ZZ    -164.6916

 Total job time:  140.98s(wall), 6718.92s(cpu)
        *  Thank you very much for using Q-Chem.  Have a nice day.  *
