 Q-Chem 5.0, Q-Chem, Inc., Pleasanton, CA (2017)
 Q-Chem 5.0.1 for Intel X86 EM64T Linux

User input:
--------------------------------------------------------------
$molecule
0  1
O -3.94934 -3.66094 2.70899
C -3.26408 -4.56952 2.26188
C -3.36658 -6.02376 2.66595
C -3.35583 -6.33723 4.1711
C -3.42291 -5.15116 5.10749
O -4.17082 -5.46848 6.20539
C -4.13816 -4.45907 7.21992
C -3.61192 -5.04389 8.52651
O -3.8615 -4.13101 9.6069
C -2.75794 -3.58763 10.1779
C -3.08494 -2.655 11.31979
C -4.02276 -1.49374 10.95887
C -4.76707 -1.62913 9.64572
O -5.98281 -1.6507 9.51902
O -2.28425 -4.26767 1.36969
O -4.00885 -1.45271 8.53119
O -1.60646 -3.79896 9.81789
C -4.51944 -1.08087 7.30204
C -3.87472 -3.32134 12.4632
C -3.63823 -2.55138 13.76064
C -4.38945 -1.26809 13.46683
C -5.03121 -1.62746 12.11991
O -5.22099 -3.02025 12.18946
H -2.11502 -2.28577 11.72574
H -3.50653 -0.50859 10.94667
H -3.62947 -4.3975 12.59835
H -4.17781 -3.1047 14.56275
H -2.57639 -2.42006 14.06081
H -5.16087 -1.12618 14.25587
H -3.75828 -0.35724 13.37923
H -5.94699 -1.0169 11.95999
O -2.58561 -4.25602 5.07091
C -2.02198 -2.9963 0.90386
C -4.73014 -6.61729 2.25773
C -4.60336 -8.12719 2.08169
C -4.42457 -8.55862 3.51968
C -4.63258 -7.21867 4.23978
O -5.52501 -6.51709 3.41268
H -2.56726 -6.57581 2.11971
H -2.44213 -6.90292 4.45877
H -1.74551 -2.32882 1.74796
H -5.1512 -6.1606 1.33474
H -5.5921 -8.49158 1.72051
H -3.81112 -8.46888 1.38136
H -5.23406 -9.28011 3.76988
H -3.43345 -8.99827 3.7646
H -4.9884 -7.43089 5.26994
H -2.91299 -2.58968 0.3793
H -1.17467 -3.03824 0.18916
H -3.69275 -1.02711 6.56425
H -4.99297 -0.07891 7.37798
H -5.2754 -1.81156 6.94786
H -4.16599 -5.97956 8.75347
H -2.54811 -5.33351 8.3786
H -5.18853 -4.14068 7.38819
H -3.54719 -3.55011 6.99039
$end

$opt
CONSTRAINT
tors           1           2           3           4     -49.925
tors           3           4           5           6    +143.760
tors           4           5           6           7    +172.333
tors           5           6           7           8    -121.677
tors           6           7           8           9    -166.983
tors           7           8           9          10    -113.711
tors           8           9          10          11    -179.090
tors           9          10          11          12     -56.814
tors          11          12          13          14    +119.901
ENDCONSTRAINT
$end

$rem
JOBTYPE                   OPT
METHOD                    B3LYP
DFT_D                     d3_op
BASIS                     STO-3G
GEOM_OPT_MAX_CYCLES       100
GEOM_OPT_TOL_GRADIENT     300
GEOM_OPT_TOL_DISPLACEMENT 1200
GEOM_OPT_TOL_ENERGY       100
SYMMETRY                  False
THRESH                    12
SCF_CONVERGENCE           8
MAX_SUB_FILE_NUM          128
MEM_STATIC                400
MEM_TOTAL                 4000
$end
--------------------------------------------------------------

   15   -1510.1504477253      6.29E-09 Convergence criterion met
 Total energy in the final basis set = -1510.15044773
   13   -1510.2194464954      9.62E-09 Convergence criterion met
 Total energy in the final basis set = -1510.21944650
   15   -1510.2558186164      1.25E-09 Convergence criterion met
 Total energy in the final basis set = -1510.25581862
   14   -1510.2703839446      9.06E-09 Convergence criterion met
 Total energy in the final basis set = -1510.27038394
   14   -1510.2762529060      6.21E-09 Convergence criterion met
 Total energy in the final basis set = -1510.27625291
   13   -1510.2788105529      3.81E-09 Convergence criterion met
 Total energy in the final basis set = -1510.27881055
   13   -1510.2802411010      2.77E-09 Convergence criterion met
 Total energy in the final basis set = -1510.28024110
   12   -1510.2810752259      9.24E-09 Convergence criterion met
   11   -1510.2841379395      5.12E-09 Convergence criterion met
 Total energy in the final basis set = -1510.28413794
   10   -1510.2841649603      6.58E-09 Convergence criterion met
 Total energy in the final basis set = -1510.28416496
   10   -1510.2841879129      7.08E-09 Convergence criterion met
 Total energy in the final basis set = -1510.28418791
   10   -1510.2842039255      5.95E-09 Convergence criterion met
 Total energy in the final basis set = -1510.28420393
   10   -1510.2842130999      6.54E-09 Convergence criterion met
 Total energy in the final basis set = -1510.28421310
   10   -1510.2842154114      3.59E-09 Convergence criterion met
 Total energy in the final basis set = -1510.28421541

             Standard Nuclear Orientation (Angstroms)
    I     Atom           X                Y                Z
 ----------------------------------------------------------------
    1      O      -3.7746763096     1.5802726852     1.2898757682
    2      C      -4.4971666402     1.3112456492     0.3064822470
    3      C      -4.8533644993    -0.1049152299    -0.2652461791
    4      C      -3.5927392580    -1.0391078292    -0.4980038108
    5      C      -2.2167741896    -0.3006724332    -0.3495260469
    6      O      -1.2620160607    -1.1817771396     0.2528427316
    7      C       0.0846405527    -0.5601654083     0.2289875697
    8      C       1.0770099325    -1.4910539859    -0.5481583893
    9      O       2.4586417329    -1.0191055190    -0.2922113939
   10      C       3.0597236485    -0.5106891812    -1.4914793108
   11      C       4.5153959298    -0.0581963581    -1.1404619994
   12      C       4.5828772895     1.0174496977     0.0246425520
   13      C       3.1815691181     1.5229791559     0.5187946852
   14      O       2.6946742738     1.4376364523     1.6661731358
   15      O      -5.1771480791     2.2940576497    -0.4846611940
   16      O       2.5370834859     2.1542850074    -0.5969498784
   17      O       2.5021278741    -0.4911467500    -2.6103024142
   18      C       1.2639580983     2.7898851601    -0.1831426840
   19      C       5.3393019592    -1.2476013835    -0.4762906561
   20      C       6.8676464407    -0.8446103655    -0.4402740503
   21      C       6.8866857698     0.1798496454     0.7556340368
   22      C       5.3585523062     0.2121473670     1.1473965607
   23      O       4.9254290737    -1.1895651502     0.9428984567
   24      H       4.9893075007     0.3129940365    -2.0657386606
   25      H       5.1600139178     1.9000724396    -0.3066961363
   26      H       5.1250593641    -2.2466841085    -0.9029969445
   27      H       7.4926649819    -1.7267401780    -0.2289354312
   28      H       7.1990597609    -0.3960222849    -1.3904318100
   29      H       7.4922267209    -0.1943843010     1.5963660086
   30      H       7.2642901555     1.1721322591     0.4612872839
   31      H       5.1261832073     0.5411536574     2.1788094846
   32      O      -1.9455251767     0.8507618927    -0.7600886939
   33      C      -4.8651503271     3.6506893407     0.0210656786
   34      C      -5.6343966398    -0.9555301966     0.8318637317
   35      C      -6.2429472172    -2.2409124935     0.1416596638
   36      C      -4.9626827217    -3.1441126159    -0.0077699910
   37      C      -3.8497570796    -2.1853019384     0.5694521030
   38      O      -4.5422809801    -1.4881533715     1.6768310657
   39      H      -5.4450200810     0.0266155796    -1.1877771548
   40      H      -3.6175985931    -1.4556381946    -1.5230575425
   41      H      -3.7782906372     3.8644122778    -0.0357431069
   42      H      -6.3465816990    -0.3690725115     1.4443027176
   43      H      -6.9958186467    -2.7091376605     0.7953259921
   44      H      -6.7133017590    -2.0053243265    -0.8263723016
   45      H      -5.0396260292    -4.0554622606     0.6065038312
   46      H      -4.7641213568    -3.4363355903    -1.0512331419
   47      H      -2.9267731902    -2.6766040136     0.9319264911
   48      H      -5.1946423880     3.7814703024     1.0721188180
   49      H      -5.4161005825     4.3540598662    -0.6299810474
   50      H       0.4646878612     2.4755835401    -0.8823389233
   51      H       1.3748903819     3.8917522242    -0.2322987017
   52      H       1.0099470270     2.4880242490     0.8527736919
   53      H       0.9986185413    -2.5317640479    -0.1696367965
   54      H       0.8757193941    -1.4669265359    -1.6409076113
   55      H       0.4355260959    -0.4315486887     1.2749323165
   56      H      -0.0012516372     0.4321284671    -0.2574496195
 ----------------------------------------------------------------

    9   -1510.2842161441      5.07E-09 Convergence criterion met
 Total energy in the final basis set = -1510.28421614
 Final energy is   -1510.28421614414
 **  OPTIMIZATION CONVERGED  **

                    Orbital Energies (a.u.)
 --------------------------------------------------------------

 Alpha MOs
 -- Occupied --
-18.936 -18.933 -18.930 -18.929 -18.888 -18.887 -18.878 -18.877
-18.877 -18.867 -10.103 -10.100 -10.100 -10.093 -10.067 -10.063
-10.061 -10.060 -10.060 -10.058 -10.057 -10.055 -10.039 -10.039
-10.038 -10.035 -10.021 -10.020 -10.020 -10.019  -1.016  -1.013
 -1.007  -1.004  -0.970  -0.969  -0.941  -0.936  -0.935  -0.929
 -0.765  -0.762  -0.728  -0.722  -0.712  -0.706  -0.692  -0.660
 -0.659  -0.614  -0.596  -0.580  -0.546  -0.544  -0.537  -0.537
 -0.513  -0.511  -0.483  -0.478  -0.464  -0.460  -0.451  -0.442
 -0.433  -0.431  -0.427  -0.411  -0.409  -0.407  -0.405  -0.399
 -0.394  -0.380  -0.374  -0.366  -0.361  -0.358  -0.355  -0.350
 -0.346  -0.340  -0.337  -0.331  -0.329  -0.327  -0.320  -0.310
 -0.310  -0.305  -0.303  -0.298  -0.293  -0.288  -0.286  -0.274
 -0.272  -0.252  -0.247  -0.247  -0.245  -0.234  -0.233  -0.185
 -0.174  -0.172  -0.166  -0.161  -0.161  -0.154  -0.146  -0.143
 -0.142

          Ground-State Mulliken Net Atomic Charges

     Atom                 Charge (a.u.)
  ----------------------------------------
      1 O                    -0.212324
      2 C                     0.210661
      3 C                    -0.079438
      4 C                    -0.077962
      5 C                     0.215567
      6 O                    -0.171536
      7 C                    -0.058474
      8 C                    -0.054817
      9 O                    -0.168729
     10 C                     0.210783
     11 C                    -0.077480
     12 C                    -0.077436
     13 C                     0.213188
     14 O                    -0.211442
     15 O                    -0.170235
     16 O                    -0.175143
     17 O                    -0.212453
     18 C                    -0.137813
     19 C                     0.026441
     20 C                    -0.144203
     21 C                    -0.143648
     22 C                     0.024810
     23 O                    -0.184463
     24 H                     0.086525
     25 H                     0.085223
     26 H                     0.082537
     27 H                     0.078227
     28 H                     0.073784
     29 H                     0.078375
     30 H                     0.073088
     31 H                     0.090413
     32 O                    -0.216697
     33 C                    -0.128608
     34 C                     0.025785
     35 C                    -0.144434
     36 C                    -0.143624
     37 C                     0.023788
     38 O                    -0.186960
     39 H                     0.086155
     40 H                     0.085084
     41 H                     0.091011
     42 H                     0.082697
     43 H                     0.078059
     44 H                     0.073687
     45 H                     0.078201
     46 H                     0.072731
     47 H                     0.093673
     48 H                     0.087733
     49 H                     0.088863
     50 H                     0.092928
     51 H                     0.084485
     52 H                     0.101968
     53 H                     0.088550
     54 H                     0.097783
     55 H                     0.094589
     56 H                     0.100525
  ----------------------------------------
  Sum of atomic charges =     0.000000

                    Cartesian Multipole Moments
 -----------------------------------------------------------------
    Charge (ESU x 10^10)
                -0.0000
    Dipole Moment (Debye)
         X       0.1719      Y       0.0517      Z      -1.9584
       Tot       1.9666
    Quadrupole Moments (Debye-Ang)
        XX    -132.4478     XY       4.6798     YY    -149.7410
        XZ       2.4790     YZ       3.9623     ZZ    -171.7108

 Total job time:  68.60s(wall), 3261.54s(cpu)
        *  Thank you very much for using Q-Chem.  Have a nice day.  *
