 Q-Chem 5.0, Q-Chem, Inc., Pleasanton, CA (2017)
 Q-Chem 5.0.1 for Intel X86 EM64T Linux

User input:
--------------------------------------------------------------
$molecule
0  1
O 3.2983230329 -1.4709660045 1.1748708062
C 4.3307445636 -1.2877196539 0.4926480024
C 4.8551362152 0.0693862669 -0.0801307586
C 3.7031371568 0.95653226 -0.7191381071
C 2.3057396234 0.2356350803 -0.7137700256
O 1.3828699835 0.9509701204 0.1134449665
C 0.0233483973 0.3757892414 -0.02993412
C -0.9991501064 1.5301463014 -0.3054727755
O -2.3661421705 1.0233860975 -0.0348397058
C -3.1383094864 0.9652393225 -1.2427239206
C -4.5683858716 0.4461122889 -0.8745101516
C -4.5695287446 -0.9921292712 -0.2028328031
C -3.1626237971 -1.6834158606 -0.1330013768
O -2.6012800324 -2.1691478189 0.8717352082
O 5.2550380059 -2.3217352126 0.1386390991
O -2.6353253972 -1.7331970489 -1.4662371514
O -2.7252115283 1.3275275621 -2.365975936
C -1.3898875401 -2.5353585326 -1.5099505569
C -5.220733776 1.3033704537 0.2966545957
C -6.7578817833 0.9423365795 0.384911301
C -6.7049556668 -0.4580912649 1.1023069485
C -5.146457387 -0.6665127756 1.2362743834
O -4.6449830239 0.6989502453 1.5181585204
H -5.1816504956 0.4633178656 -1.7921669087
H -5.2431182798 -1.6701428525 -0.7593806484
H -4.9933221658 2.3861944123 0.2544606696
H -7.2946601018 1.6888382235 0.9914699848
H -7.2278237849 0.8914070984 -0.6102121543
H -7.1753629934 -0.4187428773 2.0976592832
H -7.1845447644 -1.2573118982 0.5147456095
H -4.8137644859 -1.3720204848 2.0224706957
O 2.0004192646 -0.7665280645 -1.4001309082
C 4.791025642 -3.6213091775 0.6785667192
C 5.353215627 1.0334726895 1.0870274179
C 6.1999460698 2.1945158474 0.4317285329
C 5.0622294757 3.0703448732 -0.2126630872
C 3.7745041235 2.2497907021 0.1933268423
O 4.1138210067 1.7078207776 1.5300811422
H 5.6621992479 -0.1407468123 -0.8030707173
H 3.9411943063 1.1896563751 -1.7733482354
H 3.7884916412 -3.8891997682 0.2870837318
H 5.838692304 0.5140478318 1.9361503259
H 6.7527477029 2.7519178101 1.204706924
H 6.9183061659 1.8130621757 -0.3114733017
H 5.0304179387 4.079069435 0.2288589885
H 5.1662514829 3.1661028781 -1.3053137884
H 2.8317842971 2.8269907161 0.2376763017
H 4.7440889617 -3.6101070044 1.7867729684
H 5.5318737002 -4.3719501291 0.3469594631
H -0.6639868789 -2.0134971177 -2.1620176369
H -1.6085766135 -3.534732253 -1.9382127481
H -0.9759412861 -2.6578063996 -0.4893959038
H -0.8085418393 2.3760006986 0.3879872408
H -0.9402775065 1.8800859944 -1.3585732801
H -0.2513477633 -0.1406286049 0.9152258617
H 0.0412077854 -0.3661808203 -0.8537207455
$end

$rem
JOBTYPE                   OPT
METHOD                    B3LYP
DFT_D                     d3_op
BASIS                     STO-3G
GEOM_OPT_MAX_CYCLES       100
GEOM_OPT_TOL_GRADIENT     300
GEOM_OPT_TOL_DISPLACEMENT 1200
GEOM_OPT_TOL_ENERGY       100
SYMMETRY                  False
THRESH                    12
SCF_CONVERGENCE           8
MAX_SUB_FILE_NUM          128
MEM_STATIC                400
MEM_TOTAL                 4000
$end
--------------------------------------------------------------

   16   -1510.2838365144      6.06E-09 Convergence criterion met
 Total energy in the final basis set = -1510.28383651
   14   -1510.2837661632      2.24E-09 Convergence criterion met
 Total energy in the final basis set = -1510.28376616
   14   -1510.2833687806      1.71E-09 Convergence criterion met
 Total energy in the final basis set = -1510.28336878
   13   -1510.2847023148      9.35E-09 Convergence criterion met
 Total energy in the final basis set = -1510.28470231
   14   -1510.2858096799      3.16E-09 Convergence criterion met
 Total energy in the final basis set = -1510.28580968
   13   -1510.2864406658      2.93E-09 Convergence criterion met
 Total energy in the final basis set = -1510.28644067
   13   -1510.2869935204      2.52E-09 Convergence criterion met
 Total energy in the final basis set = -1510.28699352
   13   -1510.2876077439      6.06E-09 Convergence criterion met
   11   -1510.2937292409      8.12E-09 Convergence criterion met
 Total energy in the final basis set = -1510.29372924
   12   -1510.2936826683      3.59E-09 Convergence criterion met
 Total energy in the final basis set = -1510.29368267
   11   -1510.2937211281      8.87E-09 Convergence criterion met
 Total energy in the final basis set = -1510.29372113
   10   -1510.2937045834      7.05E-09 Convergence criterion met
 Total energy in the final basis set = -1510.29370458
   11   -1510.2936994816      3.81E-09 Convergence criterion met
 Total energy in the final basis set = -1510.29369948
    9   -1510.2936951106      4.00E-09 Convergence criterion met
 Total energy in the final basis set = -1510.29369511

             Standard Nuclear Orientation (Angstroms)
    I     Atom           X                Y                Z
 ----------------------------------------------------------------
    1      O      -2.0489815107     1.3542064830     0.0875934286
    2      C      -3.3018129075     1.3562178442     0.1017982041
    3      C      -4.2538214947     0.2557033380    -0.4773477499
    4      C      -3.4714592635    -1.0097763356    -1.0243961414
    5      C      -1.9060771311    -0.8780109214    -0.9125195137
    6      O      -1.4952393488    -1.3396949786     0.3752036352
    7      C      -0.0717990299    -1.0259079804     0.6478173315
    8      C       0.9475426463    -1.8129508552    -0.2554986942
    9      O       2.2707275903    -1.2247321165     0.0581119913
   10      C       3.1397290545    -1.2387904340    -1.0806676790
   11      C       4.4220802308    -0.4311359341    -0.6860900366
   12      C       4.0805345233     1.0175285377    -0.1288176662
   13      C       2.5488883756     1.3688186565    -0.1862094873
   14      O       1.7950575685     1.6801357167     0.7624261053
   15      O      -4.0897424493     2.4020499301     0.6659752974
   16      O       2.1591846093     1.3282948781    -1.5602095404
   17      O       2.8826806014    -1.8011247382    -2.1658101169
   18      C       0.7355172703     1.7150582446    -1.7279066523
   19      C       5.1459560758    -1.0607607264     0.5822605582
   20      C       6.5707631696    -0.3914200137     0.7298981916
   21      C       6.1881500623     1.0163209939     1.3226337762
   22      C       4.6142655953     0.9103323010     1.3581863818
   23      O       4.3778156413    -0.5074489830     1.7191399928
   24      H       5.0861372639    -0.3883753087    -1.5668134171
   25      H       4.6280832380     1.7885452532    -0.7013992273
   26      H       5.1400879076    -2.1677116147     0.6117322724
   27      H       7.1971779307    -0.9689505016     1.4281702390
   28      H       7.0946165309    -0.3186464080    -0.2366143267
   29      H       6.5883737349     1.1454727959     2.3408656585
   30      H       6.5377759182     1.8528793550     0.6970389015
   31      H       4.0963699412     1.5806375071     2.0713987669
   32      O      -1.1435943292    -0.5494433815    -1.8538132596
   33      C      -3.2084536466     3.4452524786     1.2435810273
   34      C      -5.1544073203    -0.4077356470     0.6524159082
   35      C      -6.3190126954    -1.2101321960    -0.0514082932
   36      C      -5.5391102650    -2.4679337241    -0.5864196602
   37      C      -4.0711520760    -2.1499001145    -0.0953521200
   38      O      -4.2807302908    -1.4674988696     1.2029108974
   39      H      -4.8808036160     0.7174609991    -1.2618503374
   40      H      -3.7097567323    -1.1814639453    -2.0888811627
   41      H      -2.5293335735     3.8734016719     0.4785728130
   42      H      -5.4722049610     0.2947985065     1.4472982599
   43      H      -7.0895269442    -1.4929612108     0.6834991201
   44      H      -6.7945631699    -0.6281072112    -0.8569264436
   45      H      -5.9063313048    -3.3977573289    -0.1238078446
   46      H      -5.5975017000    -2.5712401591    -1.6817926378
   47      H      -3.4133795005    -3.0306945987     0.0324478640
   48      H      -2.5943651210     3.0415640324     2.0742939478
   49      H      -3.8821283230     4.2330966023     1.6274939210
   50      H       0.0890973176     0.8087569604    -1.8191037153
   51      H       0.6728304768     2.3139803888    -2.6555608559
   52      H       0.3933020368     2.3140975526    -0.8614103356
   53      H       0.9366686598    -2.8987446252    -0.0187245779
   54      H       0.6988554565    -1.6724712894    -1.3283907681
   55      H       0.0822738805    -1.2995803331     1.7106178916
   56      H       0.1162601020     0.0651871195     0.5380237085
 ----------------------------------------------------------------

    9   -1510.2936933293      5.74E-09 Convergence criterion met
 Total energy in the final basis set = -1510.29369333
 Final energy is   -1510.29369332931
 **  OPTIMIZATION CONVERGED  **

                    Orbital Energies (a.u.)
 --------------------------------------------------------------

 Alpha MOs
 -- Occupied --
-18.948 -18.930 -18.924 -18.917 -18.891 -18.890 -18.882 -18.870
-18.869 -18.862 -10.111 -10.103 -10.092 -10.089 -10.072 -10.063
-10.061 -10.060 -10.058 -10.055 -10.052 -10.044 -10.037 -10.031
-10.029 -10.029 -10.023 -10.021 -10.016 -10.015  -1.024  -1.008
 -1.004  -0.994  -0.972  -0.964  -0.947  -0.935  -0.929  -0.923
 -0.766  -0.757  -0.727  -0.721  -0.712  -0.701  -0.688  -0.669
 -0.643  -0.610  -0.594  -0.578  -0.548  -0.540  -0.539  -0.531
 -0.516  -0.504  -0.487  -0.471  -0.466  -0.455  -0.449  -0.439
 -0.436  -0.429  -0.425  -0.418  -0.413  -0.399  -0.397  -0.395
 -0.384  -0.380  -0.374  -0.364  -0.360  -0.356  -0.351  -0.341
 -0.338  -0.336  -0.334  -0.328  -0.326  -0.321  -0.320  -0.316
 -0.308  -0.304  -0.302  -0.299  -0.290  -0.284  -0.283  -0.274
 -0.267  -0.263  -0.248  -0.239  -0.236  -0.235  -0.228  -0.189
 -0.177  -0.168  -0.164  -0.157  -0.149  -0.148  -0.144  -0.141
 -0.137

          Ground-State Mulliken Net Atomic Charges

     Atom                 Charge (a.u.)
  ----------------------------------------
      1 O                    -0.206792
      2 C                     0.215958
      3 C                    -0.078269
      4 C                    -0.081379
      5 C                     0.223485
      6 O                    -0.168587
      7 C                    -0.051087
      8 C                    -0.056463
      9 O                    -0.172122
     10 C                     0.212826
     11 C                    -0.077906
     12 C                    -0.077586
     13 C                     0.213101
     14 O                    -0.220346
     15 O                    -0.167376
     16 O                    -0.177450
     17 O                    -0.210652
     18 C                    -0.151826
     19 C                     0.025826
     20 C                    -0.144135
     21 C                    -0.143845
     22 C                     0.024387
     23 O                    -0.185983
     24 H                     0.084787
     25 H                     0.082937
     26 H                     0.081717
     27 H                     0.076976
     28 H                     0.073245
     29 H                     0.076916
     30 H                     0.072493
     31 H                     0.088807
     32 O                    -0.224118
     33 C                    -0.128023
     34 C                     0.025076
     35 C                    -0.143646
     36 C                    -0.144232
     37 C                     0.026704
     38 O                    -0.186650
     39 H                     0.087490
     40 H                     0.084325
     41 H                     0.092170
     42 H                     0.087465
     43 H                     0.078776
     44 H                     0.073776
     45 H                     0.078538
     46 H                     0.073932
     47 H                     0.087738
     48 H                     0.094133
     49 H                     0.093158
     50 H                     0.109696
     51 H                     0.078379
     52 H                     0.089606
     53 H                     0.080481
     54 H                     0.105218
     55 H                     0.092685
     56 H                     0.105668
  ----------------------------------------
  Sum of atomic charges =    -0.000000

                    Cartesian Multipole Moments
 -----------------------------------------------------------------
    Charge (ESU x 10^10)
                 0.0000
    Dipole Moment (Debye)
         X      -1.8552      Y       1.4028      Z      -0.2024
       Tot       2.3346
    Quadrupole Moments (Debye-Ang)
        XX    -133.0895     XY       1.6638     YY    -151.0596
        XZ       5.1999     YZ       0.9853     ZZ    -168.6265

 Total job time:  131.62s(wall), 6273.63s(cpu)
        *  Thank you very much for using Q-Chem.  Have a nice day.  *
