 Q-Chem 5.0, Q-Chem, Inc., Pleasanton, CA (2017)
 Q-Chem 5.0.1 for Intel X86 EM64T Linux

User input:
--------------------------------------------------------------
$molecule
0  1
O -3.94934 -3.66094 2.70899
C -3.26408 -4.56952 2.26188
C -3.36658 -6.02376 2.66595
C -3.50724 -6.32784 4.16648
C -3.70839 -5.13879 5.07961
O -4.93306 -5.21621 5.67929
C -5.12913 -4.22143 6.68985
C -5.64243 -4.86864 7.97195
O -6.21157 -3.86834 8.83123
C -5.54735 -3.65164 9.99355
C -6.20621 -2.60615 10.86162
C -6.34093 -1.21955 10.21551
C -6.13725 -1.16728 8.71468
O -6.91355 -0.6715 7.91087
O -2.25191 -4.26069 1.40899
O -4.86139 -1.39521 8.30241
O -4.52783 -4.23716 10.33688
C -4.34835 -0.95224 7.0978
C -7.67715 -2.90827 11.20753
C -8.05259 -2.19156 12.5027
C -8.05224 -0.74893 12.03667
C -7.82582 -0.94536 10.53157
O -8.42172 -2.19013 10.25371
H -5.61929 -2.55485 11.80763
H -5.64782 -0.47462 10.66489
H -7.89624 -3.99564 11.28549
H -9.09943 -2.48918 12.73983
H -7.40618 -2.40535 13.38093
H -9.0566 -0.3157 12.24009
H -7.26062 -0.10657 12.47991
H -8.2281 -0.07428 9.96942
O -2.86117 -4.27259 5.26467
C -1.97356 -2.98597 0.96195
C -4.6655 -6.66645 2.1302
C -4.46183 -8.16926 1.96129
C -4.38759 -8.60252 3.40875
C -4.73048 -7.28009 4.10989
O -5.57213 -6.61444 3.20375
H -2.50734 -6.55859 2.19934
H -2.61322 -6.85892 4.56104
H -1.72863 -2.32409 1.82007
H -5.01727 -6.22051 1.17366
H -5.40211 -8.56875 1.51711
H -3.60202 -8.47872 1.329
H -5.17235 -9.37163 3.58374
H -3.39756 -8.98446 3.73973
H -5.15804 -7.50393 5.1116
H -2.84512 -2.57623 0.40794
H -1.10065 -3.0226 0.27845
H -3.29392 -1.28423 7.00523
H -4.37419 0.15771 7.06158
H -4.93328 -1.35689 6.24574
H -6.46448 -5.57024 7.71454
H -4.82813 -5.48455 8.41367
H -5.93134 -3.54945 6.31701
H -4.24525 -3.60636 6.95185
$end

$opt
CONSTRAINT
tors           1           2           3           4     -43.563
tors           3           4           5           6    +116.094
tors           4           5           6           7    +172.333
tors           5           6           7           8    -130.399
tors           6           7           8           9    -162.814
tors           7           8           9          10    -113.711
tors           8           9          10          11    -179.090
tors           9          10          11          12     -59.529
tors          11          12          13          14    +127.436
ENDCONSTRAINT
$end

$rem
JOBTYPE                   OPT
METHOD                    B3LYP
DFT_D                     d3_op
BASIS                     STO-3G
GEOM_OPT_MAX_CYCLES       100
GEOM_OPT_TOL_GRADIENT     300
GEOM_OPT_TOL_DISPLACEMENT 1200
GEOM_OPT_TOL_ENERGY       100
SYMMETRY                  False
THRESH                    12
SCF_CONVERGENCE           8
MAX_SUB_FILE_NUM          128
MEM_STATIC                400
MEM_TOTAL                 4000
$end
--------------------------------------------------------------

   15   -1510.1543176821      6.38E-09 Convergence criterion met
 Total energy in the final basis set = -1510.15431768
   13   -1510.2228400648      5.41E-09 Convergence criterion met
 Total energy in the final basis set = -1510.22284006
   14   -1510.2584417770      3.16E-09 Convergence criterion met
 Total energy in the final basis set = -1510.25844178
   14   -1510.2715974610      1.89E-09 Convergence criterion met
 Total energy in the final basis set = -1510.27159746
   14   -1510.2777565527      2.18E-09 Convergence criterion met
 Total energy in the final basis set = -1510.27775655
   13   -1510.2797012061      2.28E-09 Convergence criterion met
 Total energy in the final basis set = -1510.27970121
   13   -1510.2811444612      3.04E-09 Convergence criterion met
 Total energy in the final basis set = -1510.28114446
   12   -1510.2817323406      8.18E-09 Convergence criterion met
   11   -1510.2837527463      4.87E-09 Convergence criterion met
 Total energy in the final basis set = -1510.28375275
   10   -1510.2837795507      9.56E-09 Convergence criterion met
 Total energy in the final basis set = -1510.28377955
   10   -1510.2838072473      9.72E-09 Convergence criterion met
 Total energy in the final basis set = -1510.28380725
   11   -1510.2838267525      5.11E-09 Convergence criterion met
 Total energy in the final basis set = -1510.28382675
    9   -1510.2838338426      9.20E-09 Convergence criterion met
 Total energy in the final basis set = -1510.28383384
    9   -1510.2838356623      3.63E-09 Convergence criterion met
 Total energy in the final basis set = -1510.28383566

             Standard Nuclear Orientation (Angstroms)
    I     Atom           X                Y                Z
 ----------------------------------------------------------------
    1      O       3.2983230329    -1.4709660045     1.1748708062
    2      C       4.3307445636    -1.2877196539     0.4926480024
    3      C       4.8551362152     0.0693862669    -0.0801307586
    4      C       3.7031371568     0.9565322600    -0.7191381071
    5      C       2.3057396234     0.2356350803    -0.7137700256
    6      O       1.3828699835     0.9509701204     0.1134449665
    7      C       0.0233483973     0.3757892414    -0.0299341200
    8      C      -0.9991501064     1.5301463014    -0.3054727755
    9      O      -2.3661421705     1.0233860975    -0.0348397058
   10      C      -3.1383094864     0.9652393225    -1.2427239206
   11      C      -4.5683858716     0.4461122889    -0.8745101516
   12      C      -4.5695287446    -0.9921292712    -0.2028328031
   13      C      -3.1626237971    -1.6834158606    -0.1330013768
   14      O      -2.6012800324    -2.1691478189     0.8717352082
   15      O       5.2550380059    -2.3217352126     0.1386390991
   16      O      -2.6353253972    -1.7331970489    -1.4662371514
   17      O      -2.7252115283     1.3275275621    -2.3659759360
   18      C      -1.3898875401    -2.5353585326    -1.5099505569
   19      C      -5.2207337760     1.3033704537     0.2966545957
   20      C      -6.7578817833     0.9423365795     0.3849113010
   21      C      -6.7049556668    -0.4580912649     1.1023069485
   22      C      -5.1464573870    -0.6665127756     1.2362743834
   23      O      -4.6449830239     0.6989502453     1.5181585204
   24      H      -5.1816504956     0.4633178656    -1.7921669087
   25      H      -5.2431182798    -1.6701428525    -0.7593806484
   26      H      -4.9933221658     2.3861944123     0.2544606696
   27      H      -7.2946601018     1.6888382235     0.9914699848
   28      H      -7.2278237849     0.8914070984    -0.6102121543
   29      H      -7.1753629934    -0.4187428773     2.0976592832
   30      H      -7.1845447644    -1.2573118982     0.5147456095
   31      H      -4.8137644859    -1.3720204848     2.0224706957
   32      O       2.0004192646    -0.7665280645    -1.4001309082
   33      C       4.7910256420    -3.6213091775     0.6785667192
   34      C       5.3532156270     1.0334726895     1.0870274179
   35      C       6.1999460698     2.1945158474     0.4317285329
   36      C       5.0622294757     3.0703448732    -0.2126630872
   37      C       3.7745041235     2.2497907021     0.1933268423
   38      O       4.1138210067     1.7078207776     1.5300811422
   39      H       5.6621992479    -0.1407468123    -0.8030707173
   40      H       3.9411943063     1.1896563751    -1.7733482354
   41      H       3.7884916412    -3.8891997682     0.2870837318
   42      H       5.8386923040     0.5140478318     1.9361503259
   43      H       6.7527477029     2.7519178101     1.2047069240
   44      H       6.9183061659     1.8130621757    -0.3114733017
   45      H       5.0304179387     4.0790694350     0.2288589885
   46      H       5.1662514829     3.1661028781    -1.3053137884
   47      H       2.8317842971     2.8269907161     0.2376763017
   48      H       4.7440889617    -3.6101070044     1.7867729684
   49      H       5.5318737002    -4.3719501291     0.3469594631
   50      H      -0.6639868789    -2.0134971177    -2.1620176369
   51      H      -1.6085766135    -3.5347322530    -1.9382127481
   52      H      -0.9759412861    -2.6578063996    -0.4893959038
   53      H      -0.8085418393     2.3760006986     0.3879872408
   54      H      -0.9402775065     1.8800859944    -1.3585732801
   55      H      -0.2513477633    -0.1406286049     0.9152258617
   56      H       0.0412077854    -0.3661808203    -0.8537207455
 ----------------------------------------------------------------

    9   -1510.2838360437      2.00E-09 Convergence criterion met
 Total energy in the final basis set = -1510.28383604
 Final energy is   -1510.28383604367
 **  OPTIMIZATION CONVERGED  **

                    Orbital Energies (a.u.)
 --------------------------------------------------------------

 Alpha MOs
 -- Occupied --
-18.935 -18.932 -18.931 -18.930 -18.887 -18.886 -18.877 -18.875
-18.873 -18.869 -10.100 -10.098 -10.098 -10.097 -10.064 -10.063
-10.061 -10.060 -10.059 -10.057 -10.056 -10.056 -10.038 -10.038
-10.037 -10.036 -10.020 -10.020 -10.019 -10.018  -1.014  -1.012
 -1.007  -1.005  -0.969  -0.968  -0.937  -0.936  -0.934  -0.931
 -0.763  -0.762  -0.726  -0.722  -0.711  -0.705  -0.691  -0.662
 -0.659  -0.611  -0.596  -0.578  -0.546  -0.544  -0.537  -0.536
 -0.512  -0.510  -0.483  -0.479  -0.464  -0.461  -0.450  -0.440
 -0.433  -0.431  -0.426  -0.411  -0.411  -0.407  -0.404  -0.398
 -0.391  -0.378  -0.373  -0.369  -0.358  -0.356  -0.354  -0.348
 -0.345  -0.340  -0.336  -0.331  -0.330  -0.327  -0.321  -0.309
 -0.309  -0.304  -0.303  -0.295  -0.293  -0.288  -0.283  -0.274
 -0.273  -0.254  -0.247  -0.245  -0.243  -0.233  -0.232  -0.180
 -0.176  -0.174  -0.165  -0.160  -0.156  -0.152  -0.149  -0.143
 -0.142

          Ground-State Mulliken Net Atomic Charges

     Atom                 Charge (a.u.)
  ----------------------------------------
      1 O                    -0.210675
      2 C                     0.209001
      3 C                    -0.079564
      4 C                    -0.078267
      5 C                     0.214338
      6 O                    -0.168038
      7 C                    -0.056870
      8 C                    -0.055034
      9 O                    -0.169477
     10 C                     0.211784
     11 C                    -0.077615
     12 C                    -0.077505
     13 C                     0.213368
     14 O                    -0.211019
     15 O                    -0.168958
     16 O                    -0.174478
     17 O                    -0.213534
     18 C                    -0.136235
     19 C                     0.026528
     20 C                    -0.144324
     21 C                    -0.143588
     22 C                     0.024375
     23 O                    -0.184520
     24 H                     0.085811
     25 H                     0.084842
     26 H                     0.082729
     27 H                     0.078018
     28 H                     0.073486
     29 H                     0.078298
     30 H                     0.072815
     31 H                     0.090784
     32 O                    -0.222514
     33 C                    -0.128681
     34 C                     0.025966
     35 C                    -0.143647
     36 C                    -0.144351
     37 C                     0.024908
     38 O                    -0.185811
     39 H                     0.086368
     40 H                     0.084653
     41 H                     0.091683
     42 H                     0.082867
     43 H                     0.078115
     44 H                     0.073865
     45 H                     0.078001
     46 H                     0.072936
     47 H                     0.091379
     48 H                     0.088920
     49 H                     0.090201
     50 H                     0.093158
     51 H                     0.084153
     52 H                     0.102288
     53 H                     0.089114
     54 H                     0.097638
     55 H                     0.093989
     56 H                     0.098320
  ----------------------------------------
  Sum of atomic charges =     0.000000

                    Cartesian Multipole Moments
 -----------------------------------------------------------------
    Charge (ESU x 10^10)
                -0.0000
    Dipole Moment (Debye)
         X       0.4126      Y      -0.1315      Z      -1.4692
       Tot       1.5317
    Quadrupole Moments (Debye-Ang)
        XX    -129.0546     XY       2.6149     YY    -150.3652
        XZ      -0.4603     YZ      -1.2089     ZZ    -170.0613

 Total job time:  68.06s(wall), 3236.75s(cpu)
        *  Thank you very much for using Q-Chem.  Have a nice day.  *
