 Q-Chem 5.0, Q-Chem, Inc., Pleasanton, CA (2017)
 Q-Chem 5.0.1 for Intel X86 EM64T Linux

User input:
--------------------------------------------------------------
$molecule
0  1
O -4.302222605 0.5620150081 1.8596946305
C -4.8859085792 0.8893353744 0.804384181
C -5.0403898034 0.0467388592 -0.5097887561
C -3.6620783636 -0.4670539317 -1.1041427299
C -2.4036598028 0.1491998567 -0.3971939113
O -1.368983714 -0.8376677661 -0.3184388247
C -0.1103757126 -0.2290125882 0.1769503594
C 1.0138180182 -0.4516197375 -0.8934922398
O 2.335071546 -0.1386705228 -0.2988928217
C 2.9107472947 1.0185849684 -0.9188330214
C 4.3993874875 1.1861104038 -0.4582591829
C 4.8258599546 0.3544966874 0.8172333396
C 3.6711879791 -0.1404062292 1.7590013787
O 3.5268798187 -1.2860520124 2.2348361367
O -5.5664539071 2.1362150659 0.6157783515
O 2.8844978388 1.0012802997 2.1353211794
O 2.3159835879 1.7239678142 -1.763303008
C 1.8705366588 0.6125024461 3.1404673764
C 5.2967371507 0.4584647374 -1.5591438615
C 6.8271365747 0.7379457073 -1.2748502796
C 7.1166664588 -0.2740999739 -0.1032448063
C 5.6651771091 -0.8251071111 0.1676661332
O 5.1118344504 -0.9669077511 -1.2002663205
H 4.6275004357 2.2622149015 -0.3644211373
H 5.4847511192 0.982661873 1.4460349404
H 4.9707295724 0.644595827 -2.601293139
H 7.432777285 0.5147005135 -2.1673551109
H 7.0037801519 1.7856821797 -0.9830583028
H 7.7815092294 -1.0886891817 -0.4327097564
H 7.5584138324 0.2097295558 0.7825209192
H 5.5963731437 -1.7828753934 0.7196161654
O -2.2750894658 1.333358557 -0.0134571457
C -5.4356793654 2.9691127665 1.8334830182
C -5.7460331531 -1.3430213703 -0.1911093984
C -6.1614464466 -2.0303555775 -1.5522004025
C -4.7723477307 -2.56495926 -2.0635160389
C -3.8116867009 -2.0379785746 -0.92732773
O -4.6263321373 -2.1767874827 0.301345886
H -5.6073341751 0.6445203435 -1.2442459739
H -3.5876564524 -0.2009620914 -2.1756590314
H -4.3720540484 3.1736798216 2.0718394045
H -6.5483962389 -1.2846509147 0.5698446713
H -6.8699289235 -2.8531963959 -1.3668515346
H -6.6255342436 -1.3159017454 -2.2510130749
H -4.7532135816 -3.6657546908 -2.1031505594
H -4.5017590402 -2.1705361982 -3.0559917237
H -2.8480557183 -2.5717390681 -0.8204474662
H -5.9064788659 2.4839333648 2.713144881
H -5.9565834227 3.9187963311 1.6122559804
H 1.0839813918 1.3894983788 3.1158717207
H 2.3140689855 0.5731622981 4.157169388
H 1.4313614613 -0.3791388854 2.9146995673
H 1.0318394578 -1.5173064162 -1.2043216405
H 0.8501610297 0.2039692131 -1.775909686
H 0.1693467857 -0.7402777708 1.1214143424
H -0.2826865482 0.8509518338 0.3749208999
$end

$rem
JOBTYPE                   OPT
METHOD                    B3LYP
DFT_D                     d3_op
BASIS                     STO-3G
GEOM_OPT_MAX_CYCLES       100
GEOM_OPT_TOL_GRADIENT     300
GEOM_OPT_TOL_DISPLACEMENT 1200
GEOM_OPT_TOL_ENERGY       100
SYMMETRY                  False
THRESH                    12
SCF_CONVERGENCE           8
MAX_SUB_FILE_NUM          128
MEM_STATIC                400
MEM_TOTAL                 4000
$end
--------------------------------------------------------------

   16   -1510.2800456499      5.41E-09 Convergence criterion met
 Total energy in the final basis set = -1510.28004565
   13   -1510.2816491549      8.61E-09 Convergence criterion met
 Total energy in the final basis set = -1510.28164915
   14   -1510.2806703815      4.69E-09 Convergence criterion met
 Total energy in the final basis set = -1510.28067038
   13   -1510.2829873950      6.06E-09 Convergence criterion met
 Total energy in the final basis set = -1510.28298739
   13   -1510.2838425562      5.79E-09 Convergence criterion met
 Total energy in the final basis set = -1510.28384256
   13   -1510.2846783566      3.53E-09 Convergence criterion met
 Total energy in the final basis set = -1510.28467836
   13   -1510.2854535665      4.90E-09 Convergence criterion met
 Total energy in the final basis set = -1510.28545357
   13   -1510.2860995794      3.81E-09 Convergence criterion met
   12   -1510.2987825764      5.82E-09 Convergence criterion met
 Total energy in the final basis set = -1510.29878258
   12   -1510.2987507654      4.29E-09 Convergence criterion met
 Total energy in the final basis set = -1510.29875077
   11   -1510.2987995313      7.49E-09 Convergence criterion met
 Total energy in the final basis set = -1510.29879953
   10   -1510.2988024786      7.06E-09 Convergence criterion met
 Total energy in the final basis set = -1510.29880248
   11   -1510.2988002445      6.99E-09 Convergence criterion met
 Total energy in the final basis set = -1510.29880024
   10   -1510.2987986110      6.08E-09 Convergence criterion met
 Total energy in the final basis set = -1510.29879861

             Standard Nuclear Orientation (Angstroms)
    I     Atom           X                Y                Z
 ----------------------------------------------------------------
    1      O      -3.4198094254     2.0839621171     0.1304498060
    2      C      -3.1816129967     1.0050981963    -0.4529075204
    3      C      -4.1055860755    -0.2718048945    -0.4538624533
    4      C      -3.4551173867    -1.5887568431     0.1514477248
    5      C      -1.9699764668    -1.3747036620     0.5748623432
    6      O      -1.1722404276    -2.3983596532    -0.0265041578
    7      C       0.2682988084    -2.0628141757     0.0912813850
    8      C       0.6319683081    -1.0557029658    -1.0557743007
    9      O       1.9788301195    -0.5232674719    -0.7467295692
   10      C       2.2579599707     0.6779813241    -1.4658527469
   11      C       3.7137399389     1.1121245855    -1.0938456751
   12      C       3.9772048795     1.1067974874     0.4698891488
   13      C       2.6958714167     0.8201901375     1.3365716591
   14      O       2.5604092034    -0.0436793604     2.2289860328
   15      O      -2.0371105565     0.7839916220    -1.2911709859
   16      O       1.7058720188     1.7876536630     0.9770750481
   17      O       1.4732054445     1.2356779273    -2.2667377207
   18      C       0.5032045053     1.6499147452     1.8344361314
   19      C       4.7642101372     0.0105940783    -1.5617495157
   20      C       6.2212663691     0.6085004380    -1.4238172254
   21      C       6.4454611516     0.5163055562     0.1321826769
   22      C       5.0504393362    -0.0511388398     0.6019072868
   23      O       4.6893289711    -0.9963690214    -0.4814380734
   24      H       3.9091693345     2.0988778375    -1.5478895389
   25      H       4.3943625913     2.0792091928     0.7905708281
   26      H       4.5363696877    -0.4521941506    -2.5417460656
   27      H       6.9452533190    -0.0116728055    -1.9757303009
   28      H       6.2818432220     1.6421053009    -1.8008635160
   29      H       7.2520276696    -0.1917355573     0.3807411888
   30      H       6.6760528526     1.4912339205     0.5901547717
   31      H       5.0360706563    -0.5642488581     1.5831653521
   32      O      -1.5284862502    -0.4623380144     1.3101650947
   33      C      -1.2728979832     2.0507151595    -1.4388389398
   34      C      -5.3224515818    -0.0560652895     0.5369465317
   35      C      -6.4287842262    -1.1391143877     0.2300297106
   36      C      -5.7750490689    -2.4281995531     0.8535212266
   37      C      -4.4124746921    -1.8433538881     1.3984641829
   38      O      -4.7693938044    -0.4804601390     1.8453012673
   39      H      -4.4421734687    -0.4509101536    -1.4916414474
   40      H      -3.4923879409    -2.4259543952    -0.5669107794
   41      H      -1.1407320192     2.5503096654    -0.4601724182
   42      H      -5.6711156009     0.9935109847     0.5905817488
   43      H      -7.3723157457    -0.8805288281     0.7361373938
   44      H      -6.6228649323    -1.2400222081    -0.8498378057
   45      H      -6.3798839836    -2.8281728136     1.6826907824
   46      H      -5.6170266992    -3.2276882594     0.1121876717
   47      H      -3.9486535549    -2.4157931588     2.2251862957
   48      H      -1.8025905670     2.7458810455    -2.1207341917
   49      H      -0.2816203466     1.7755631373    -1.8638391723
   50      H      -0.1320205841     0.7810299176     1.5417799126
   51      H      -0.0728253974     2.5837062442     1.6991816310
   52      H       0.7844493348     1.5417914417     2.9004615762
   53      H       0.6377347020    -1.5712933265    -2.0403912672
   54      H      -0.1401928321    -0.2555811765    -1.0896502436
   55      H       0.8261757238    -3.0136798918    -0.0138081723
   56      H       0.4972952475    -1.6011560225     1.0760007694
 ----------------------------------------------------------------

   10   -1510.2987988686      2.88E-09 Convergence criterion met
 Total energy in the final basis set = -1510.29879887
 Final energy is   -1510.29879886861
 **  OPTIMIZATION CONVERGED  **

                    Orbital Energies (a.u.)
 --------------------------------------------------------------

 Alpha MOs
 -- Occupied --
-18.944 -18.942 -18.928 -18.923 -18.889 -18.888 -18.887 -18.884
-18.874 -18.867 -10.111 -10.109 -10.097 -10.094 -10.075 -10.071
-10.063 -10.062 -10.058 -10.057 -10.042 -10.041 -10.040 -10.039
-10.039 -10.035 -10.022 -10.022 -10.021 -10.020  -1.023  -1.018
 -1.006  -1.001  -0.972  -0.970  -0.948  -0.943  -0.932  -0.928
 -0.766  -0.764  -0.731  -0.724  -0.712  -0.706  -0.697  -0.652
 -0.650  -0.618  -0.598  -0.583  -0.547  -0.546  -0.538  -0.537
 -0.518  -0.509  -0.486  -0.477  -0.462  -0.461  -0.454  -0.447
 -0.436  -0.432  -0.430  -0.414  -0.409  -0.407  -0.401  -0.399
 -0.393  -0.379  -0.373  -0.368  -0.361  -0.359  -0.356  -0.352
 -0.342  -0.335  -0.334  -0.332  -0.330  -0.328  -0.325  -0.312
 -0.310  -0.306  -0.305  -0.299  -0.295  -0.290  -0.284  -0.279
 -0.271  -0.258  -0.255  -0.245  -0.243  -0.235  -0.235  -0.187
 -0.181  -0.173  -0.172  -0.161  -0.160  -0.151  -0.147  -0.145
 -0.144

          Ground-State Mulliken Net Atomic Charges

     Atom                 Charge (a.u.)
  ----------------------------------------
      1 O                    -0.208240
      2 C                     0.211008
      3 C                    -0.078540
      4 C                    -0.079736
      5 C                     0.217816
      6 O                    -0.168463
      7 C                    -0.050193
      8 C                    -0.054532
      9 O                    -0.167068
     10 C                     0.221466
     11 C                    -0.077926
     12 C                    -0.078329
     13 C                     0.213657
     14 O                    -0.217194
     15 O                    -0.180755
     16 O                    -0.179831
     17 O                    -0.215847
     18 C                    -0.145790
     19 C                     0.025830
     20 C                    -0.144091
     21 C                    -0.143567
     22 C                     0.024324
     23 O                    -0.186743
     24 H                     0.086476
     25 H                     0.083907
     26 H                     0.081410
     27 H                     0.078128
     28 H                     0.073989
     29 H                     0.078095
     30 H                     0.073559
     31 H                     0.090936
     32 O                    -0.212381
     33 C                    -0.146948
     34 C                     0.024850
     35 C                    -0.144428
     36 C                    -0.143486
     37 C                     0.026370
     38 O                    -0.185621
     39 H                     0.084769
     40 H                     0.087689
     41 H                     0.089065
     42 H                     0.091775
     43 H                     0.078908
     44 H                     0.073385
     45 H                     0.078842
     46 H                     0.073909
     47 H                     0.083940
     48 H                     0.079381
     49 H                     0.110934
     50 H                     0.108175
     51 H                     0.083748
     52 H                     0.085369
     53 H                     0.085131
     54 H                     0.103239
     55 H                     0.095192
     56 H                     0.104439
  ----------------------------------------
  Sum of atomic charges =     0.000000

                    Cartesian Multipole Moments
 -----------------------------------------------------------------
    Charge (ESU x 10^10)
                 0.0000
    Dipole Moment (Debye)
         X       0.4547      Y      -0.9695      Z      -2.0756
       Tot       2.3356
    Quadrupole Moments (Debye-Ang)
        XX    -140.5692     XY      15.0656     YY    -158.9563
        XZ       3.1605     YZ       0.5464     ZZ    -164.3262

 Total job time:  139.96s(wall), 6678.72s(cpu)
        *  Thank you very much for using Q-Chem.  Have a nice day.  *
