 Q-Chem 5.0, Q-Chem, Inc., Pleasanton, CA (2017)
 Q-Chem 5.0.1 for Intel X86 EM64T Linux

User input:
--------------------------------------------------------------
$molecule
0  1
O -3.94934 -3.66094 2.70899
C -3.26408 -4.56952 2.26188
C -3.36658 -6.02376 2.66595
C -3.24864 -6.34661 4.16452
C -3.21947 -5.16517 5.10868
O -3.88874 -5.47356 6.25863
C -3.75798 -4.4713 7.27235
C -3.14693 -5.07496 8.53264
O -3.29461 -4.16372 9.63297
C -2.14023 -3.64156 10.11661
C -2.33315 -2.88346 11.4084
C -3.78875 -2.51697 11.7327
C -4.84822 -3.24973 10.93439
O -5.8492 -3.77524 11.39962
O -2.30919 -4.27303 1.34125
O -5.05849 -2.62919 9.72769
O -1.02331 -3.90577 9.68904
C -6.26356 -2.60965 9.04887
C -1.92547 -3.67597 12.65946
C -1.58889 -2.70492 13.78846
C -2.9667 -2.1663 14.11609
C -3.83009 -3.03318 13.19008
O -3.12705 -4.25034 13.10887
H -1.71523 -1.96144 11.31675
H -3.99831 -1.42534 11.67256
H -1.0808 -4.37698 12.48214
H -1.23205 -3.31731 14.64757
H -0.825 -1.93539 13.54507
H -3.18434 -2.391 15.18394
H -3.11478 -1.08303 13.91576
H -4.86453 -3.09506 13.59355
O -2.37404 -4.28254 5.01121
C -2.05962 -3.00443 0.86118
C -4.76134 -6.59753 2.35062
C -4.66809 -8.10887 2.16584
C -4.40213 -8.54564 3.5889
C -4.53479 -7.20334 4.32208
O -5.47143 -6.48612 3.55878
H -2.60841 -6.58233 2.06985
H -2.32844 -6.93331 4.3808
H -1.7603 -2.33229 1.6937
H -5.23749 -6.13239 1.45925
H -5.68272 -8.45988 1.86911
H -3.92696 -8.45855 1.4153
H -5.20872 -9.24931 3.89345
H -3.40699 -9.00787 3.76665
H -4.82142 -7.41062 5.37457
H -2.96445 -2.60053 0.35863
H -1.232 -3.05063 0.12402
H -6.13606 -2.05946 8.09408
H -7.03287 -2.08877 9.65776
H -6.60722 -3.64374 8.83329
H -3.69919 -6.002 8.79637
H -2.10374 -5.38254 8.30016
H -4.78463 -4.14539 7.50353
H -3.19253 -3.55149 7.00321
$end

$opt
CONSTRAINT
tors           1           2           3           4     -54.442
tors           3           4           5           6    +143.760
tors           4           5           6           7    +172.333
tors           5           6           7           8    -121.677
tors           6           7           8           9    -166.983
tors           7           8           9          10    -113.379
tors           8           9          10          11    -170.218
tors           9          10          11          12     -15.736
tors          11          12          13          14    +133.108
ENDCONSTRAINT
$end

$rem
JOBTYPE                   OPT
METHOD                    B3LYP
DFT_D                     d3_op
BASIS                     STO-3G
GEOM_OPT_MAX_CYCLES       100
GEOM_OPT_TOL_GRADIENT     300
GEOM_OPT_TOL_DISPLACEMENT 1200
GEOM_OPT_TOL_ENERGY       100
SYMMETRY                  False
THRESH                    12
SCF_CONVERGENCE           8
MAX_SUB_FILE_NUM          128
MEM_STATIC                400
MEM_TOTAL                 4000
$end
--------------------------------------------------------------

   15   -1510.1256971762      4.66E-09 Convergence criterion met
 Total energy in the final basis set = -1510.12569718
   14   -1510.1955532321      9.14E-09 Convergence criterion met
 Total energy in the final basis set = -1510.19555323
   14   -1510.2326638340      9.70E-09 Convergence criterion met
 Total energy in the final basis set = -1510.23266383
   15   -1510.2548107898      1.53E-09 Convergence criterion met
 Total energy in the final basis set = -1510.25481079
   14   -1510.2645368243      2.86E-09 Convergence criterion met
 Total energy in the final basis set = -1510.26453682
   13   -1510.2698554491      6.11E-09 Convergence criterion met
 Total energy in the final basis set = -1510.26985545
   13   -1510.2729421709      3.26E-09 Convergence criterion met
 Total energy in the final basis set = -1510.27294217
   12   -1510.2747706250      8.84E-09 Convergence criterion met
   11   -1510.2801828752      7.06E-09 Convergence criterion met
 Total energy in the final basis set = -1510.28018288
    9   -1510.2801871016      6.93E-09 Convergence criterion met
 Total energy in the final basis set = -1510.28018710
    9   -1510.2801883512      6.44E-09 Convergence criterion met
 Total energy in the final basis set = -1510.28018835
    9   -1510.2801896977      3.95E-09 Convergence criterion met
 Total energy in the final basis set = -1510.28018970
    9   -1510.2801884785      2.87E-09 Convergence criterion met
 Total energy in the final basis set = -1510.28018848
    9   -1510.2801898362      3.47E-09 Convergence criterion met
 Total energy in the final basis set = -1510.28018984

             Standard Nuclear Orientation (Angstroms)
    I     Atom           X                Y                Z
 ----------------------------------------------------------------
    1      O      -4.3022226050     0.5620150081     1.8596946305
    2      C      -4.8859085792     0.8893353744     0.8043841810
    3      C      -5.0403898034     0.0467388592    -0.5097887561
    4      C      -3.6620783636    -0.4670539317    -1.1041427299
    5      C      -2.4036598028     0.1491998567    -0.3971939113
    6      O      -1.3689837140    -0.8376677661    -0.3184388247
    7      C      -0.1103757126    -0.2290125882     0.1769503594
    8      C       1.0138180182    -0.4516197375    -0.8934922398
    9      O       2.3350715460    -0.1386705228    -0.2988928217
   10      C       2.9107472947     1.0185849684    -0.9188330214
   11      C       4.3993874875     1.1861104038    -0.4582591829
   12      C       4.8258599546     0.3544966874     0.8172333396
   13      C       3.6711879791    -0.1404062292     1.7590013787
   14      O       3.5268798187    -1.2860520124     2.2348361367
   15      O      -5.5664539071     2.1362150659     0.6157783515
   16      O       2.8844978388     1.0012802997     2.1353211794
   17      O       2.3159835879     1.7239678142    -1.7633030080
   18      C       1.8705366588     0.6125024461     3.1404673764
   19      C       5.2967371507     0.4584647374    -1.5591438615
   20      C       6.8271365747     0.7379457073    -1.2748502796
   21      C       7.1166664588    -0.2740999739    -0.1032448063
   22      C       5.6651771091    -0.8251071111     0.1676661332
   23      O       5.1118344504    -0.9669077511    -1.2002663205
   24      H       4.6275004357     2.2622149015    -0.3644211373
   25      H       5.4847511192     0.9826618730     1.4460349404
   26      H       4.9707295724     0.6445958270    -2.6012931390
   27      H       7.4327772850     0.5147005135    -2.1673551109
   28      H       7.0037801519     1.7856821797    -0.9830583028
   29      H       7.7815092294    -1.0886891817    -0.4327097564
   30      H       7.5584138324     0.2097295558     0.7825209192
   31      H       5.5963731437    -1.7828753934     0.7196161654
   32      O      -2.2750894658     1.3333585570    -0.0134571457
   33      C      -5.4356793654     2.9691127665     1.8334830182
   34      C      -5.7460331531    -1.3430213703    -0.1911093984
   35      C      -6.1614464466    -2.0303555775    -1.5522004025
   36      C      -4.7723477307    -2.5649592600    -2.0635160389
   37      C      -3.8116867009    -2.0379785746    -0.9273277300
   38      O      -4.6263321373    -2.1767874827     0.3013458860
   39      H      -5.6073341751     0.6445203435    -1.2442459739
   40      H      -3.5876564524    -0.2009620914    -2.1756590314
   41      H      -4.3720540484     3.1736798216     2.0718394045
   42      H      -6.5483962389    -1.2846509147     0.5698446713
   43      H      -6.8699289235    -2.8531963959    -1.3668515346
   44      H      -6.6255342436    -1.3159017454    -2.2510130749
   45      H      -4.7532135816    -3.6657546908    -2.1031505594
   46      H      -4.5017590402    -2.1705361982    -3.0559917237
   47      H      -2.8480557183    -2.5717390681    -0.8204474662
   48      H      -5.9064788659     2.4839333648     2.7131448810
   49      H      -5.9565834227     3.9187963311     1.6122559804
   50      H       1.0839813918     1.3894983788     3.1158717207
   51      H       2.3140689855     0.5731622981     4.1571693880
   52      H       1.4313614613    -0.3791388854     2.9146995673
   53      H       1.0318394578    -1.5173064162    -1.2043216405
   54      H       0.8501610297     0.2039692131    -1.7759096860
   55      H       0.1693467857    -0.7402777708     1.1214143424
   56      H      -0.2826865482     0.8509518338     0.3749208999
 ----------------------------------------------------------------

    9   -1510.2801906933      6.39E-09 Convergence criterion met
 Total energy in the final basis set = -1510.28019069
 Final energy is   -1510.28019069329
 **  OPTIMIZATION CONVERGED  **

                    Orbital Energies (a.u.)
 --------------------------------------------------------------

 Alpha MOs
 -- Occupied --
-18.941 -18.938 -18.928 -18.925 -18.887 -18.887 -18.879 -18.879
-18.867 -18.866 -10.105 -10.104 -10.098 -10.092 -10.071 -10.068
-10.062 -10.060 -10.059 -10.059 -10.057 -10.057 -10.042 -10.040
-10.036 -10.035 -10.022 -10.020 -10.020 -10.019  -1.019  -1.015
 -1.003  -1.003  -0.971  -0.969  -0.943  -0.939  -0.930  -0.928
 -0.765  -0.762  -0.729  -0.722  -0.712  -0.705  -0.695  -0.659
 -0.659  -0.615  -0.598  -0.582  -0.545  -0.544  -0.538  -0.537
 -0.514  -0.510  -0.489  -0.479  -0.462  -0.461  -0.452  -0.444
 -0.433  -0.432  -0.426  -0.411  -0.409  -0.407  -0.406  -0.401
 -0.397  -0.381  -0.375  -0.366  -0.362  -0.359  -0.354  -0.350
 -0.343  -0.340  -0.337  -0.332  -0.329  -0.324  -0.320  -0.311
 -0.310  -0.307  -0.305  -0.300  -0.295  -0.291  -0.285  -0.273
 -0.272  -0.253  -0.250  -0.247  -0.242  -0.235  -0.233  -0.188
 -0.174  -0.170  -0.168  -0.162  -0.161  -0.148  -0.146  -0.145
 -0.142

          Ground-State Mulliken Net Atomic Charges

     Atom                 Charge (a.u.)
  ----------------------------------------
      1 O                    -0.213696
      2 C                     0.210760
      3 C                    -0.079644
      4 C                    -0.077882
      5 C                     0.215058
      6 O                    -0.171825
      7 C                    -0.055279
      8 C                    -0.052759
      9 O                    -0.167683
     10 C                     0.215921
     11 C                    -0.075969
     12 C                    -0.079406
     13 C                     0.219891
     14 O                    -0.218581
     15 O                    -0.169808
     16 O                    -0.176297
     17 O                    -0.214499
     18 C                    -0.130005
     19 C                     0.024463
     20 C                    -0.144818
     21 C                    -0.142372
     22 C                     0.023982
     23 O                    -0.190787
     24 H                     0.088545
     25 H                     0.083333
     26 H                     0.083767
     27 H                     0.078653
     28 H                     0.074186
     29 H                     0.078306
     30 H                     0.073535
     31 H                     0.091737
     32 O                    -0.213037
     33 C                    -0.128534
     34 C                     0.025774
     35 C                    -0.144427
     36 C                    -0.143649
     37 C                     0.023607
     38 O                    -0.187078
     39 H                     0.086173
     40 H                     0.085363
     41 H                     0.092153
     42 H                     0.082778
     43 H                     0.078071
     44 H                     0.073730
     45 H                     0.078225
     46 H                     0.072807
     47 H                     0.093194
     48 H                     0.086844
     49 H                     0.088833
     50 H                     0.089816
     51 H                     0.083825
     52 H                     0.091915
     53 H                     0.091726
     54 H                     0.100329
     55 H                     0.087756
     56 H                     0.102976
  ----------------------------------------
  Sum of atomic charges =    -0.000000

                    Cartesian Multipole Moments
 -----------------------------------------------------------------
    Charge (ESU x 10^10)
                 0.0000
    Dipole Moment (Debye)
         X       0.2306      Y       1.1501      Z      -1.0855
       Tot       1.5982
    Quadrupole Moments (Debye-Ang)
        XX    -135.5986     XY       5.3730     YY    -164.3450
        XZ       7.0743     YZ       8.7686     ZZ    -157.3365

 Total job time:  88.42s(wall), 4191.27s(cpu)
        *  Thank you very much for using Q-Chem.  Have a nice day.  *
