 Q-Chem 5.0, Q-Chem, Inc., Pleasanton, CA (2017)
 Q-Chem 5.0.1 for Intel X86 EM64T Linux

User input:
--------------------------------------------------------------
$molecule
0  1
O -3.94934 -3.66094 2.70899
C -3.26408 -4.56952 2.26188
C -3.36658 -6.02376 2.66595
C -3.28771 -6.34293 4.16787
C -3.29375 -5.15956 5.11004
O -4.10257 -5.42161 6.17895
C -4.02596 -4.4226 7.20138
C -2.92094 -4.76968 8.19364
O -3.04105 -3.94947 9.36655
C -2.03086 -3.06717 9.56705
C -2.20383 -2.25081 10.82574
C -3.33801 -1.21669 10.77583
C -4.33895 -1.38752 9.65083
O -5.53887 -1.57419 9.79195
O -2.29964 -4.27085 1.35198
O -3.87315 -1.1214 8.4019
O -1.01056 -3.00885 8.89178
C -4.68557 -0.85937 7.31604
C -2.59118 -3.05977 12.07688
C -2.15869 -2.30125 13.32987
C -3.13445 -1.14106 13.30881
C -4.0193 -1.54443 12.12192
O -3.99286 -2.95261 12.13976
H -1.22957 -1.74064 11.00697
H -2.96468 -0.17015 10.72283
H -2.17431 -4.09056 12.07982
H -2.3998 -2.95355 14.19986
H -1.08545 -2.01656 13.37415
H -3.71266 -1.15361 14.25931
H -2.67893 -0.13938 13.15138
H -5.02181 -1.07254 12.21727
O -2.44527 -4.275 5.07694
C -2.04504 -3.00106 0.8777
C -4.74904 -6.61332 2.31985
C -4.6305 -8.12157 2.12551
C -4.37594 -8.56483 3.54904
C -4.55358 -7.23251 4.2918
O -5.4867 -6.526 3.51441
H -2.59215 -6.57895 2.08766
H -2.35643 -6.90462 4.40198
H -1.75421 -2.33102 1.71493
H -5.21501 -6.14823 1.42316
H -5.63707 -8.48309 1.81407
H -3.87673 -8.45825 1.38165
H -5.16651 -9.29464 3.83309
H -3.3705 -8.99924 3.73879
H -4.85436 -7.4547 5.33749
H -2.94466 -2.59582 0.36696
H -1.20992 -3.0455 0.14894
H -4.05497 -0.71138 6.41549
H -5.27067 0.06714 7.49816
H -5.38927 -1.699 7.13597
H -3.04631 -5.82442 8.51897
H -1.9417 -4.71598 7.67058
H -4.9905 -4.44876 7.75182
H -3.90788 -3.39633 6.79961
$end

$opt
CONSTRAINT
tors           1           2           3           4     -52.792
tors           3           4           5           6    +137.682
tors           4           5           6           7    +172.333
tors           5           6           7           8     -89.217
tors           6           7           8           9    -166.983
tors           7           8           9          10    -113.711
tors           8           9          10          11    -179.090
tors           9          10          11          12     -70.333
tors          11          12          13          14    +119.901
ENDCONSTRAINT
$end

$rem
JOBTYPE                   OPT
METHOD                    B3LYP
DFT_D                     d3_op
BASIS                     STO-3G
GEOM_OPT_MAX_CYCLES       100
GEOM_OPT_TOL_GRADIENT     300
GEOM_OPT_TOL_DISPLACEMENT 1200
GEOM_OPT_TOL_ENERGY       100
SYMMETRY                  False
THRESH                    12
SCF_CONVERGENCE           8
MAX_SUB_FILE_NUM          128
MEM_STATIC                400
MEM_TOTAL                 4000
$end
--------------------------------------------------------------

   15   -1510.1553326394      6.52E-09 Convergence criterion met
 Total energy in the final basis set = -1510.15533264
   13   -1510.2239140063      9.00E-09 Convergence criterion met
 Total energy in the final basis set = -1510.22391401
   14   -1510.2599137935      8.62E-09 Convergence criterion met
 Total energy in the final basis set = -1510.25991379
    2   -1510.2599137934      3.00E-09 Convergence criterion met
 Total energy in the final basis set = -1510.25991379
   13   -1510.2748464474      8.67E-09 Convergence criterion met
 Total energy in the final basis set = -1510.27484645
   13   -1510.2774578387      8.93E-09 Convergence criterion met
 Total energy in the final basis set = -1510.27745784
   13   -1510.2793714830      8.61E-09 Convergence criterion met
 Total energy in the final basis set = -1510.27937148
   13   -1510.2806582675      4.63E-09 Convergence criterion met
   11   -1510.2840849890      6.46E-09 Convergence criterion met
 Total energy in the final basis set = -1510.28408499
   11   -1510.2841383481      8.87E-09 Convergence criterion met
 Total energy in the final basis set = -1510.28413835
   11   -1510.2841864083      7.79E-09 Convergence criterion met
 Total energy in the final basis set = -1510.28418641
   10   -1510.2842120402      6.86E-09 Convergence criterion met
 Total energy in the final basis set = -1510.28421204
   10   -1510.2842264062      9.72E-09 Convergence criterion met
 Total energy in the final basis set = -1510.28422641
    9   -1510.2842285859      9.06E-09 Convergence criterion met
 Total energy in the final basis set = -1510.28422859

             Standard Nuclear Orientation (Angstroms)
    I     Atom           X                Y                Z
 ----------------------------------------------------------------
    1      O      -3.5995576493     1.5945238513     1.2020454366
    2      C      -4.3034168222     1.3446344701     0.1999363259
    3      C      -4.7566474356    -0.0607494812    -0.3281345858
    4      C      -3.5612041205    -1.0832748835    -0.5359887533
    5      C      -2.1438446027    -0.4369047897    -0.3356864521
    6      O      -1.3036265494    -1.3254630890     0.4105443992
    7      C       0.0810141672    -0.7973431112     0.4386596780
    8      C       0.9092095041    -1.3213128716    -0.7895351932
    9      O       2.3404525692    -1.0287652159    -0.5437761718
   10      C       2.8297113137    -0.0618577247    -1.4862855854
   11      C       4.3461797257     0.1789087405    -1.1819179608
   12      C       4.5853056641     0.9671446685     0.1785719969
   13      C       3.2603103695     1.3529289021     0.9271925218
   14      O       2.9018935480     1.0123941068     2.0746839675
   15      O      -4.8590776739     2.3459473918    -0.6614563413
   16      O       2.5068872923     2.2065752372     0.0562550864
   17      O       2.1470751570     0.4328025964    -2.4094697085
   18      C       1.2589437887     2.6691016392     0.7078605942
   19      C       5.1207368460    -1.1745277222    -0.8697359311
   20      C       6.6735161957    -0.8877201052    -0.9344205625
   21      C       6.8973313913    -0.1111883069     0.4167478650
   22      C       5.4309051426    -0.0892323744     1.0002469234
   23      O       4.8676664479    -1.3909489852     0.5722793747
   24      H       4.7822197693     0.7210234163    -2.0391148116
   25      H       5.1550052020     1.8964361827    -0.0071548928
   26      H       4.7760311853    -2.0459517109    -1.4591847321
   27      H       7.2359908089    -1.8347252785    -0.9522411478
   28      H       6.9526854025    -0.2951060217    -1.8202770426
   29      H       7.5731504859    -0.6612809917     1.0906362749
   30      H       7.2994454254     0.9029678483     0.2630312246
   31      H       5.3457584976     0.0239561109     2.0984736107
   32      O      -1.7653941397     0.6673173596    -0.7868258335
   33      C      -4.4432238140     3.6910990505    -0.2016640201
   34      C      -5.5965279312    -0.8282831539     0.7869449747
   35      C      -6.3166953126    -2.0633796344     0.1155372439
   36      C      -5.1135764250    -3.0644112337    -0.0520447018
   37      C      -3.9216576967    -2.2043680112     0.5258640281
   38      O      -4.5497848157    -1.4449914403     1.6318947994
   39      H      -5.3377962533     0.0851383383    -1.2552475034
   40      H      -3.5851576793    -1.4930107653    -1.5635762162
   41      H      -3.3388595286     3.7923739799    -0.1922103089
   42      H      -6.2514548368    -0.1755986226     1.3962469001
   43      H      -7.0905832203    -2.4684477221     0.7867472151
   44      H      -6.7863686160    -1.7968768298    -0.8447766020
   45      H      -5.2593408654    -3.9744289498     0.5517635363
   46      H      -4.9462774988    -3.3590523780    -1.1003622973
   47      H      -3.0461441188    -2.7738807430     0.8910958106
   48      H      -4.8252774104     3.9114855839     0.8162191856
   49      H      -4.8758798716     4.4087457384    -0.9226966049
   50      H       0.4058456474     2.4442731109     0.0372524118
   51      H       1.3174897583     3.7644112095     0.8661415796
   52      H       1.1299357052     2.1579498564     1.6833127722
   53      H       0.7948713874    -2.4211976910    -0.8857313932
   54      H       0.5870774760    -0.8173069121    -1.7263644688
   55      H       0.5385658749    -1.1610968782     1.3808300507
   56      H       0.0628532651     0.3096287132     0.4308334380
 ----------------------------------------------------------------

    9   -1510.2842291638      4.16E-09 Convergence criterion met
 Total energy in the final basis set = -1510.28422916
 Final energy is   -1510.28422916378
 **  OPTIMIZATION CONVERGED  **

                    Orbital Energies (a.u.)
 --------------------------------------------------------------

 Alpha MOs
 -- Occupied --
-18.936 -18.932 -18.931 -18.930 -18.887 -18.886 -18.879 -18.877
-18.875 -18.867 -10.101 -10.100 -10.099 -10.093 -10.066 -10.065
-10.060 -10.060 -10.059 -10.058 -10.056 -10.056 -10.039 -10.039
-10.038 -10.035 -10.020 -10.020 -10.019 -10.019  -1.016  -1.013
 -1.007  -1.004  -0.969  -0.969  -0.940  -0.937  -0.935  -0.929
 -0.764  -0.762  -0.727  -0.722  -0.712  -0.705  -0.691  -0.660
 -0.659  -0.614  -0.596  -0.581  -0.546  -0.544  -0.537  -0.536
 -0.512  -0.511  -0.482  -0.479  -0.465  -0.460  -0.450  -0.442
 -0.433  -0.432  -0.427  -0.412  -0.409  -0.407  -0.405  -0.398
 -0.391  -0.379  -0.374  -0.369  -0.360  -0.356  -0.354  -0.349
 -0.347  -0.341  -0.334  -0.330  -0.329  -0.328  -0.321  -0.310
 -0.309  -0.305  -0.303  -0.298  -0.291  -0.288  -0.285  -0.275
 -0.273  -0.253  -0.249  -0.247  -0.244  -0.233  -0.232  -0.187
 -0.175  -0.172  -0.165  -0.162  -0.157  -0.154  -0.146  -0.143
 -0.142

          Ground-State Mulliken Net Atomic Charges

     Atom                 Charge (a.u.)
  ----------------------------------------
      1 O                    -0.213824
      2 C                     0.210234
      3 C                    -0.079612
      4 C                    -0.078268
      5 C                     0.212875
      6 O                    -0.169449
      7 C                    -0.053470
      8 C                    -0.057748
      9 O                    -0.170011
     10 C                     0.210114
     11 C                    -0.077826
     12 C                    -0.077133
     13 C                     0.210991
     14 O                    -0.210837
     15 O                    -0.169597
     16 O                    -0.172485
     17 O                    -0.210052
     18 C                    -0.138094
     19 C                     0.026858
     20 C                    -0.144163
     21 C                    -0.144004
     22 C                     0.024395
     23 O                    -0.184835
     24 H                     0.086188
     25 H                     0.085727
     26 H                     0.083561
     27 H                     0.078019
     28 H                     0.073588
     29 H                     0.078259
     30 H                     0.073045
     31 H                     0.089976
     32 O                    -0.216736
     33 C                    -0.128485
     34 C                     0.025822
     35 C                    -0.144248
     36 C                    -0.143909
     37 C                     0.023259
     38 O                    -0.186896
     39 H                     0.086039
     40 H                     0.084551
     41 H                     0.091318
     42 H                     0.082620
     43 H                     0.077970
     44 H                     0.073660
     45 H                     0.078059
     46 H                     0.072523
     47 H                     0.093735
     48 H                     0.087148
     49 H                     0.089230
     50 H                     0.094995
     51 H                     0.085893
     52 H                     0.101220
     53 H                     0.085736
     54 H                     0.100189
     55 H                     0.096500
     56 H                     0.097386
  ----------------------------------------
  Sum of atomic charges =     0.000000

                    Cartesian Multipole Moments
 -----------------------------------------------------------------
    Charge (ESU x 10^10)
                 0.0000
    Dipole Moment (Debye)
         X       0.1486      Y       0.0271      Z      -1.9429
       Tot       1.9488
    Quadrupole Moments (Debye-Ang)
        XX    -133.5823     XY       4.8615     YY    -151.2425
        XZ       1.6093     YZ       7.1098     ZZ    -169.4655

 Total job time:  69.22s(wall), 3295.94s(cpu)
        *  Thank you very much for using Q-Chem.  Have a nice day.  *
