 Q-Chem 5.0, Q-Chem, Inc., Pleasanton, CA (2017)
 Q-Chem 5.0.1 for Intel X86 EM64T Linux

User input:
--------------------------------------------------------------
$molecule
0  1
O -3.5995576493 1.5945238513 1.2020454366
C -4.3034168222 1.3446344701 0.1999363259
C -4.7566474356 -0.0607494812 -0.3281345858
C -3.5612041205 -1.0832748835 -0.5359887533
C -2.1438446027 -0.4369047897 -0.3356864521
O -1.3036265494 -1.325463089 0.4105443992
C 0.0810141672 -0.7973431112 0.438659678
C 0.9092095041 -1.3213128716 -0.7895351932
O 2.3404525692 -1.0287652159 -0.5437761718
C 2.8297113137 -0.0618577247 -1.4862855854
C 4.3461797257 0.1789087405 -1.1819179608
C 4.5853056641 0.9671446685 0.1785719969
C 3.2603103695 1.3529289021 0.9271925218
O 2.901893548 1.0123941068 2.0746839675
O -4.8590776739 2.3459473918 -0.6614563413
O 2.5068872923 2.2065752372 0.0562550864
O 2.147075157 0.4328025964 -2.4094697085
C 1.2589437887 2.6691016392 0.7078605942
C 5.120736846 -1.1745277222 -0.8697359311
C 6.6735161957 -0.8877201052 -0.9344205625
C 6.8973313913 -0.1111883069 0.416747865
C 5.4309051426 -0.0892323744 1.0002469234
O 4.8676664479 -1.3909489852 0.5722793747
H 4.7822197693 0.7210234163 -2.0391148116
H 5.155005202 1.8964361827 -0.0071548928
H 4.7760311853 -2.0459517109 -1.4591847321
H 7.2359908089 -1.8347252785 -0.9522411478
H 6.9526854025 -0.2951060217 -1.8202770426
H 7.5731504859 -0.6612809917 1.0906362749
H 7.2994454254 0.9029678483 0.2630312246
H 5.3457584976 0.0239561109 2.0984736107
O -1.7653941397 0.6673173596 -0.7868258335
C -4.443223814 3.6910990505 -0.2016640201
C -5.5965279312 -0.8282831539 0.7869449747
C -6.3166953126 -2.0633796344 0.1155372439
C -5.113576425 -3.0644112337 -0.0520447018
C -3.9216576967 -2.2043680112 0.5258640281
O -4.5497848157 -1.4449914403 1.6318947994
H -5.3377962533 0.0851383383 -1.2552475034
H -3.5851576793 -1.4930107653 -1.5635762162
H -3.3388595286 3.7923739799 -0.1922103089
H -6.2514548368 -0.1755986226 1.3962469001
H -7.0905832203 -2.4684477221 0.7867472151
H -6.786368616 -1.7968768298 -0.844776602
H -5.2593408654 -3.9744289498 0.5517635363
H -4.9462774988 -3.359052378 -1.1003622973
H -3.0461441188 -2.773880743 0.8910958106
H -4.8252774104 3.9114855839 0.8162191856
H -4.8758798716 4.4087457384 -0.9226966049
H 0.4058456474 2.4442731109 0.0372524118
H 1.3174897583 3.7644112095 0.8661415796
H 1.1299357052 2.1579498564 1.6833127722
H 0.7948713874 -2.421197691 -0.8857313932
H 0.587077476 -0.8173069121 -1.7263644688
H 0.5385658749 -1.1610968782 1.3808300507
H 0.0628532651 0.3096287132 0.430833438
$end

$rem
JOBTYPE                   OPT
METHOD                    B3LYP
DFT_D                     d3_op
BASIS                     STO-3G
GEOM_OPT_MAX_CYCLES       100
GEOM_OPT_TOL_GRADIENT     300
GEOM_OPT_TOL_DISPLACEMENT 1200
GEOM_OPT_TOL_ENERGY       100
SYMMETRY                  False
THRESH                    12
SCF_CONVERGENCE           8
MAX_SUB_FILE_NUM          128
MEM_STATIC                400
MEM_TOTAL                 4000
$end
--------------------------------------------------------------

   15   -1510.2842100891      9.48E-09 Convergence criterion met
 Total energy in the final basis set = -1510.28421009
   14   -1510.2838688407      2.95E-09 Convergence criterion met
 Total energy in the final basis set = -1510.28386884
   14   -1510.2857415677      2.00E-09 Convergence criterion met
 Total energy in the final basis set = -1510.28574157
   13   -1510.2874702628      5.10E-09 Convergence criterion met
 Total energy in the final basis set = -1510.28747026
   14   -1510.2821065407      3.58E-09 Convergence criterion met
 Total energy in the final basis set = -1510.28210654
   14   -1510.2890100324      2.81E-09 Convergence criterion met
 Total energy in the final basis set = -1510.28901003
   14   -1510.2892841508      2.54E-09 Convergence criterion met
 Total energy in the final basis set = -1510.28928415
   13   -1510.2903555582      4.08E-09 Convergence criterion met
   12   -1510.2986087437      4.73E-09 Convergence criterion met
 Total energy in the final basis set = -1510.29860874
   11   -1510.2986005320      4.01E-09 Convergence criterion met
 Total energy in the final basis set = -1510.29860053
    9   -1510.2986052833      5.94E-09 Convergence criterion met
 Total energy in the final basis set = -1510.29860528
    9   -1510.2986064502      8.66E-09 Convergence criterion met
 Total energy in the final basis set = -1510.29860645
   10   -1510.2986124564      6.31E-09 Convergence criterion met
 Total energy in the final basis set = -1510.29861246
   11   -1510.2986104638      3.75E-09 Convergence criterion met
 Total energy in the final basis set = -1510.29861046

             Standard Nuclear Orientation (Angstroms)
    I     Atom           X                Y                Z
 ----------------------------------------------------------------
    1      O      -3.1775443910     2.1602670489     0.1683014837
    2      C      -3.0310123985     1.1044873398    -0.4834679760
    3      C      -4.0476146923    -0.0991324153    -0.5357071212
    4      C      -3.5130014938    -1.4882656742     0.0207909206
    5      C      -2.0179083331    -1.4136274258     0.4535280118
    6      O      -1.2796911862    -2.3930494758    -0.2822987704
    7      C       0.1766506348    -2.1511960736    -0.1339977419
    8      C       0.5986831399    -1.0569981715    -1.1767112479
    9      O       1.9364306042    -0.5747615845    -0.7615604626
   10      C       2.3087942429     0.6231573914    -1.4407193969
   11      C       3.7509579993     0.9999312915    -0.9695124306
   12      C       3.9133334903     0.9749338412     0.6081278470
   13      C       2.5720749464     0.7078550893     1.3858489725
   14      O       2.3511922188    -0.1746378561     2.2419918813
   15      O      -1.9274357800     0.8550607441    -1.3702857225
   16      O       1.6368943682     1.7165598872     0.9929088164
   17      O       1.6003776374     1.2221119913    -2.2828598107
   18      C       0.3818431708     1.5929674349     1.7740243700
   19      C       4.7934701136    -0.1307875162    -1.3811588591
   20      C       6.2548054139     0.4279756169    -1.1571269285
   21      C       6.3844660102     0.3301378579     0.4089714656
   22      C       4.9518601495    -0.2065919352     0.7953370088
   23      O       4.6301625849    -1.1390239648    -0.3116370074
   24      H       4.0092449178     1.9827781986    -1.4001963692
   25      H       4.3278586832     1.9357538499     0.9650214693
   26      H       4.6096821199    -0.5839968682    -2.3747727603
   27      H       6.9933748094    -0.2113464870    -1.6661359523
   28      H       6.3643290281     1.4592572820    -1.5291334415
   29      H       7.1596631450    -0.3949943947     0.7039836694
   30      H       6.6084762795     1.2999475530     0.8809219210
   31      H       4.8710675977    -0.7239242635     1.7712071828
   32      O      -1.5220000305    -0.6274752317     1.2924719266
   33      C      -1.1377614050     2.1013518977    -1.5605993138
   34      C      -5.2556405867     0.1739490405     0.4537214836
   35      C      -6.4394649374    -0.8062762573     0.0925762222
   36      C      -5.8976457796    -2.1652663597     0.6739534331
   37      C      -4.4986355928    -1.7117840207     1.2507668929
   38      O      -4.7530617784    -0.3434427694     1.7480085808
   39      H      -4.3855384620    -0.2101710443    -1.5825411677
   40      H      -3.6162921649    -2.2885332100    -0.7322202902
   41      H      -1.0536469049     2.6639188757    -0.6117214687
   42      H      -5.5220373826     1.2445851691     0.5463586226
   43      H      -7.3674561102    -0.4930196418     0.5964043611
   44      H      -6.6240941644    -0.8515920586    -0.9926538430
   45      H      -6.5415178447    -2.5434096567     1.4838814268
   46      H      -5.7966336191    -2.9487534971    -0.0940261490
   47      H      -4.0897036558    -2.3496978857     2.0582114957
   48      H      -1.6297373556     2.7490635865    -2.3138545302
   49      H      -0.1297529087     1.7934201357    -1.9207121997
   50      H      -0.2048278285     0.6839400499     1.5036206187
   51      H      -0.2111658163     2.4951119135     1.5373632216
   52      H       0.5906105981     1.5682076678     2.8619672872
   53      H       0.6423549567    -1.4837175891    -2.2019286165
   54      H      -0.1682918491    -0.2485603483    -1.1714352807
   55      H       0.6830581045    -3.1168984412    -0.3267948283
   56      H       0.4206061336    -1.7942171894     0.8901344869
 ----------------------------------------------------------------

   10   -1510.2986105019      6.11E-09 Convergence criterion met
 Total energy in the final basis set = -1510.29861050
 Final energy is   -1510.29861050187
 **  OPTIMIZATION CONVERGED  **

                    Orbital Energies (a.u.)
 --------------------------------------------------------------

 Alpha MOs
 -- Occupied --
-18.943 -18.942 -18.930 -18.921 -18.890 -18.888 -18.887 -18.884
-18.878 -18.866 -10.110 -10.108 -10.099 -10.093 -10.074 -10.069
-10.063 -10.062 -10.059 -10.056 -10.042 -10.041 -10.040 -10.039
-10.038 -10.034 -10.022 -10.021 -10.021 -10.019  -1.023  -1.018
 -1.008  -1.000  -0.972  -0.970  -0.948  -0.942  -0.934  -0.927
 -0.766  -0.763  -0.730  -0.724  -0.712  -0.706  -0.697  -0.653
 -0.648  -0.618  -0.598  -0.582  -0.547  -0.546  -0.539  -0.537
 -0.518  -0.509  -0.486  -0.476  -0.462  -0.461  -0.454  -0.447
 -0.436  -0.432  -0.429  -0.415  -0.410  -0.407  -0.401  -0.398
 -0.392  -0.379  -0.372  -0.368  -0.360  -0.359  -0.355  -0.351
 -0.341  -0.336  -0.334  -0.332  -0.330  -0.329  -0.324  -0.312
 -0.310  -0.307  -0.304  -0.300  -0.295  -0.288  -0.284  -0.279
 -0.271  -0.258  -0.255  -0.245  -0.242  -0.236  -0.234  -0.186
 -0.180  -0.175  -0.170  -0.162  -0.160  -0.153  -0.146  -0.145
 -0.143

          Ground-State Mulliken Net Atomic Charges

     Atom                 Charge (a.u.)
  ----------------------------------------
      1 O                    -0.206712
      2 C                     0.210501
      3 C                    -0.078215
      4 C                    -0.079738
      5 C                     0.216544
      6 O                    -0.168362
      7 C                    -0.050816
      8 C                    -0.055511
      9 O                    -0.166900
     10 C                     0.221212
     11 C                    -0.078039
     12 C                    -0.078398
     13 C                     0.213549
     14 O                    -0.216046
     15 O                    -0.180836
     16 O                    -0.180149
     17 O                    -0.216376
     18 C                    -0.145075
     19 C                     0.025747
     20 C                    -0.144059
     21 C                    -0.143632
     22 C                     0.024340
     23 O                    -0.186710
     24 H                     0.086325
     25 H                     0.083880
     26 H                     0.081317
     27 H                     0.078021
     28 H                     0.073962
     29 H                     0.078080
     30 H                     0.073572
     31 H                     0.090851
     32 O                    -0.211808
     33 C                    -0.148782
     34 C                     0.025010
     35 C                    -0.144497
     36 C                    -0.143454
     37 C                     0.026522
     38 O                    -0.185273
     39 H                     0.085096
     40 H                     0.087885
     41 H                     0.090412
     42 H                     0.091479
     43 H                     0.078963
     44 H                     0.073347
     45 H                     0.078879
     46 H                     0.073864
     47 H                     0.084456
     48 H                     0.078176
     49 H                     0.111793
     50 H                     0.108769
     51 H                     0.084088
     52 H                     0.083972
     53 H                     0.084617
     54 H                     0.103875
     55 H                     0.094171
     56 H                     0.106114
  ----------------------------------------
  Sum of atomic charges =     0.000000

                    Cartesian Multipole Moments
 -----------------------------------------------------------------
    Charge (ESU x 10^10)
                 0.0000
    Dipole Moment (Debye)
         X       0.2408      Y      -0.7813      Z      -2.2167
       Tot       2.3626
    Quadrupole Moments (Debye-Ang)
        XX    -138.4389     XY      13.1784     YY    -159.5502
        XZ       4.3359     YZ       0.9719     ZZ    -164.7121

 Total job time:  203.47s(wall), 9701.04s(cpu)
        *  Thank you very much for using Q-Chem.  Have a nice day.  *
