 Q-Chem 5.0, Q-Chem, Inc., Pleasanton, CA (2017)
 Q-Chem 5.0.1 for Intel X86 EM64T Linux

User input:
--------------------------------------------------------------
$molecule
0  1
O -3.94934 -3.66094 2.70899
C -3.26408 -4.56952 2.26188
C -3.36658 -6.02376 2.66595
C -3.28771 -6.34293 4.16787
C -3.29375 -5.15956 5.11004
O -4.10257 -5.42161 6.17895
C -4.02596 -4.4226 7.20138
C -2.8597 -4.71816 8.13872
O -2.78805 -3.71354 9.16267
C -1.69009 -2.91849 9.12372
C -1.6624 -1.89858 10.23712
C -2.79169 -0.85895 10.19088
C -3.95819 -1.19042 9.28196
O -5.12033 -1.31965 9.63874
O -2.29957 -4.2708 1.35209
O -3.70356 -1.09578 7.95027
O -0.7678 -3.03163 8.32551
C -4.68179 -0.90771 6.99222
C -1.85743 -2.48692 11.64663
C -1.23434 -1.55142 12.68044
C -2.19537 -0.38075 12.61681
C -3.25526 -0.94487 11.66121
O -3.23174 -2.33166 11.90409
H -0.66761 -1.39852 10.1873
H -2.43445 0.15643 9.91022
H -1.44919 -3.51565 11.75365
H -1.34421 -2.04917 13.67076
H -0.16521 -1.29559 12.51804
H -2.61814 -0.22017 13.63337
H -1.76501 0.56712 12.22699
H -4.2292 -0.43529 11.8305
O -2.44985 -4.27064 5.0708
C -2.04482 -3.00093 0.87809
C -4.74904 -6.61358 2.32016
C -4.63016 -8.12178 2.12555
C -4.37486 -8.56521 3.54893
C -4.55296 -7.23314 4.29204
O -5.48647 -6.5268 3.51495
H -2.5922 -6.57897 2.0876
H -2.3556 -6.90349 4.40132
H -1.754 -2.3311 1.71549
H -5.2154 -6.14846 1.42368
H -5.6368 -8.48347 1.81452
H -3.87668 -8.45825 1.3813
H -5.16485 -9.29561 3.83306
H -3.36907 -8.99898 3.73825
H -4.85333 -7.45553 5.33781
H -2.94438 -2.59549 0.36739
H -1.20966 -3.04528 0.14937
H -4.21151 -0.8966 5.98752
H -5.18965 0.06612 7.1586
H -5.43871 -1.71949 7.03238
H -3.01348 -5.70673 8.62093
H -1.93574 -4.81548 7.53036
H -4.96501 -4.44419 7.79384
H -3.93374 -3.4104 6.76677
$end

$opt
CONSTRAINT
tors           1           2           3           4     -52.792
tors           3           4           5           6    +137.682
tors           4           5           6           7    +172.333
tors           5           6           7           8     -85.332
tors           6           7           8           9    -179.965
tors           7           8           9          10    -113.711
tors           8           9          10          11    -179.090
tors           9          10          11          12     -64.326
tors          11          12          13          14    +119.935
ENDCONSTRAINT
$end

$rem
JOBTYPE                   OPT
METHOD                    B3LYP
DFT_D                     d3_op
BASIS                     STO-3G
GEOM_OPT_MAX_CYCLES       100
GEOM_OPT_TOL_GRADIENT     300
GEOM_OPT_TOL_DISPLACEMENT 1200
GEOM_OPT_TOL_ENERGY       100
SYMMETRY                  False
THRESH                    12
SCF_CONVERGENCE           8
MAX_SUB_FILE_NUM          128
MEM_STATIC                400
MEM_TOTAL                 4000
$end
--------------------------------------------------------------

   15   -1510.1553320946      6.31E-09 Convergence criterion met
 Total energy in the final basis set = -1510.15533209
   14   -1510.2237782676      7.07E-09 Convergence criterion met
 Total energy in the final basis set = -1510.22377827
   15   -1510.2596610151      1.21E-09 Convergence criterion met
 Total energy in the final basis set = -1510.25966102
   14   -1510.2744283015      7.66E-09 Convergence criterion met
 Total energy in the final basis set = -1510.27442830
   14   -1510.2755873050      6.38E-09 Convergence criterion met
 Total energy in the final basis set = -1510.27558731
   14   -1510.2790086700      4.59E-09 Convergence criterion met
 Total energy in the final basis set = -1510.27900867
   12   -1510.2802992311      8.08E-09 Convergence criterion met
 Total energy in the final basis set = -1510.28029923
   12   -1510.2812386740      8.51E-09 Convergence criterion met
   10   -1510.2856242244      6.94E-09 Convergence criterion met
 Total energy in the final basis set = -1510.28562422
   10   -1510.2856364198      7.65E-09 Convergence criterion met
 Total energy in the final basis set = -1510.28563642
   10   -1510.2856329548      8.30E-09 Convergence criterion met
 Total energy in the final basis set = -1510.28563295
    9   -1510.2856401932      8.71E-09 Convergence criterion met
 Total energy in the final basis set = -1510.28564019
    9   -1510.2856412774      2.35E-09 Convergence criterion met
 Total energy in the final basis set = -1510.28564128
    9   -1510.2856422990      3.11E-09 Convergence criterion met
 Total energy in the final basis set = -1510.28564230

             Standard Nuclear Orientation (Angstroms)
    I     Atom           X                Y                Z
 ----------------------------------------------------------------
    1      O      -3.3049585000     1.5481337843     1.3204738731
    2      C      -3.9673186137     1.4159920361     0.2687136379
    3      C      -4.5580011922     0.0949836051    -0.3364349980
    4      C      -3.4831858972    -1.0618914329    -0.5036401217
    5      C      -2.0162806952    -0.5787091858    -0.2276427617
    6      O      -1.3010167490    -1.5496177333     0.5460875564
    7      C       0.1220985224    -1.1397262811     0.6222482409
    8      C       0.9417087993    -1.6375642585    -0.6222163129
    9      O       2.3377625322    -1.1754436587    -0.4403452763
   10      C       2.6669613679    -0.2044915322    -1.4510703310
   11      C       4.1515478721     0.2366907666    -1.2356109288
   12      C       4.3478910542     0.9856456788     0.1537513318
   13      C       2.9931493398     1.2463831847     0.9071730450
   14      O       2.6406002631     0.8436414014     2.0357347317
   15      O      -4.3280688841     2.5023329531    -0.5931594073
   16      O       2.1918586426     2.0582515330     0.0375587175
   17      O       1.8880599604     0.1529821203    -2.3615367153
   18      C       0.8769349061     2.3825093185     0.6419091157
   19      C       5.1120236770    -1.0107966784    -1.0221993000
   20      C       6.6102977099    -0.5072326929    -1.0801594060
   21      C       6.7622256161     0.1697750650     0.3338028208
   22      C       5.3063472799    -0.0188799276     0.9151000895
   23      O       4.9104648284    -1.3514933024     0.4038638607
   24      H       4.4531224160     0.8681238323    -2.0891509637
   25      H       4.8375073541     1.9640635610    -0.0051014853
   26      H       4.8812411566    -1.8821453250    -1.6652821441
   27      H       7.2991423434    -1.3584343023    -1.1987668311
   28      H       6.7755490201     0.1999177886    -1.9087340079
   29      H       7.4971630064    -0.3631092221     0.9579950292
   30      H       7.0545541490     1.2299295483     0.2694808824
   31      H       5.2149793637     0.0144435277     2.0181098182
   32      O      -1.5142729069     0.4923818566    -0.6419042159
   33      C      -3.7577041466     3.7660049336    -0.0718311542
   34      C      -5.5555825173    -0.5932898323     0.6938819974
   35      C      -6.3564799477    -1.7302787010    -0.0561273345
   36      C      -5.2678224820    -2.8631985673    -0.1482067641
   37      C      -4.0301003801    -2.1456947677     0.5191434277
   38      O      -4.6454588727    -1.3342819942     1.5951015842
   39      H      -5.0511479858     0.3397534914    -1.2929822424
   40      H      -3.5037477437    -1.4546748477    -1.5378582589
   41      H      -2.6498427007     3.7240373262    -0.0362785939
   42      H      -6.1785087654     0.1171129365     1.2712295478
   43      H      -7.2238543251    -2.0491844445     0.5431500934
   44      H      -6.7123577899    -1.4009093980    -1.0455572132
   45      H      -5.5580773640    -3.7494556891     0.4382166470
   46      H      -5.0623324612    -3.1764524824    -1.1843033966
   47      H      -3.2488761484    -2.8121382657     0.9319225175
   48      H      -4.1337416786     3.9960171260     0.9460359238
   49      H      -4.0764935573     4.5586194944    -0.7733827273
   50      H       0.0667331416     1.9052181817     0.0472598340
   51      H       0.7484660932     3.4821413840     0.6212351057
   52      H       0.8408199555     2.0179654690     1.6883206479
   53      H       0.9425204716    -2.7454048360    -0.6766416101
   54      H       0.5371659678    -1.2015548198    -1.5618881135
   55      H       0.5261419471    -1.6017883047     1.5451204983
   56      H       0.2023708995    -0.0410744167     0.6993401608
 ----------------------------------------------------------------

    9   -1510.2856425450      1.65E-09 Convergence criterion met
 Total energy in the final basis set = -1510.28564255
 Final energy is   -1510.28564254504
 **  OPTIMIZATION CONVERGED  **

                    Orbital Energies (a.u.)
 --------------------------------------------------------------

 Alpha MOs
 -- Occupied --
-18.940 -18.931 -18.930 -18.928 -18.887 -18.887 -18.878 -18.877
-18.876 -18.867 -10.104 -10.099 -10.098 -10.094 -10.066 -10.064
-10.061 -10.060 -10.060 -10.058 -10.057 -10.049 -10.040 -10.039
-10.037 -10.036 -10.020 -10.020 -10.019 -10.019  -1.017  -1.012
 -1.005  -1.004  -0.970  -0.969  -0.941  -0.936  -0.933  -0.929
 -0.764  -0.762  -0.727  -0.722  -0.712  -0.705  -0.692  -0.660
 -0.656  -0.614  -0.596  -0.581  -0.546  -0.545  -0.537  -0.536
 -0.512  -0.510  -0.481  -0.480  -0.464  -0.459  -0.451  -0.441
 -0.434  -0.431  -0.428  -0.411  -0.410  -0.407  -0.404  -0.396
 -0.392  -0.376  -0.373  -0.368  -0.361  -0.357  -0.356  -0.349
 -0.345  -0.341  -0.332  -0.330  -0.329  -0.326  -0.321  -0.310
 -0.309  -0.305  -0.303  -0.298  -0.290  -0.288  -0.285  -0.276
 -0.274  -0.256  -0.249  -0.246  -0.243  -0.233  -0.233  -0.188
 -0.174  -0.172  -0.164  -0.160  -0.159  -0.152  -0.147  -0.143
 -0.142

          Ground-State Mulliken Net Atomic Charges

     Atom                 Charge (a.u.)
  ----------------------------------------
      1 O                    -0.214497
      2 C                     0.210201
      3 C                    -0.079337
      4 C                    -0.078346
      5 C                     0.214309
      6 O                    -0.166781
      7 C                    -0.053799
      8 C                    -0.058665
      9 O                    -0.168487
     10 C                     0.209669
     11 C                    -0.077179
     12 C                    -0.077117
     13 C                     0.210265
     14 O                    -0.211699
     15 O                    -0.169264
     16 O                    -0.174232
     17 O                    -0.209828
     18 C                    -0.143494
     19 C                     0.026543
     20 C                    -0.144330
     21 C                    -0.143424
     22 C                     0.024444
     23 O                    -0.184443
     24 H                     0.087092
     25 H                     0.085075
     26 H                     0.082841
     27 H                     0.077989
     28 H                     0.073567
     29 H                     0.078101
     30 H                     0.073051
     31 H                     0.089785
     32 O                    -0.217597
     33 C                    -0.128380
     34 C                     0.025865
     35 C                    -0.144376
     36 C                    -0.143712
     37 C                     0.023472
     38 O                    -0.186719
     39 H                     0.086517
     40 H                     0.085283
     41 H                     0.090231
     42 H                     0.082832
     43 H                     0.078152
     44 H                     0.073778
     45 H                     0.078274
     46 H                     0.072767
     47 H                     0.093232
     48 H                     0.087933
     49 H                     0.089411
     50 H                     0.102005
     51 H                     0.084309
     52 H                     0.097596
     53 H                     0.085574
     54 H                     0.100423
     55 H                     0.095460
     56 H                     0.099660
  ----------------------------------------
  Sum of atomic charges =     0.000000

                    Cartesian Multipole Moments
 -----------------------------------------------------------------
    Charge (ESU x 10^10)
                 0.0000
    Dipole Moment (Debye)
         X       0.0039      Y       0.2356      Z      -2.0547
       Tot       2.0681
    Quadrupole Moments (Debye-Ang)
        XX    -135.6941     XY       5.4705     YY    -151.1339
        XZ       1.7494     YZ       6.3022     ZZ    -169.1559

 Total job time:  76.59s(wall), 3647.63s(cpu)
        *  Thank you very much for using Q-Chem.  Have a nice day.  *
