 Q-Chem 5.0, Q-Chem, Inc., Pleasanton, CA (2017)
 Q-Chem 5.0.1 for Intel X86 EM64T Linux

User input:
--------------------------------------------------------------
$molecule
0  1
O -3.3049585 1.5481337843 1.3204738731
C -3.9673186137 1.4159920361 0.2687136379
C -4.5580011922 0.0949836051 -0.336434998
C -3.4831858972 -1.0618914329 -0.5036401217
C -2.0162806952 -0.5787091858 -0.2276427617
O -1.301016749 -1.5496177333 0.5460875564
C 0.1220985224 -1.1397262811 0.6222482409
C 0.9417087993 -1.6375642585 -0.6222163129
O 2.3377625322 -1.1754436587 -0.4403452763
C 2.6669613679 -0.2044915322 -1.451070331
C 4.1515478721 0.2366907666 -1.2356109288
C 4.3478910542 0.9856456788 0.1537513318
C 2.9931493398 1.2463831847 0.907173045
O 2.6406002631 0.8436414014 2.0357347317
O -4.3280688841 2.5023329531 -0.5931594073
O 2.1918586426 2.058251533 0.0375587175
O 1.8880599604 0.1529821203 -2.3615367153
C 0.8769349061 2.3825093185 0.6419091157
C 5.112023677 -1.0107966784 -1.0221993
C 6.6102977099 -0.5072326929 -1.080159406
C 6.7622256161 0.169775065 0.3338028208
C 5.3063472799 -0.0188799276 0.9151000895
O 4.9104648284 -1.3514933024 0.4038638607
H 4.453122416 0.8681238323 -2.0891509637
H 4.8375073541 1.964063561 -0.0051014853
H 4.8812411566 -1.882145325 -1.6652821441
H 7.2991423434 -1.3584343023 -1.1987668311
H 6.7755490201 0.1999177886 -1.9087340079
H 7.4971630064 -0.3631092221 0.9579950292
H 7.054554149 1.2299295483 0.2694808824
H 5.2149793637 0.0144435277 2.0181098182
O -1.5142729069 0.4923818566 -0.6419042159
C -3.7577041466 3.7660049336 -0.0718311542
C -5.5555825173 -0.5932898323 0.6938819974
C -6.3564799477 -1.730278701 -0.0561273345
C -5.267822482 -2.8631985673 -0.1482067641
C -4.0301003801 -2.1456947677 0.5191434277
O -4.6454588727 -1.3342819942 1.5951015842
H -5.0511479858 0.3397534914 -1.2929822424
H -3.5037477437 -1.4546748477 -1.5378582589
H -2.6498427007 3.7240373262 -0.0362785939
H -6.1785087654 0.1171129365 1.2712295478
H -7.2238543251 -2.0491844445 0.5431500934
H -6.7123577899 -1.400909398 -1.0455572132
H -5.558077364 -3.7494556891 0.438216647
H -5.0623324612 -3.1764524824 -1.1843033966
H -3.2488761484 -2.8121382657 0.9319225175
H -4.1337416786 3.996017126 0.9460359238
H -4.0764935573 4.5586194944 -0.7733827273
H 0.0667331416 1.9052181817 0.047259834
H 0.7484660932 3.482141384 0.6212351057
H 0.8408199555 2.017965469 1.6883206479
H 0.9425204716 -2.745404836 -0.6766416101
H 0.5371659678 -1.2015548198 -1.5618881135
H 0.5261419471 -1.6017883047 1.5451204983
H 0.2023708995 -0.0410744167 0.6993401608
$end

$rem
JOBTYPE                   OPT
METHOD                    B3LYP
DFT_D                     d3_op
BASIS                     STO-3G
GEOM_OPT_MAX_CYCLES       100
GEOM_OPT_TOL_GRADIENT     300
GEOM_OPT_TOL_DISPLACEMENT 1200
GEOM_OPT_TOL_ENERGY       100
SYMMETRY                  False
THRESH                    12
SCF_CONVERGENCE           8
MAX_SUB_FILE_NUM          128
MEM_STATIC                400
MEM_TOTAL                 4000
$end
--------------------------------------------------------------

   15   -1510.2857122358      8.80E-09 Convergence criterion met
 Total energy in the final basis set = -1510.28571224
   14   -1510.2783018371      5.56E-09 Convergence criterion met
 Total energy in the final basis set = -1510.27830184
   14   -1510.2844202020      4.52E-09 Convergence criterion met
 Total energy in the final basis set = -1510.28442020
   14   -1510.2874631207      4.16E-09 Convergence criterion met
 Total energy in the final basis set = -1510.28746312
   13   -1510.2884325063      6.69E-09 Convergence criterion met
 Total energy in the final basis set = -1510.28843251
   13   -1510.2895075147      3.35E-09 Convergence criterion met
 Total energy in the final basis set = -1510.28950751
   13   -1510.2903866126      3.78E-09 Convergence criterion met
 Total energy in the final basis set = -1510.29038661
   13   -1510.2908860320      4.47E-09 Convergence criterion met
   12   -1510.2987483228      1.12E-09 Convergence criterion met
 Total energy in the final basis set = -1510.29874832
   10   -1510.2987449269      3.85E-09 Convergence criterion met
 Total energy in the final basis set = -1510.29874493
    9   -1510.2987492577      4.38E-09 Convergence criterion met
 Total energy in the final basis set = -1510.29874926
    9   -1510.2987532175      4.15E-09 Convergence criterion met
 Total energy in the final basis set = -1510.29875322
    9   -1510.2987561757      5.82E-09 Convergence criterion met
 Total energy in the final basis set = -1510.29875618
    9   -1510.2987600653      4.62E-09 Convergence criterion met
 Total energy in the final basis set = -1510.29876007

             Standard Nuclear Orientation (Angstroms)
    I     Atom           X                Y                Z
 ----------------------------------------------------------------
    1      O      -3.2779932572     2.2747380918    -0.0090730812
    2      C      -3.0951934643     1.1845388547    -0.5911684314
    3      C      -4.0978893447    -0.0310112059    -0.6202629712
    4      C      -3.5477557382    -1.3946731694    -0.0206560260
    5      C      -2.0737528089    -1.2664320358     0.4707466898
    6      O      -1.3061031376    -2.3333846079    -0.0931191979
    7      C       0.1435812478    -2.0685513301     0.0817371107
    8      C       0.5976235641    -1.0791610530    -1.0489716190
    9      O       1.9569140434    -0.6134438604    -0.6907461014
   10      C       2.3271249930     0.5593535122    -1.4156719875
   11      C       3.7826533515     0.9343440626    -0.9856441721
   12      C       3.9731733588     0.9629311255     0.5888072039
   13      C       2.6414022740     0.7463961500     1.3974979244
   14      O       2.4239700196    -0.0904580036     2.2991945413
   15      O      -1.9523069538     0.8926962913    -1.4104329019
   16      O       1.7113692516     1.7457737453     0.9698140752
   17      O       1.6074900072     1.1391616704    -2.2610893602
   18      C       0.4654236922     1.6779105791     1.7722622964
   19      C       4.8046195225    -0.2221806227    -1.3750955752
   20      C       6.2762690599     0.3255760993    -1.1936712907
   21      C       6.4313622639     0.2773967286     0.3725763149
   22      C       4.9984035728    -0.2263765954     0.7999320313
   23      O       4.6472286300    -1.1914678240    -0.2692207593
   24      H       4.0436202645     1.8983759834    -1.4554225609
   25      H       4.4082737822     1.9292366517     0.9038900374
   26      H       4.5993108133    -0.7067604603    -2.3495068838
   27      H       6.9986904607    -0.3387773461    -1.6937032550
   28      H       6.3915152788     1.3429635562    -1.6004811088
   29      H       7.2013757152    -0.4487986411     0.6784936175
   30      H       6.6764292040     1.2587508384     0.8087503133
   31      H       4.9271534550    -0.7086964292     1.7943241349
   32      O      -1.6165415410    -0.3759026564     1.2231931753
   33      C      -1.1202897421     2.1141118494    -1.5717322419
   34      C      -5.3251120587     0.2496164900     0.3435270036
   35      C      -6.4951484007    -0.7424724332    -0.0278928591
   36      C      -5.9466080740    -2.0934643593     0.5656716339
   37      C      -4.5694555684    -1.6202236284     1.1791040199
   38      O      -4.8487321098    -0.2492171925     1.6552854607
   39      H      -4.4226162203    -0.1765001588    -1.6670652657
   40      H      -3.5978779551    -2.2138669901    -0.7587726181
   41      H      -1.0146355094     2.6518328745    -0.6103547113
   42      H      -5.5980755128     1.3202515426     0.4159085987
   43      H      -7.4314736498    -0.4364057555     0.4649137249
   44      H      -6.6675876459    -0.7937850261    -1.1148565520
   45      H      -6.6050620645    -2.4844099435     1.3575589902
   46      H      -5.8124759431    -2.8733086619    -0.2008266468
   47      H      -4.1793888208    -2.2476908987     2.0039540629
   48      H      -1.5822931691     2.7994001275    -2.3105872040
   49      H      -0.1234681235     1.7747986950    -1.9335991431
   50      H      -0.1852195756     0.8206052108     1.4798521468
   51      H      -0.0711427190     2.6246749475     1.5782796422
   52      H       0.6920990357     1.5986278429     2.8537561546
   53      H       0.6121799627    -1.5930883764    -2.0343752109
   54      H      -0.1340270762    -0.2430274585    -1.1064439322
   55      H       0.6581335657    -3.0453891319    -0.0037547408
   56      H       0.3560586686    -1.6184629296     1.0756010719
 ----------------------------------------------------------------

    9   -1510.2987599659      1.74E-09 Convergence criterion met
 Total energy in the final basis set = -1510.29875997
 Final energy is   -1510.29875996594
 **  OPTIMIZATION CONVERGED  **

                    Orbital Energies (a.u.)
 --------------------------------------------------------------

 Alpha MOs
 -- Occupied --
-18.944 -18.942 -18.928 -18.922 -18.889 -18.888 -18.887 -18.884
-18.875 -18.867 -10.111 -10.109 -10.097 -10.094 -10.075 -10.071
-10.063 -10.062 -10.058 -10.057 -10.042 -10.041 -10.040 -10.039
-10.039 -10.035 -10.022 -10.022 -10.021 -10.020  -1.023  -1.018
 -1.006  -1.001  -0.972  -0.970  -0.948  -0.943  -0.932  -0.928
 -0.766  -0.764  -0.731  -0.724  -0.712  -0.706  -0.698  -0.652
 -0.649  -0.618  -0.598  -0.582  -0.547  -0.546  -0.538  -0.537
 -0.518  -0.509  -0.486  -0.477  -0.463  -0.461  -0.454  -0.447
 -0.436  -0.432  -0.430  -0.414  -0.409  -0.407  -0.401  -0.399
 -0.393  -0.379  -0.373  -0.368  -0.361  -0.359  -0.355  -0.352
 -0.342  -0.336  -0.334  -0.332  -0.330  -0.328  -0.325  -0.312
 -0.310  -0.306  -0.305  -0.299  -0.295  -0.289  -0.284  -0.279
 -0.271  -0.258  -0.255  -0.245  -0.243  -0.235  -0.235  -0.187
 -0.181  -0.173  -0.171  -0.161  -0.160  -0.151  -0.146  -0.145
 -0.144

          Ground-State Mulliken Net Atomic Charges

     Atom                 Charge (a.u.)
  ----------------------------------------
      1 O                    -0.208344
      2 C                     0.211202
      3 C                    -0.078589
      4 C                    -0.079575
      5 C                     0.217731
      6 O                    -0.168454
      7 C                    -0.050133
      8 C                    -0.054545
      9 O                    -0.167035
     10 C                     0.221428
     11 C                    -0.077978
     12 C                    -0.078284
     13 C                     0.213539
     14 O                    -0.216682
     15 O                    -0.181156
     16 O                    -0.180005
     17 O                    -0.215859
     18 C                    -0.145658
     19 C                     0.025770
     20 C                    -0.144067
     21 C                    -0.143582
     22 C                     0.024351
     23 O                    -0.186659
     24 H                     0.086473
     25 H                     0.084053
     26 H                     0.081503
     27 H                     0.078108
     28 H                     0.073997
     29 H                     0.078132
     30 H                     0.073580
     31 H                     0.090800
     32 O                    -0.212023
     33 C                    -0.147469
     34 C                     0.024823
     35 C                    -0.144285
     36 C                    -0.143589
     37 C                     0.026430
     38 O                    -0.185739
     39 H                     0.084670
     40 H                     0.087766
     41 H                     0.089465
     42 H                     0.091890
     43 H                     0.078889
     44 H                     0.073382
     45 H                     0.078807
     46 H                     0.073890
     47 H                     0.083939
     48 H                     0.078748
     49 H                     0.111042
     50 H                     0.108116
     51 H                     0.083916
     52 H                     0.085209
     53 H                     0.085164
     54 H                     0.103109
     55 H                     0.095157
     56 H                     0.104630
  ----------------------------------------
  Sum of atomic charges =     0.000000

                    Cartesian Multipole Moments
 -----------------------------------------------------------------
    Charge (ESU x 10^10)
                 0.0000
    Dipole Moment (Debye)
         X       0.4418      Y      -0.9462      Z      -2.1193
       Tot       2.3626
    Quadrupole Moments (Debye-Ang)
        XX    -139.1371     XY      13.7941     YY    -160.2071
        XZ       4.1106     YZ       0.9391     ZZ    -164.2300

 Total job time:  155.51s(wall), 7414.99s(cpu)
        *  Thank you very much for using Q-Chem.  Have a nice day.  *
