 Q-Chem 5.0, Q-Chem, Inc., Pleasanton, CA (2017)
 Q-Chem 5.0.1 for Intel X86 EM64T Linux

User input:
--------------------------------------------------------------
$molecule
0  1
O -3.2944591949 1.5813353272 1.2625463828
C -3.9931629399 1.4112998004 0.2399110665
C -4.5677017688 0.0621118663 -0.3141908952
C -3.4636904877 -1.0653268303 -0.4992410093
C -2.0087673139 -0.5423071505 -0.2243068479
O -1.3190243542 -1.4078785796 0.6847701506
C 0.1059095039 -0.9992074565 0.739017217
C 0.9190753755 -1.5436871342 -0.4897916517
O 2.3156983132 -1.0778586433 -0.3291964144
C 2.7068704776 -0.2883307626 -1.4687743917
C 4.1916712934 0.1534317573 -1.2534516139
C 4.3668570823 0.9794891989 0.0923213409
C 2.9957726648 1.3448199505 0.7692293247
O 2.6246887275 1.1299545405 1.9419531518
O -4.4215529534 2.4702545323 -0.624172808
O 2.2156683166 2.0129438849 -0.2331207021
O 1.9769873771 -0.0746000698 -2.4608428159
C 0.895175238 2.4440874725 0.2865020635
C 5.1218365296 -1.0962277425 -0.9356144652
C 6.6309138181 -0.6230569806 -0.9609406731
C 6.7459867078 0.1165016207 0.4248303026
C 5.2623192796 -0.004259926 0.9517318842
O 4.8568321207 -1.3543803387 0.4971597271
H 4.5240780147 0.7205327427 -2.1397094507
H 4.9012668649 1.9268781502 -0.1074754796
H 4.9004077759 -1.9979388326 -1.5391964405
H 7.3062361838 -1.4914704969 -1.0144836003
H 6.8401223057 0.0412205227 -1.8146265299
H 7.4382151801 -0.4068083466 1.1035644571
H 7.0726094451 1.1637700972 0.3236721192
H 5.1243220046 0.0942019348 2.0460863239
O -1.4939592893 0.4759808234 -0.7437260069
C -3.8798903279 3.7619359178 -0.1419942535
C -5.5134477145 -0.6369085645 0.7573351702
C -6.323798903 -1.7864124541 0.0377843189
C -5.2165197258 -2.8951993009 -0.1086297078
C -3.9696784794 -2.1638379821 0.5268123014
O -4.5619874583 -1.3651078746 1.6254782555
H -5.0995797911 0.2731237005 -1.2581522957
H -3.4792546997 -1.4502595984 -1.5362470327
H -2.7707511844 3.7573775574 -0.1331101875
H -6.1249003595 0.0656913426 1.3561475419
H -7.1555014532 -2.1265841386 0.6749008607
H -6.7320171156 -1.4610736401 -0.9325145464
H -5.4691202396 -3.7961740061 0.4728323557
H -5.0407556327 -3.18842127 -1.1560192871
H -3.1692147814 -2.822674576 0.9137255889
H -4.2386369672 3.9999904351 0.8803023785
H -4.2419896607 4.5294776583 -0.8504069992
H 0.0871761413 1.8767458932 -0.2280552153
H 0.7783749253 3.5243251892 0.0729367535
H 0.8418278241 2.2689615588 1.3798669383
H 0.9092253048 -2.6534015734 -0.5030168602
H 0.517110467 -1.1470717572 -1.4479249387
H 0.50790936 -1.4365253021 1.6746852188
H 0.1954308993 0.1001143149 0.7893630509
$end

$rem
JOBTYPE                   OPT
METHOD                    B3LYP
DFT_D                     d3_op
BASIS                     STO-3G
GEOM_OPT_MAX_CYCLES       100
GEOM_OPT_TOL_GRADIENT     300
GEOM_OPT_TOL_DISPLACEMENT 1200
GEOM_OPT_TOL_ENERGY       100
SYMMETRY                  False
THRESH                    12
SCF_CONVERGENCE           8
MAX_SUB_FILE_NUM          128
MEM_STATIC                400
MEM_TOTAL                 4000
$end
--------------------------------------------------------------

   16   -1510.2861055537      6.77E-09 Convergence criterion met
 Total energy in the final basis set = -1510.28610555
   14   -1510.2816538849      5.17E-09 Convergence criterion met
 Total energy in the final basis set = -1510.28165388
   14   -1510.2843028705      3.02E-09 Convergence criterion met
 Total energy in the final basis set = -1510.28430287
   14   -1510.2884673654      3.88E-09 Convergence criterion met
 Total energy in the final basis set = -1510.28846737
   13   -1510.2891349658      9.55E-09 Convergence criterion met
 Total energy in the final basis set = -1510.28913497
   13   -1510.2897218398      3.62E-09 Convergence criterion met
 Total energy in the final basis set = -1510.28972184
   13   -1510.2902942365      6.31E-09 Convergence criterion met
 Total energy in the final basis set = -1510.29029424
   13   -1510.2900045535      6.47E-09 Convergence criterion met
   12   -1510.2987273565      8.21E-09 Convergence criterion met
 Total energy in the final basis set = -1510.29872736
   11   -1510.2987460389      5.76E-09 Convergence criterion met
 Total energy in the final basis set = -1510.29874604
   11   -1510.2987494795      6.39E-09 Convergence criterion met
 Total energy in the final basis set = -1510.29874948
   10   -1510.2987513765      8.48E-09 Convergence criterion met
 Total energy in the final basis set = -1510.29875138
   11   -1510.2987477002      9.66E-09 Convergence criterion met
 Total energy in the final basis set = -1510.29874770
   10   -1510.2987408073      8.37E-09 Convergence criterion met
 Total energy in the final basis set = -1510.29874081

             Standard Nuclear Orientation (Angstroms)
    I     Atom           X                Y                Z
 ----------------------------------------------------------------
    1      O      -3.2668377571     2.2626789282    -0.0329732887
    2      C      -3.0854830311     1.1687320391    -0.6084249058
    3      C      -4.0914877247    -0.0441364904    -0.6335628343
    4      C      -3.5460812676    -1.4080963300    -0.0305946737
    5      C      -2.0744720384    -1.2805393873     0.4680190769
    6      O      -1.3040340143    -2.3484612246    -0.0901871706
    7      C       0.1446867230    -2.0823860227     0.0914088188
    8      C       0.6031224771    -1.0948501674    -1.0391240451
    9      O       1.9572799425    -0.6208620742    -0.6716216939
   10      C       2.3314790802     0.5432727347    -1.4081117205
   11      C       3.7808055755     0.9304326341    -0.9686175784
   12      C       3.9562593003     0.9814346101     0.6070353646
   13      C       2.6192476937     0.7662555489     1.4072584656
   14      O       2.3996761067    -0.0626869007     2.3157462536
   15      O      -1.9418496501     0.8695778526    -1.4242410145
   16      O       1.6872227433     1.7565563773     0.9633695305
   17      O       1.6185716522     1.1091140157    -2.2686907803
   18      C       0.4367779419     1.6899963646     1.7589368474
   19      C       4.8131032485    -0.2251607852    -1.3327609044
   20      C       6.2795635640     0.3345021866    -1.1457965858
   21      C       6.4207226731     0.3095315715     0.4222637352
   22      C       4.9872901907    -0.1977931373     0.8437602477
   23      O       4.6519770403    -1.1800745204    -0.2149328072
   24      H       4.0414669505     1.8895317144    -1.4485781604
   25      H       4.3820893984     1.9548334621     0.9128687693
   26      H       4.6198239065    -0.7245775846    -2.3021676885
   27      H       7.0106370272    -0.3322400129    -1.6298308619
   28      H       6.3922405655     1.3467538967    -1.5659678982
   29      H       7.1928096905    -0.4068843229     0.7455505488
   30      H       6.6550218925     1.2987328472     0.8465147070
   31      H       4.9101278346    -0.6666608384     1.8441329088
   32      O      -1.6208523784    -0.3892245096     1.2216904905
   33      C      -1.1107334100     2.0898412984    -1.5981913073
   34      C      -5.3191974185     0.2423134898     0.3281814226
   35      C      -6.4926559008    -0.7447402790    -0.0456683515
   36      C      -5.9498600077    -2.0984229677     0.5471007814
   37      C      -4.5728957694    -1.6305880428     1.1652432931
   38      O      -4.8481861780    -0.2586327096     1.6410195566
   39      H      -4.4162245005    -0.1914321072    -1.6801308913
   40      H      -3.5937889506    -2.2279836168    -0.7681023545
   41      H      -1.0082803156     2.6396072607    -0.6433224888
   42      H      -5.5874470096     1.3142021087     0.3997511856
   43      H      -7.4282499562    -0.4355745728     0.4466055846
   44      H      -6.6642263686    -0.7942276327    -1.1328489982
   45      H      -6.6117433716    -2.4889019165     1.3363525576
   46      H      -5.8157937888    -2.8772458826    -0.2204510223
   47      H      -4.1879795444    -2.2598577893     1.9911448567
   48      H      -1.5716173855     2.7652411821    -2.3467796412
   49      H      -0.1125701245     1.7470580515    -1.9531235652
   50      H      -0.2054693463     0.8240390315     1.4736367839
   51      H      -0.1054973942     2.6302006314     1.5495997313
   52      H       0.6572468031     1.6263497004     2.8427439192
   53      H       0.6277974993    -1.6116767756    -2.0227808144
   54      H      -0.1324393046    -0.2625464996    -1.1047729486
   55      H       0.6602706047    -3.0590807649     0.0108122465
   56      H       0.3515196076    -1.6295834947     1.0852391111
 ----------------------------------------------------------------

    9   -1510.2987402574      3.62E-09 Convergence criterion met
 Total energy in the final basis set = -1510.29874026
 Final energy is   -1510.29874025736
 **  OPTIMIZATION CONVERGED  **

                    Orbital Energies (a.u.)
 --------------------------------------------------------------

 Alpha MOs
 -- Occupied --
-18.944 -18.942 -18.928 -18.922 -18.889 -18.888 -18.887 -18.884
-18.875 -18.867 -10.111 -10.109 -10.097 -10.094 -10.075 -10.071
-10.063 -10.062 -10.058 -10.057 -10.042 -10.041 -10.040 -10.039
-10.038 -10.035 -10.022 -10.021 -10.021 -10.020  -1.023  -1.018
 -1.006  -1.001  -0.972  -0.970  -0.948  -0.943  -0.932  -0.928
 -0.766  -0.764  -0.731  -0.724  -0.712  -0.706  -0.698  -0.652
 -0.649  -0.618  -0.598  -0.582  -0.547  -0.546  -0.538  -0.537
 -0.518  -0.509  -0.486  -0.477  -0.462  -0.461  -0.454  -0.447
 -0.436  -0.432  -0.430  -0.414  -0.409  -0.407  -0.401  -0.399
 -0.393  -0.379  -0.373  -0.368  -0.361  -0.359  -0.355  -0.352
 -0.342  -0.336  -0.334  -0.332  -0.330  -0.328  -0.325  -0.312
 -0.310  -0.306  -0.305  -0.299  -0.295  -0.289  -0.284  -0.279
 -0.271  -0.258  -0.255  -0.245  -0.243  -0.235  -0.235  -0.187
 -0.181  -0.173  -0.171  -0.161  -0.160  -0.151  -0.146  -0.146
 -0.144

          Ground-State Mulliken Net Atomic Charges

     Atom                 Charge (a.u.)
  ----------------------------------------
      1 O                    -0.208280
      2 C                     0.211237
      3 C                    -0.078584
      4 C                    -0.079547
      5 C                     0.217724
      6 O                    -0.168441
      7 C                    -0.050161
      8 C                    -0.054624
      9 O                    -0.166926
     10 C                     0.221312
     11 C                    -0.078016
     12 C                    -0.078311
     13 C                     0.213494
     14 O                    -0.216639
     15 O                    -0.181177
     16 O                    -0.180040
     17 O                    -0.215928
     18 C                    -0.145676
     19 C                     0.025764
     20 C                    -0.144049
     21 C                    -0.143584
     22 C                     0.024323
     23 O                    -0.186652
     24 H                     0.086463
     25 H                     0.084039
     26 H                     0.081497
     27 H                     0.078093
     28 H                     0.073978
     29 H                     0.078127
     30 H                     0.073566
     31 H                     0.090820
     32 O                    -0.211997
     33 C                    -0.147495
     34 C                     0.024803
     35 C                    -0.144255
     36 C                    -0.143613
     37 C                     0.026444
     38 O                    -0.185744
     39 H                     0.084679
     40 H                     0.087789
     41 H                     0.089553
     42 H                     0.091912
     43 H                     0.078898
     44 H                     0.073386
     45 H                     0.078816
     46 H                     0.073892
     47 H                     0.083948
     48 H                     0.078697
     49 H                     0.111037
     50 H                     0.108228
     51 H                     0.083902
     52 H                     0.085163
     53 H                     0.085159
     54 H                     0.103145
     55 H                     0.095085
     56 H                     0.104764
  ----------------------------------------
  Sum of atomic charges =     0.000000

                    Cartesian Multipole Moments
 -----------------------------------------------------------------
    Charge (ESU x 10^10)
                 0.0000
    Dipole Moment (Debye)
         X       0.4252      Y      -0.9410      Z      -2.1250
       Tot       2.3626
    Quadrupole Moments (Debye-Ang)
        XX    -139.1541     XY      13.7696     YY    -160.0363
        XZ       4.1390     YZ       1.0199     ZZ    -164.3132

 Total job time:  127.25s(wall), 6066.86s(cpu)
        *  Thank you very much for using Q-Chem.  Have a nice day.  *
