 Q-Chem 5.0, Q-Chem, Inc., Pleasanton, CA (2017)
 Q-Chem 5.0.1 for Intel X86 EM64T Linux

User input:
--------------------------------------------------------------
$molecule
0  1
O -3.94934 -3.66094 2.70899
C -3.26408 -4.56952 2.26188
C -3.36658 -6.02376 2.66595
C -3.28771 -6.34293 4.16787
C -3.29375 -5.15956 5.11004
O -4.23173 -5.34739 6.0849
C -4.15953 -4.37294 7.13108
C -3.03816 -4.72672 8.10243
O -2.97079 -3.74653 9.15009
C -1.78379 -3.1017 9.26986
C -1.76924 -2.10117 10.40096
C -2.84011 -1.00434 10.30878
C -3.96723 -1.26197 9.32901
O -5.15998 -1.22116 9.59405
O -2.29931 -4.27066 1.35239
O -3.60862 -1.18729 8.01964
O -0.80395 -3.29109 8.55959
C -4.47941 -0.8388 7.0037
C -2.09543 -2.70787 11.7797
C -1.48742 -1.83556 12.87581
C -2.36625 -0.60447 12.77558
C -3.39718 -1.08517 11.74535
O -3.4717 -2.47494 11.95541
H -0.74382 -1.66609 10.43685
H -2.40921 -0.00974 10.05898
H -1.75748 -3.76174 11.88765
H -1.69824 -2.3462 13.84303
H -0.39552 -1.64535 12.79579
H -2.83833 -0.43033 13.76786
H -1.85348 0.31838 12.42753
H -4.34766 -0.5208 11.86682
O -2.43512 -4.28421 5.10628
C -2.04446 -3.00073 0.87858
C -4.74708 -6.62105 2.32203
C -4.61774 -8.12745 2.1196
C -4.34972 -8.57589 3.53952
C -4.53997 -7.24999 4.29097
O -5.48221 -6.54831 3.51988
H -2.59072 -6.57762 2.08818
H -2.35112 -6.89637 4.40021
H -1.7539 -2.33096 1.71611
H -5.22001 -6.15459 1.42978
H -5.624 -8.49449 1.8136
H -3.86733 -8.4561 1.36879
H -5.12821 -9.31863 3.82315
H -3.33704 -8.9967 3.72125
H -4.83004 -7.47814 5.33886
H -2.94388 -2.59527 0.36765
H -1.20909 -3.045 0.1501
H -3.94372 -0.88019 6.03305
H -4.84777 0.19713 7.16223
H -5.34917 -1.52913 6.97161
H -3.26269 -5.71456 8.55807
H -2.09284 -4.8562 7.53582
H -5.11737 -4.37787 7.69321
H -4.02373 -3.36305 6.70911
$end

$opt
CONSTRAINT
tors           1           2           3           4     -52.792
tors           3           4           5           6    +129.819
tors           4           5           6           7    +170.931
tors           5           6           7           8     -79.720
tors           6           7           8           9    -179.965
tors           7           8           9          10    -121.459
tors           8           9          10          11    -179.090
tors           9          10          11          12     -58.185
tors          11          12          13          14    +126.717
ENDCONSTRAINT
$end

$rem
JOBTYPE                   OPT
METHOD                    B3LYP
DFT_D                     d3_op
BASIS                     STO-3G
GEOM_OPT_MAX_CYCLES       100
GEOM_OPT_TOL_GRADIENT     300
GEOM_OPT_TOL_DISPLACEMENT 1200
GEOM_OPT_TOL_ENERGY       100
SYMMETRY                  False
THRESH                    12
SCF_CONVERGENCE           8
MAX_SUB_FILE_NUM          128
MEM_STATIC                400
MEM_TOTAL                 4000
$end
--------------------------------------------------------------

   15   -1510.1547773362      6.17E-09 Convergence criterion met
 Total energy in the final basis set = -1510.15477734
   14   -1510.2231940954      7.03E-09 Convergence criterion met
 Total energy in the final basis set = -1510.22319410
   15   -1510.2588536692      1.20E-09 Convergence criterion met
 Total energy in the final basis set = -1510.25885367
   14   -1510.2731350845      9.08E-09 Convergence criterion met
 Total energy in the final basis set = -1510.27313508
   14   -1510.2758946493      6.95E-09 Convergence criterion met
 Total energy in the final basis set = -1510.27589465
   13   -1510.2788360452      6.98E-09 Convergence criterion met
 Total energy in the final basis set = -1510.27883605
   12   -1510.2799594266      6.33E-09 Convergence criterion met
 Total energy in the final basis set = -1510.27995943
   12   -1510.2811959775      7.88E-09 Convergence criterion met
   12   -1510.2858607013      3.53E-09 Convergence criterion met
 Total energy in the final basis set = -1510.28586070
   10   -1510.2858948785      8.19E-09 Convergence criterion met
 Total energy in the final basis set = -1510.28589488
   11   -1510.2859392936      5.80E-09 Convergence criterion met
 Total energy in the final basis set = -1510.28593929
   11   -1510.2859586985      5.89E-09 Convergence criterion met
 Total energy in the final basis set = -1510.28595870
   10   -1510.2859655559      8.49E-09 Convergence criterion met
 Total energy in the final basis set = -1510.28596556
    9   -1510.2859669325      7.45E-09 Convergence criterion met
 Total energy in the final basis set = -1510.28596693

             Standard Nuclear Orientation (Angstroms)
    I     Atom           X                Y                Z
 ----------------------------------------------------------------
    1      O      -3.2944591949     1.5813353272     1.2625463828
    2      C      -3.9931629399     1.4112998004     0.2399110665
    3      C      -4.5677017688     0.0621118663    -0.3141908952
    4      C      -3.4636904877    -1.0653268303    -0.4992410093
    5      C      -2.0087673139    -0.5423071505    -0.2243068479
    6      O      -1.3190243542    -1.4078785796     0.6847701506
    7      C       0.1059095039    -0.9992074565     0.7390172170
    8      C       0.9190753755    -1.5436871342    -0.4897916517
    9      O       2.3156983132    -1.0778586433    -0.3291964144
   10      C       2.7068704776    -0.2883307626    -1.4687743917
   11      C       4.1916712934     0.1534317573    -1.2534516139
   12      C       4.3668570823     0.9794891989     0.0923213409
   13      C       2.9957726648     1.3448199505     0.7692293247
   14      O       2.6246887275     1.1299545405     1.9419531518
   15      O      -4.4215529534     2.4702545323    -0.6241728080
   16      O       2.2156683166     2.0129438849    -0.2331207021
   17      O       1.9769873771    -0.0746000698    -2.4608428159
   18      C       0.8951752380     2.4440874725     0.2865020635
   19      C       5.1218365296    -1.0962277425    -0.9356144652
   20      C       6.6309138181    -0.6230569806    -0.9609406731
   21      C       6.7459867078     0.1165016207     0.4248303026
   22      C       5.2623192796    -0.0042599260     0.9517318842
   23      O       4.8568321207    -1.3543803387     0.4971597271
   24      H       4.5240780147     0.7205327427    -2.1397094507
   25      H       4.9012668649     1.9268781502    -0.1074754796
   26      H       4.9004077759    -1.9979388326    -1.5391964405
   27      H       7.3062361838    -1.4914704969    -1.0144836003
   28      H       6.8401223057     0.0412205227    -1.8146265299
   29      H       7.4382151801    -0.4068083466     1.1035644571
   30      H       7.0726094451     1.1637700972     0.3236721192
   31      H       5.1243220046     0.0942019348     2.0460863239
   32      O      -1.4939592893     0.4759808234    -0.7437260069
   33      C      -3.8798903279     3.7619359178    -0.1419942535
   34      C      -5.5134477145    -0.6369085645     0.7573351702
   35      C      -6.3237989030    -1.7864124541     0.0377843189
   36      C      -5.2165197258    -2.8951993009    -0.1086297078
   37      C      -3.9696784794    -2.1638379821     0.5268123014
   38      O      -4.5619874583    -1.3651078746     1.6254782555
   39      H      -5.0995797911     0.2731237005    -1.2581522957
   40      H      -3.4792546997    -1.4502595984    -1.5362470327
   41      H      -2.7707511844     3.7573775574    -0.1331101875
   42      H      -6.1249003595     0.0656913426     1.3561475419
   43      H      -7.1555014532    -2.1265841386     0.6749008607
   44      H      -6.7320171156    -1.4610736401    -0.9325145464
   45      H      -5.4691202396    -3.7961740061     0.4728323557
   46      H      -5.0407556327    -3.1884212700    -1.1560192871
   47      H      -3.1692147814    -2.8226745760     0.9137255889
   48      H      -4.2386369672     3.9999904351     0.8803023785
   49      H      -4.2419896607     4.5294776583    -0.8504069992
   50      H       0.0871761413     1.8767458932    -0.2280552153
   51      H       0.7783749253     3.5243251892     0.0729367535
   52      H       0.8418278241     2.2689615588     1.3798669383
   53      H       0.9092253048    -2.6534015734    -0.5030168602
   54      H       0.5171104670    -1.1470717572    -1.4479249387
   55      H       0.5079093600    -1.4365253021     1.6746852188
   56      H       0.1954308993     0.1001143149     0.7893630509
 ----------------------------------------------------------------

    9   -1510.2859676757      2.47E-09 Convergence criterion met
 Total energy in the final basis set = -1510.28596768
 Final energy is   -1510.28596767570
 **  OPTIMIZATION CONVERGED  **

                    Orbital Energies (a.u.)
 --------------------------------------------------------------

 Alpha MOs
 -- Occupied --
-18.940 -18.932 -18.929 -18.928 -18.887 -18.887 -18.877 -18.876
-18.876 -18.869 -10.104 -10.099 -10.097 -10.095 -10.066 -10.063
-10.062 -10.060 -10.060 -10.058 -10.057 -10.048 -10.040 -10.038
-10.036 -10.036 -10.021 -10.020 -10.019 -10.019  -1.017  -1.012
 -1.007  -1.003  -0.970  -0.969  -0.941  -0.935  -0.933  -0.931
 -0.764  -0.762  -0.727  -0.722  -0.712  -0.705  -0.692  -0.661
 -0.656  -0.613  -0.596  -0.581  -0.546  -0.545  -0.537  -0.536
 -0.512  -0.509  -0.482  -0.479  -0.464  -0.460  -0.451  -0.440
 -0.434  -0.431  -0.428  -0.411  -0.410  -0.408  -0.404  -0.397
 -0.391  -0.376  -0.373  -0.369  -0.361  -0.358  -0.356  -0.348
 -0.344  -0.342  -0.332  -0.330  -0.329  -0.325  -0.322  -0.310
 -0.309  -0.305  -0.303  -0.297  -0.291  -0.288  -0.287  -0.277
 -0.273  -0.256  -0.250  -0.245  -0.243  -0.233  -0.233  -0.186
 -0.174  -0.173  -0.165  -0.160  -0.158  -0.152  -0.148  -0.143
 -0.142

          Ground-State Mulliken Net Atomic Charges

     Atom                 Charge (a.u.)
  ----------------------------------------
      1 O                    -0.213861
      2 C                     0.209366
      3 C                    -0.079360
      4 C                    -0.078318
      5 C                     0.214347
      6 O                    -0.165189
      7 C                    -0.052731
      8 C                    -0.059155
      9 O                    -0.169915
     10 C                     0.212324
     11 C                    -0.077072
     12 C                    -0.077051
     13 C                     0.212464
     14 O                    -0.212470
     15 O                    -0.168821
     16 O                    -0.175109
     17 O                    -0.210900
     18 C                    -0.144514
     19 C                     0.026302
     20 C                    -0.144419
     21 C                    -0.143211
     22 C                     0.024479
     23 O                    -0.184746
     24 H                     0.087050
     25 H                     0.084486
     26 H                     0.082317
     27 H                     0.077939
     28 H                     0.073636
     29 H                     0.078050
     30 H                     0.072992
     31 H                     0.090079
     32 O                    -0.219225
     33 C                    -0.128426
     34 C                     0.025877
     35 C                    -0.144128
     36 C                    -0.144019
     37 C                     0.023506
     38 O                    -0.186370
     39 H                     0.086563
     40 H                     0.085476
     41 H                     0.090427
     42 H                     0.082940
     43 H                     0.078195
     44 H                     0.073849
     45 H                     0.078286
     46 H                     0.072832
     47 H                     0.093081
     48 H                     0.088199
     49 H                     0.089823
     50 H                     0.103269
     51 H                     0.083888
     52 H                     0.096483
     53 H                     0.084216
     54 H                     0.101285
     55 H                     0.095629
     56 H                     0.099350
  ----------------------------------------
  Sum of atomic charges =    -0.000000

                    Cartesian Multipole Moments
 -----------------------------------------------------------------
    Charge (ESU x 10^10)
                -0.0000
    Dipole Moment (Debye)
         X      -0.1196      Y       0.2085      Z      -1.9387
       Tot       1.9535
    Quadrupole Moments (Debye-Ang)
        XX    -134.6247     XY       4.5895     YY    -150.2280
        XZ       1.6805     YZ       4.9941     ZZ    -170.5812

 Total job time:  72.52s(wall), 3452.67s(cpu)
        *  Thank you very much for using Q-Chem.  Have a nice day.  *
