 Q-Chem 5.0, Q-Chem, Inc., Pleasanton, CA (2017)
 Q-Chem 5.0.1 for Intel X86 EM64T Linux

User input:
--------------------------------------------------------------
$molecule
0  1
O -3.4282961537 1.6288331196 1.2723690762
C -4.0935211572 1.3796710467 0.2435817609
C -4.6714519313 -0.0046971219 -0.210393534
C -3.5356793586 -1.0683650649 -0.5435341967
C -2.0904203301 -0.4836130126 -0.3385398331
O -1.3776588471 -1.2408296808 0.6461751221
C 0.0400753405 -0.8080145014 0.6580641374
C 0.8573209878 -1.4592262202 -0.5152659419
O 2.2767848896 -1.0857690126 -0.3209159188
C 2.7627484617 -0.3577136019 -1.4624047151
C 4.2651321722 -0.0092954956 -1.1985110267
C 4.4341104214 1.0018941153 0.0177201819
C 3.0639941963 1.5104058551 0.5938352672
O 2.6528600354 1.4594467227 1.7722407361
O -4.4472137022 2.3582263315 -0.7408024935
O 2.3355723916 2.0789078461 -0.5034620838
O 2.0902594208 -0.1301547268 -2.4914176128
C 1.0195366231 2.6057217343 -0.0705282276
C 5.0789538326 -1.2559078721 -0.6444739363
C 6.6195494747 -0.9009259332 -0.675617708
C 6.742319285 0.0507911951 0.5733275468
C 5.2399662041 0.1130070349 1.0519549892
O 4.7486372308 -1.2617487482 0.7985746471
H 4.6934213078 0.3986182407 -2.1305134127
H 5.0202999046 1.88532448 -0.2954506896
H 4.8082233496 -2.2241700724 -1.1081341491
H 7.2270820189 -1.8116835265 -0.5532404944
H 6.9109012035 -0.4065634461 -1.6161232348
H 7.376998601 -0.3929488921 1.3568382783
H 7.1417722335 1.0446108244 0.3152517731
H 5.0766083007 0.3925407064 2.1109188402
O -1.6074954296 0.503930303 -0.9398585461
C -3.850825383 3.6668278591 -0.3859508215
C -5.4344555119 -0.7522585801 0.9684537198
C -6.3080935911 -1.9042404685 0.3306696558
C -5.1979178985 -2.9593262662 -0.0310109324
C -3.8960627395 -2.2231771808 0.4776813443
O -4.3575695221 -1.4817272953 1.6744822298
H -5.3285123762 0.1640433531 -1.0813288054
H -3.613023607 -1.4054658861 -1.5938122852
H -2.7429060139 3.6138446905 -0.3716901231
H -5.9703021968 -0.0816940183 1.6677998582
H -7.0201797121 -2.3027827784 1.0708668372
H -6.8709114989 -1.5586327346 -0.5510274609
H -5.3443754681 -3.9037264804 0.5169674278
H -5.156339851 -3.1797785133 -1.109710353
H -3.0443282978 -2.8806262097 0.7344336658
H -4.1995712128 4.0212027383 0.6056345674
H -4.1775850806 4.3749231909 -1.1695000955
H 0.2112333746 2.0469263138 -0.5890705819
H 0.9613230725 3.6757563529 -0.3501295538
H 0.9143621162 2.496158545 1.0278404536
H 0.7706797706 -2.5652768024 -0.4778263691
H 0.5147717084 -1.0833430422 -1.5041337898
H 0.4510106282 -1.1468118089 1.6301318108
H 0.1106607166 0.2936282762 0.5970984768
$end

$rem
JOBTYPE                   OPT
METHOD                    B3LYP
DFT_D                     d3_op
BASIS                     STO-3G
GEOM_OPT_MAX_CYCLES       100
GEOM_OPT_TOL_GRADIENT     300
GEOM_OPT_TOL_DISPLACEMENT 1200
GEOM_OPT_TOL_ENERGY       100
SYMMETRY                  False
THRESH                    12
SCF_CONVERGENCE           8
MAX_SUB_FILE_NUM          128
MEM_STATIC                400
MEM_TOTAL                 4000
$end
--------------------------------------------------------------

   16   -1510.2848674220      7.32E-09 Convergence criterion met
 Total energy in the final basis set = -1510.28486742
   14   -1510.2827749895      6.08E-09 Convergence criterion met
 Total energy in the final basis set = -1510.28277499
   14   -1510.2860628847      3.21E-09 Convergence criterion met
 Total energy in the final basis set = -1510.28606288
   14   -1510.2871723349      4.05E-09 Convergence criterion met
 Total energy in the final basis set = -1510.28717233
   13   -1510.2886822874      7.65E-09 Convergence criterion met
 Total energy in the final basis set = -1510.28868229
   13   -1510.2894168887      7.81E-09 Convergence criterion met
 Total energy in the final basis set = -1510.28941689
   13   -1510.2900886825      4.82E-09 Convergence criterion met
 Total energy in the final basis set = -1510.29008868
   13   -1510.2900599279      8.45E-09 Convergence criterion met
   11   -1510.2988033845      7.36E-09 Convergence criterion met
 Total energy in the final basis set = -1510.29880338
    9   -1510.2988026563      5.88E-09 Convergence criterion met
 Total energy in the final basis set = -1510.29880266
   10   -1510.2987961477      9.10E-09 Convergence criterion met
 Total energy in the final basis set = -1510.29879615
    9   -1510.2987949966      2.91E-09 Convergence criterion met
 Total energy in the final basis set = -1510.29879500
    9   -1510.2987933222      4.26E-09 Convergence criterion met
 Total energy in the final basis set = -1510.29879332
    9   -1510.2987921498      3.00E-09 Convergence criterion met
 Total energy in the final basis set = -1510.29879215

             Standard Nuclear Orientation (Angstroms)
    I     Atom           X                Y                Z
 ----------------------------------------------------------------
    1      O      -3.2698095756     2.2875412566    -0.0069746260
    2      C      -3.0875867961     1.2006910737    -0.5955507781
    3      C      -4.0968204280    -0.0088963334    -0.6424741242
    4      C      -3.5589117928    -1.3804217643    -0.0500253121
    5      C      -2.0874442228    -1.2655018463     0.4522508190
    6      O      -1.3232965041    -2.3336442013    -0.1140283891
    7      C       0.1269571140    -2.0810258095     0.0734189520
    8      C       0.5968033925    -1.0858487372    -1.0457399792
    9      O       1.9578609937    -0.6355541084    -0.6750631457
   10      C       2.3413190999     0.5436461223    -1.3826696989
   11      C       3.7975648857     0.9009292690    -0.9401316524
   12      C       3.9794870307     0.9094380856     0.6356143960
   13      C       2.6410327455     0.6934081954     1.4333615130
   14      O       2.4102857640    -0.1534013201     2.3223562909
   15      O      -1.9385167644     0.9088787986    -1.4059487766
   16      O       1.7224621181     1.7063567347     1.0127638890
   17      O       1.6310967744     1.1403901316    -2.2242361494
   18      C       0.4705747168     1.6391701524     1.8059791149
   19      C       4.8114854772    -0.2598202750    -1.3377597834
   20      C       6.2866008156     0.2739017644    -1.1436287824
   21      C       6.4336035171     0.2081569095     0.4227253681
   22      C       4.9949519915    -0.2897767854     0.8379856006
   23      O       4.6411735973    -1.2400164580    -0.2435060516
   24      H       4.0695010434     1.8680439486    -1.3972124367
   25      H       4.4195857704     1.8687398861     0.9647720789
   26      H       4.6065622694    -0.7317901755    -2.3183997711
   27      H       7.0060170106    -0.3911617544    -1.6470361738
   28      H       6.4119021178     1.2943878318    -1.5394890974
   29      H       7.1969445920    -0.5266841804     0.7246716793
   30      H       6.6835695520     1.1830687807     0.8703960704
   31      H       4.9156982399    -0.7828018462     1.8265048058
   32      O      -1.6296758251    -0.3837508078     1.2146482041
   33      C      -1.0955468452     2.1256446163    -1.5442605138
   34      C      -5.3291262886     0.2712254073     0.3149242541
   35      C      -6.5022478504    -0.7113693729    -0.0719671635
   36      C      -5.9656224906    -2.0698402345     0.5154763666
   37      C      -4.5897859977    -1.6092221082     1.1412962860
   38      O      -4.8644876467    -0.2402961858     1.6259871034
   39      H      -4.4147049119    -0.1439506120    -1.6927718800
   40      H      -3.6089368729    -2.1934431641    -0.7949863038
   41      H      -0.9923878266     2.6488289393    -0.5746261419
   42      H      -5.5964592381     1.3428268975     0.3936720658
   43      H      -7.4402844403    -0.4035046379     0.4164346353
   44      H      -6.6671684199    -0.7537373389    -1.1604760165
   45      H      -6.6315449266    -2.4624350906     1.3002951249
   46      H      -5.8311360761    -2.8450728327    -0.2556115280
   47      H      -4.2086440511    -2.2450116257     1.9639539006
   48      H      -1.5464661077     2.8251600619    -2.2765946396
   49      H      -0.0988736490     1.7831896778    -1.9035742923
   50      H      -0.1871750218     0.7935546451     1.4959210833
   51      H      -0.0546817098     2.5945131116     1.6234139444
   52      H       0.6893524141     1.5405110378     2.8875086816
   53      H       0.6130617508    -1.5913552692    -2.0354706545
   54      H      -0.1269302262    -0.2427987715    -1.1004076281
   55      H       0.6348407803    -3.0609595831    -0.0165052855
   56      H       0.3357367360    -1.6409143289     1.0725268215
 ----------------------------------------------------------------

    9   -1510.2987917221      1.31E-09 Convergence criterion met
 Total energy in the final basis set = -1510.29879172
 Final energy is   -1510.29879172207
 **  OPTIMIZATION CONVERGED  **

                    Orbital Energies (a.u.)
 --------------------------------------------------------------

 Alpha MOs
 -- Occupied --
-18.944 -18.942 -18.928 -18.922 -18.889 -18.888 -18.887 -18.884
-18.874 -18.867 -10.111 -10.109 -10.097 -10.094 -10.075 -10.071
-10.063 -10.063 -10.058 -10.057 -10.042 -10.041 -10.040 -10.039
-10.039 -10.035 -10.022 -10.022 -10.021 -10.020  -1.023  -1.018
 -1.006  -1.001  -0.972  -0.970  -0.948  -0.943  -0.932  -0.928
 -0.766  -0.764  -0.731  -0.724  -0.712  -0.706  -0.698  -0.652
 -0.649  -0.618  -0.598  -0.582  -0.547  -0.546  -0.538  -0.537
 -0.518  -0.509  -0.486  -0.477  -0.463  -0.461  -0.454  -0.447
 -0.436  -0.432  -0.430  -0.414  -0.409  -0.407  -0.401  -0.399
 -0.393  -0.379  -0.373  -0.368  -0.361  -0.359  -0.355  -0.352
 -0.342  -0.336  -0.334  -0.332  -0.330  -0.328  -0.325  -0.312
 -0.310  -0.306  -0.305  -0.299  -0.295  -0.289  -0.284  -0.279
 -0.271  -0.258  -0.255  -0.245  -0.243  -0.235  -0.235  -0.187
 -0.181  -0.173  -0.171  -0.161  -0.160  -0.151  -0.147  -0.145
 -0.144

          Ground-State Mulliken Net Atomic Charges

     Atom                 Charge (a.u.)
  ----------------------------------------
      1 O                    -0.208425
      2 C                     0.211177
      3 C                    -0.078602
      4 C                    -0.079582
      5 C                     0.217771
      6 O                    -0.168458
      7 C                    -0.050115
      8 C                    -0.054502
      9 O                    -0.167078
     10 C                     0.221417
     11 C                    -0.077968
     12 C                    -0.078265
     13 C                     0.213535
     14 O                    -0.216676
     15 O                    -0.181123
     16 O                    -0.180013
     17 O                    -0.215810
     18 C                    -0.145707
     19 C                     0.025774
     20 C                    -0.144064
     21 C                    -0.143596
     22 C                     0.024370
     23 O                    -0.186641
     24 H                     0.086477
     25 H                     0.084074
     26 H                     0.081515
     27 H                     0.078110
     28 H                     0.074009
     29 H                     0.078141
     30 H                     0.073595
     31 H                     0.090771
     32 O                    -0.212053
     33 C                    -0.147435
     34 C                     0.024828
     35 C                    -0.144291
     36 C                    -0.143581
     37 C                     0.026431
     38 O                    -0.185769
     39 H                     0.084663
     40 H                     0.087750
     41 H                     0.089419
     42 H                     0.091918
     43 H                     0.078888
     44 H                     0.073380
     45 H                     0.078802
     46 H                     0.073890
     47 H                     0.083930
     48 H                     0.078811
     49 H                     0.111039
     50 H                     0.108094
     51 H                     0.083889
     52 H                     0.085226
     53 H                     0.085172
     54 H                     0.103103
     55 H                     0.095188
     56 H                     0.104596
  ----------------------------------------
  Sum of atomic charges =     0.000000

                    Cartesian Multipole Moments
 -----------------------------------------------------------------
    Charge (ESU x 10^10)
                 0.0000
    Dipole Moment (Debye)
         X       0.4606      Y      -0.9363      Z      -2.1175
       Tot       2.3606
    Quadrupole Moments (Debye-Ang)
        XX    -139.0275     XY      13.6332     YY    -160.4638
        XZ       4.4219     YZ       1.0749     ZZ    -164.1283

 Total job time:  131.30s(wall), 6256.76s(cpu)
        *  Thank you very much for using Q-Chem.  Have a nice day.  *
