 Q-Chem 5.0, Q-Chem, Inc., Pleasanton, CA (2017)
 Q-Chem 5.0.1 for Intel X86 EM64T Linux

User input:
--------------------------------------------------------------
$molecule
0  1
O -3.94934 -3.66094 2.70899
C -3.26408 -4.56952 2.26188
C -3.36658 -6.02376 2.66595
C -3.00841 -6.37619 4.119
C -2.75935 -5.21298 5.05334
O -3.64952 -5.2505 6.08853
C -3.35075 -4.30676 7.12262
C -2.24105 -4.84432 8.02025
O -2.04575 -3.96357 9.13784
C -0.80294 -3.43294 9.25186
C -0.65726 -2.52842 10.45239
C -1.49849 -1.24466 10.40153
C -2.60441 -1.21996 9.36566
O -3.78428 -0.99531 9.59369
O -2.36965 -4.28609 1.27836
O -2.18702 -1.17627 8.0724
O 0.14758 -3.71033 8.53074
C -2.95283 -0.68621 7.03176
C -1.13601 -3.14151 11.78159
C -0.42273 -2.45634 12.94521
C -1.06504 -1.08362 12.90129
C -2.12206 -1.30729 11.81156
O -2.45382 -2.6707 11.93114
H 0.42646 -2.28175 10.53617
H -0.87731 -0.33717 10.23425
H -0.99762 -4.24361 11.83225
H -0.75385 -2.97497 13.87363
H 0.68766 -2.46099 12.90202
H -1.54131 -0.88901 13.88778
H -0.38258 -0.24786 12.634
H -2.95934 -0.58681 11.93998
O -1.83686 -4.4157 4.92825
C -2.15143 -3.0243 0.76608
C -4.80286 -6.5695 2.57029
C -4.76653 -8.0785 2.34773
C -4.2788 -8.54837 3.70122
C -4.2637 -7.21966 4.4705
O -5.30174 -6.47406 3.8828
H -2.71182 -6.59115 1.96451
H -2.0871 -6.9976 4.17201
H -1.80134 -2.34089 1.56913
H -5.40862 -6.07718 1.77801
H -5.82151 -8.41002 2.2145
H -4.16338 -8.42279 1.48023
H -5.03808 -9.24407 4.12289
H -3.27771 -9.03132 3.70429
H -4.36183 -7.43646 5.55622
H -3.08599 -2.6271 0.31527
H -1.37135 -3.08086 -0.02053
H -2.39316 -0.80101 6.08084
H -3.16171 0.3926 7.19435
H -3.91819 -1.22973 6.95711
H -2.55517 -5.83323 8.41716
H -1.33547 -5.02468 7.40316
H -4.25963 -4.18933 7.75023
H -3.10282 -3.31357 6.70716
$end

$opt
CONSTRAINT
tors           1           2           3           4     -64.775
tors           3           4           5           6    +119.872
tors           4           5           6           7    +170.931
tors           5           6           7           8     -79.720
tors           6           7           8           9    -173.748
tors           7           8           9          10    -120.581
tors           8           9          10          11    -179.408
tors           9          10          11          12     -65.831
tors          11          12          13          14    +125.263
ENDCONSTRAINT
$end

$rem
JOBTYPE                   OPT
METHOD                    B3LYP
DFT_D                     d3_op
BASIS                     STO-3G
GEOM_OPT_MAX_CYCLES       100
GEOM_OPT_TOL_GRADIENT     300
GEOM_OPT_TOL_DISPLACEMENT 1200
GEOM_OPT_TOL_ENERGY       100
SYMMETRY                  False
THRESH                    12
SCF_CONVERGENCE           8
MAX_SUB_FILE_NUM          128
MEM_STATIC                400
MEM_TOTAL                 4000
$end
--------------------------------------------------------------

   15   -1510.1573387327      6.27E-09 Convergence criterion met
 Total energy in the final basis set = -1510.15733873
   14   -1510.2255558341      8.07E-09 Convergence criterion met
 Total energy in the final basis set = -1510.22555583
   15   -1510.2612084628      1.23E-09 Convergence criterion met
 Total energy in the final basis set = -1510.26120846
   14   -1510.2757713390      8.88E-09 Convergence criterion met
 Total energy in the final basis set = -1510.27577134
   14   -1510.2768555092      4.84E-09 Convergence criterion met
 Total energy in the final basis set = -1510.27685551
   14   -1510.2794551406      2.85E-09 Convergence criterion met
 Total energy in the final basis set = -1510.27945514
   13   -1510.2808101982      7.04E-09 Convergence criterion met
 Total energy in the final basis set = -1510.28081020
   12   -1510.2814439371      8.01E-09 Convergence criterion met
   11   -1510.2849048673      7.56E-09 Convergence criterion met
 Total energy in the final basis set = -1510.28490487
   11   -1510.2849654163      6.59E-09 Convergence criterion met
 Total energy in the final basis set = -1510.28496542
   12   -1510.2850187468      3.49E-09 Convergence criterion met
 Total energy in the final basis set = -1510.28501875
   11   -1510.2850425587      5.65E-09 Convergence criterion met
 Total energy in the final basis set = -1510.28504256
   11   -1510.2850359631      3.41E-09 Convergence criterion met
 Total energy in the final basis set = -1510.28503596
   10   -1510.2850328670      8.44E-09 Convergence criterion met
 Total energy in the final basis set = -1510.28503287

             Standard Nuclear Orientation (Angstroms)
    I     Atom           X                Y                Z
 ----------------------------------------------------------------
    1      O      -3.4282961537     1.6288331196     1.2723690762
    2      C      -4.0935211572     1.3796710467     0.2435817609
    3      C      -4.6714519313    -0.0046971219    -0.2103935340
    4      C      -3.5356793586    -1.0683650649    -0.5435341967
    5      C      -2.0904203301    -0.4836130126    -0.3385398331
    6      O      -1.3776588471    -1.2408296808     0.6461751221
    7      C       0.0400753405    -0.8080145014     0.6580641374
    8      C       0.8573209878    -1.4592262202    -0.5152659419
    9      O       2.2767848896    -1.0857690126    -0.3209159188
   10      C       2.7627484617    -0.3577136019    -1.4624047151
   11      C       4.2651321722    -0.0092954956    -1.1985110267
   12      C       4.4341104214     1.0018941153     0.0177201819
   13      C       3.0639941963     1.5104058551     0.5938352672
   14      O       2.6528600354     1.4594467227     1.7722407361
   15      O      -4.4472137022     2.3582263315    -0.7408024935
   16      O       2.3355723916     2.0789078461    -0.5034620838
   17      O       2.0902594208    -0.1301547268    -2.4914176128
   18      C       1.0195366231     2.6057217343    -0.0705282276
   19      C       5.0789538326    -1.2559078721    -0.6444739363
   20      C       6.6195494747    -0.9009259332    -0.6756177080
   21      C       6.7423192850     0.0507911951     0.5733275468
   22      C       5.2399662041     0.1130070349     1.0519549892
   23      O       4.7486372308    -1.2617487482     0.7985746471
   24      H       4.6934213078     0.3986182407    -2.1305134127
   25      H       5.0202999046     1.8853244800    -0.2954506896
   26      H       4.8082233496    -2.2241700724    -1.1081341491
   27      H       7.2270820189    -1.8116835265    -0.5532404944
   28      H       6.9109012035    -0.4065634461    -1.6161232348
   29      H       7.3769986010    -0.3929488921     1.3568382783
   30      H       7.1417722335     1.0446108244     0.3152517731
   31      H       5.0766083007     0.3925407064     2.1109188402
   32      O      -1.6074954296     0.5039303030    -0.9398585461
   33      C      -3.8508253830     3.6668278591    -0.3859508215
   34      C      -5.4344555119    -0.7522585801     0.9684537198
   35      C      -6.3080935911    -1.9042404685     0.3306696558
   36      C      -5.1979178985    -2.9593262662    -0.0310109324
   37      C      -3.8960627395    -2.2231771808     0.4776813443
   38      O      -4.3575695221    -1.4817272953     1.6744822298
   39      H      -5.3285123762     0.1640433531    -1.0813288054
   40      H      -3.6130236070    -1.4054658861    -1.5938122852
   41      H      -2.7429060139     3.6138446905    -0.3716901231
   42      H      -5.9703021968    -0.0816940183     1.6677998582
   43      H      -7.0201797121    -2.3027827784     1.0708668372
   44      H      -6.8709114989    -1.5586327346    -0.5510274609
   45      H      -5.3443754681    -3.9037264804     0.5169674278
   46      H      -5.1563398510    -3.1797785133    -1.1097103530
   47      H      -3.0443282978    -2.8806262097     0.7344336658
   48      H      -4.1995712128     4.0212027383     0.6056345674
   49      H      -4.1775850806     4.3749231909    -1.1695000955
   50      H       0.2112333746     2.0469263138    -0.5890705819
   51      H       0.9613230725     3.6757563529    -0.3501295538
   52      H       0.9143621162     2.4961585450     1.0278404536
   53      H       0.7706797706    -2.5652768024    -0.4778263691
   54      H       0.5147717084    -1.0833430422    -1.5041337898
   55      H       0.4510106282    -1.1468118089     1.6301318108
   56      H       0.1106607166     0.2936282762     0.5970984768
 ----------------------------------------------------------------

    9   -1510.2850323974      4.52E-09 Convergence criterion met
 Total energy in the final basis set = -1510.28503240
 Final energy is   -1510.28503239735
 **  OPTIMIZATION CONVERGED  **

                    Orbital Energies (a.u.)
 --------------------------------------------------------------

 Alpha MOs
 -- Occupied --
-18.939 -18.932 -18.932 -18.930 -18.887 -18.886 -18.879 -18.875
-18.875 -18.870 -10.102 -10.101 -10.098 -10.095 -10.067 -10.063
-10.061 -10.061 -10.059 -10.057 -10.057 -10.053 -10.039 -10.039
-10.037 -10.036 -10.020 -10.020 -10.019 -10.019  -1.017  -1.013
 -1.007  -1.005  -0.969  -0.968  -0.940  -0.937  -0.934  -0.932
 -0.764  -0.762  -0.727  -0.722  -0.711  -0.705  -0.691  -0.661
 -0.659  -0.614  -0.596  -0.581  -0.546  -0.545  -0.537  -0.536
 -0.511  -0.510  -0.482  -0.481  -0.465  -0.460  -0.451  -0.441
 -0.432  -0.431  -0.429  -0.411  -0.411  -0.407  -0.404  -0.398
 -0.391  -0.377  -0.374  -0.371  -0.360  -0.357  -0.355  -0.349
 -0.346  -0.342  -0.333  -0.330  -0.330  -0.327  -0.323  -0.310
 -0.308  -0.305  -0.304  -0.297  -0.292  -0.287  -0.286  -0.276
 -0.274  -0.255  -0.250  -0.247  -0.244  -0.233  -0.232  -0.186
 -0.176  -0.174  -0.165  -0.161  -0.158  -0.153  -0.147  -0.142
 -0.142

          Ground-State Mulliken Net Atomic Charges

     Atom                 Charge (a.u.)
  ----------------------------------------
      1 O                    -0.213626
      2 C                     0.207706
      3 C                    -0.079559
      4 C                    -0.078004
      5 C                     0.211111
      6 O                    -0.164609
      7 C                    -0.051956
      8 C                    -0.059075
      9 O                    -0.170567
     10 C                     0.211625
     11 C                    -0.077382
     12 C                    -0.077188
     13 C                     0.211736
     14 O                    -0.210953
     15 O                    -0.168220
     16 O                    -0.173118
     17 O                    -0.210885
     18 C                    -0.141415
     19 C                     0.026532
     20 C                    -0.144314
     21 C                    -0.143458
     22 C                     0.024191
     23 O                    -0.184615
     24 H                     0.086459
     25 H                     0.085315
     26 H                     0.083170
     27 H                     0.077955
     28 H                     0.073551
     29 H                     0.078297
     30 H                     0.073010
     31 H                     0.090195
     32 O                    -0.220137
     33 C                    -0.128308
     34 C                     0.025615
     35 C                    -0.143738
     36 C                    -0.144558
     37 C                     0.024043
     38 O                    -0.185706
     39 H                     0.086024
     40 H                     0.085471
     41 H                     0.090156
     42 H                     0.083807
     43 H                     0.077972
     44 H                     0.073461
     45 H                     0.078069
     46 H                     0.072605
     47 H                     0.091866
     48 H                     0.088535
     49 H                     0.089829
     50 H                     0.099471
     51 H                     0.085428
     52 H                     0.099066
     53 H                     0.084128
     54 H                     0.101386
     55 H                     0.096838
     56 H                     0.096766
  ----------------------------------------
  Sum of atomic charges =     0.000000

                    Cartesian Multipole Moments
 -----------------------------------------------------------------
    Charge (ESU x 10^10)
                 0.0000
    Dipole Moment (Debye)
         X       0.0460      Y       0.0484      Z      -1.9649
       Tot       1.9660
    Quadrupole Moments (Debye-Ang)
        XX    -133.3032     XY       4.1069     YY    -149.8196
        XZ       1.5718     YZ       4.2233     ZZ    -171.9304

 Total job time:  73.70s(wall), 3502.07s(cpu)
        *  Thank you very much for using Q-Chem.  Have a nice day.  *
