 Q-Chem 5.0, Q-Chem, Inc., Pleasanton, CA (2017)
 Q-Chem 5.0.1 for Intel X86 EM64T Linux

User input:
--------------------------------------------------------------
$molecule
0  1
O -3.94934 -3.66094 2.70899
C -3.26408 -4.56952 2.26188
C -3.36658 -6.02376 2.66595
C -3.27083 -6.34448 4.16656
C -3.26169 -5.16191 5.10971
O -4.33257 -5.23377 5.95438
C -4.22592 -4.34985 7.07534
C -3.13719 -4.83601 8.02636
O -3.04009 -3.95029 9.15285
C -1.91142 -3.20061 9.20957
C -1.85885 -2.30749 10.42622
C -3.02934 -1.32202 10.55688
C -4.23318 -1.60608 9.68122
O -5.38623 -1.71092 10.0737
O -2.30271 -4.27135 1.34854
O -4.03825 -1.37203 8.35636
O -1.01463 -3.21572 8.37522
C -5.05739 -1.07363 7.47074
C -1.96562 -3.0632 11.76495
C -1.31865 -2.2324 12.87094
C -2.31386 -1.09485 12.98716
C -3.40745 -1.58661 12.02932
O -3.32811 -2.98977 12.10767
H -0.88113 -1.77355 10.39461
H -2.72364 -0.27006 10.36381
H -1.52121 -4.08197 11.73162
H -1.3675 -2.84502 13.79991
H -0.26587 -1.92393 12.69394
H -2.68285 -1.05913 14.03615
H -1.93261 -0.09667 12.68054
H -4.38578 -1.13617 12.30621
O -2.38085 -4.30966 5.13584
C -2.04976 -3.00184 0.87258
C -4.74966 -6.62092 2.33394
C -4.62269 -8.12789 2.1319
C -4.34551 -8.5758 3.55042
C -4.52462 -7.24815 4.30099
O -5.47366 -6.54625 3.53806
H -2.59501 -6.57714 2.08212
H -2.34309 -6.9125 4.39882
H -1.7562 -2.33125 1.70841
H -5.22965 -6.15458 1.44543
H -5.63076 -8.49537 1.83256
H -3.87687 -8.45641 1.37647
H -5.12588 -9.31341 3.84208
H -3.33383 -9.00207 3.72462
H -4.7996 -7.46797 5.35537
H -2.95108 -2.59698 0.36455
H -1.21705 -3.04671 0.1411
H -4.63158 -0.93656 6.45552
H -5.55785 -0.1294 7.77417
H -5.80774 -1.89194 7.44372
H -3.40254 -5.84779 8.39963
H -2.17737 -4.96976 7.48711
H -5.19254 -4.34123 7.62178
H -4.00801 -3.32448 6.72254
$end

$opt
CONSTRAINT
tors           1           2           3           4     -53.504
tors           3           4           5           6    +119.479
tors           4           5           6           7    +165.669
tors           5           6           7           8     -70.163
tors           6           7           8           9    -179.652
tors           7           8           9          10    -110.515
tors           8           9          10          11    -179.090
tors           9          10          11          12     -58.185
tors          11          12          13          14    +126.717
ENDCONSTRAINT
$end

$rem
JOBTYPE                   OPT
METHOD                    B3LYP
DFT_D                     d3_op
BASIS                     STO-3G
GEOM_OPT_MAX_CYCLES       100
GEOM_OPT_TOL_GRADIENT     300
GEOM_OPT_TOL_DISPLACEMENT 1200
GEOM_OPT_TOL_ENERGY       100
SYMMETRY                  False
THRESH                    12
SCF_CONVERGENCE           8
MAX_SUB_FILE_NUM          128
MEM_STATIC                400
MEM_TOTAL                 4000
$end
--------------------------------------------------------------

   15   -1510.1545648179      6.15E-09 Convergence criterion met
 Total energy in the final basis set = -1510.15456482
   14   -1510.2231964571      6.50E-09 Convergence criterion met
 Total energy in the final basis set = -1510.22319646
   15   -1510.2584068084      1.23E-09 Convergence criterion met
 Total energy in the final basis set = -1510.25840681
   14   -1510.2708446059      9.10E-09 Convergence criterion met
 Total energy in the final basis set = -1510.27084461
   14   -1510.2769155526      5.48E-09 Convergence criterion met
 Total energy in the final basis set = -1510.27691555
    2   -1510.2769155526      4.93E-09 Convergence criterion met
 Total energy in the final basis set = -1510.27691555
   12   -1510.2782811532      5.20E-09 Convergence criterion met
 Total energy in the final basis set = -1510.27828115
   13   -1510.2794576068      2.59E-09 Convergence criterion met
   12   -1510.2823521914      2.89E-09 Convergence criterion met
 Total energy in the final basis set = -1510.28235219
   11   -1510.2823919745      6.66E-09 Convergence criterion met
 Total energy in the final basis set = -1510.28239197
   11   -1510.2824067956      5.59E-09 Convergence criterion met
 Total energy in the final basis set = -1510.28240680
   11   -1510.2824128086      4.80E-09 Convergence criterion met
 Total energy in the final basis set = -1510.28241281
    9   -1510.2824166582      4.52E-09 Convergence criterion met
 Total energy in the final basis set = -1510.28241666
    9   -1510.2824194340      5.31E-09 Convergence criterion met
 Total energy in the final basis set = -1510.28241943

             Standard Nuclear Orientation (Angstroms)
    I     Atom           X                Y                Z
 ----------------------------------------------------------------
    1      O      -3.4278572617     1.5963132536     1.1178860145
    2      C      -4.1712341867     1.3581307687     0.1411089900
    3      C      -4.6597625489    -0.0403295622    -0.3678644291
    4      C      -3.4715779914    -1.0625881372    -0.6308949790
    5      C      -2.0533418730    -0.4380540697    -0.3521245381
    6      O      -1.3843414240    -1.1722864587     0.6797243226
    7      C       0.0559766066    -0.8207337973     0.7108918660
    8      C       0.8387805838    -1.3695700343    -0.5371887920
    9      O       2.2624475939    -0.9785789637    -0.4147925857
   10      C       2.6068241293     0.0084192686    -1.4005523491
   11      C       4.1241849506     0.3517851908    -1.2237255560
   12      C       4.4841597244     0.8894668457     0.2253687623
   13      C       3.2364626220     1.1777603093     1.1305216063
   14      O       2.9986632523     0.7512774407     2.2802051742
   15      O      -4.7420903878     2.3681905535    -0.6985355825
   16      O       2.4014414726     2.0955375683     0.4090498175
   17      O       1.8207603733     0.4414807472    -2.2705515907
   18      C       1.2676601663     2.5575177813     1.2430885293
   19      C       5.0137913848    -0.9666178779    -1.2582705244
   20      C       6.5366815444    -0.5499260953    -1.3540827093
   21      C       6.8319829857    -0.1121224575     0.1298959617
   22      C       5.4025600700    -0.2790279759     0.7773048469
   23      O       4.8772139331    -1.4958351569     0.1164381709
   24      H       4.4053050586     1.0730635678    -2.0105990474
   25      H       5.0547423070     1.8334040776     0.1453776373
   26      H       4.6854241285    -1.7216388338    -1.9989230917
   27      H       7.1538769026    -1.4120166686    -1.6529693350
   28      H       6.6966978193     0.2650611013    -2.0780884111
   29      H       7.5535462803    -0.7899942039     0.6130560698
   30      H       7.2092312329     0.9202307696     0.2051601541
   31      H       5.3751806202    -0.3930730807     1.8785261172
   32      O      -1.5468176661     0.5310546851    -0.9601650205
   33      C      -4.2915559506     3.7074676840    -0.2535197019
   34      C      -5.4744831120    -0.8224862626     0.7558612788
   35      C      -6.2632003963    -2.0008820494     0.0608080283
   36      C      -5.0948216158    -3.0132179630    -0.2332008882
   37      C      -3.8557342013    -2.2340099676     0.3623823486
   38      O      -4.4210924014    -1.5160213974     1.5290163478
   39      H      -5.2686966165     0.1164934323    -1.2753513928
   40      H      -3.4773971459    -1.3992976946    -1.6841519554
   41      H      -3.1867097903     3.7965893500    -0.2909748199
   42      H      -6.0802979030    -0.1749353559     1.4191182381
   43      H      -7.0037136048    -2.4280348010     0.7557333050
   44      H      -6.7842806446    -1.6725352331    -0.8526432276
   45      H      -5.2425339810    -3.9663599379     0.2990101497
   46      H      -4.9752582301    -3.2236212289    -1.3081129422
   47      H      -2.9992031040    -2.8614858912     0.6725108798
   48      H      -4.6277614838     3.9291026476     0.7801041136
   49      H      -4.7460583679     4.4316964066    -0.9541797462
   50      H       0.3342817139     2.4548404047     0.6555676874
   51      H       1.4168729522     3.6251957971     1.5018125905
   52      H       1.2106749446     1.9561028406     2.1726470400
   53      H       0.7888617462    -2.4770640477    -0.5743805981
   54      H       0.4229467673    -0.9293970332    -1.4694125586
   55      H       0.4543985351    -1.2681618755     1.6428879894
   56      H       0.1826296182     0.2788430206     0.7518464007
 ----------------------------------------------------------------

    8   -1510.2824199567      7.00E-09 Convergence criterion met
 Total energy in the final basis set = -1510.28241996
 Final energy is   -1510.28241995670
 **  OPTIMIZATION CONVERGED  **

                    Orbital Energies (a.u.)
 --------------------------------------------------------------

 Alpha MOs
 -- Occupied --
-18.933 -18.932 -18.931 -18.929 -18.887 -18.886 -18.879 -18.876
-18.871 -18.870 -10.101 -10.098 -10.097 -10.095 -10.066 -10.063
-10.062 -10.061 -10.059 -10.057 -10.057 -10.056 -10.038 -10.037
-10.037 -10.035 -10.020 -10.019 -10.019 -10.018  -1.014  -1.011
 -1.007  -1.005  -0.969  -0.968  -0.937  -0.937  -0.933  -0.931
 -0.764  -0.761  -0.727  -0.721  -0.711  -0.705  -0.691  -0.661
 -0.660  -0.614  -0.596  -0.581  -0.545  -0.544  -0.537  -0.536
 -0.511  -0.509  -0.482  -0.480  -0.464  -0.460  -0.449  -0.440
 -0.431  -0.431  -0.428  -0.412  -0.410  -0.407  -0.405  -0.398
 -0.388  -0.375  -0.373  -0.371  -0.359  -0.357  -0.352  -0.348
 -0.346  -0.342  -0.334  -0.330  -0.329  -0.325  -0.322  -0.310
 -0.308  -0.305  -0.303  -0.298  -0.292  -0.288  -0.284  -0.276
 -0.273  -0.254  -0.249  -0.247  -0.241  -0.233  -0.231  -0.184
 -0.175  -0.174  -0.163  -0.161  -0.154  -0.152  -0.146  -0.142
 -0.142

          Ground-State Mulliken Net Atomic Charges

     Atom                 Charge (a.u.)
  ----------------------------------------
      1 O                    -0.213653
      2 C                     0.208694
      3 C                    -0.079705
      4 C                    -0.078430
      5 C                     0.210930
      6 O                    -0.167541
      7 C                    -0.051276
      8 C                    -0.059071
      9 O                    -0.170091
     10 C                     0.211211
     11 C                    -0.076969
     12 C                    -0.077411
     13 C                     0.213019
     14 O                    -0.211506
     15 O                    -0.168531
     16 O                    -0.173761
     17 O                    -0.208237
     18 C                    -0.137695
     19 C                     0.026500
     20 C                    -0.144497
     21 C                    -0.143266
     22 C                     0.024523
     23 O                    -0.184752
     24 H                     0.086764
     25 H                     0.085105
     26 H                     0.082450
     27 H                     0.077935
     28 H                     0.073693
     29 H                     0.078227
     30 H                     0.073008
     31 H                     0.090190
     32 O                    -0.215716
     33 C                    -0.128562
     34 C                     0.025813
     35 C                    -0.143736
     36 C                    -0.144589
     37 C                     0.024072
     38 O                    -0.186095
     39 H                     0.086077
     40 H                     0.084634
     41 H                     0.091349
     42 H                     0.082672
     43 H                     0.077881
     44 H                     0.073722
     45 H                     0.077839
     46 H                     0.072564
     47 H                     0.091937
     48 H                     0.087708
     49 H                     0.090094
     50 H                     0.094482
     51 H                     0.085224
     52 H                     0.100983
     53 H                     0.084938
     54 H                     0.102634
     55 H                     0.095482
     56 H                     0.092734
  ----------------------------------------
  Sum of atomic charges =     0.000000

                    Cartesian Multipole Moments
 -----------------------------------------------------------------
    Charge (ESU x 10^10)
                 0.0000
    Dipole Moment (Debye)
         X      -0.0032      Y       0.4066      Z      -1.6434
       Tot       1.6930
    Quadrupole Moments (Debye-Ang)
        XX    -134.4092     XY       5.5451     YY    -150.9691
        XZ       0.7746     YZ       7.3430     ZZ    -168.2444

 Total job time:  75.30s(wall), 3578.43s(cpu)
        *  Thank you very much for using Q-Chem.  Have a nice day.  *
