 Q-Chem 5.0, Q-Chem, Inc., Pleasanton, CA (2017)
 Q-Chem 5.0.1 for Intel X86 EM64T Linux

User input:
--------------------------------------------------------------
$molecule
0  1
O -3.4278572617 1.5963132536 1.1178860145
C -4.1712341867 1.3581307687 0.14110899
C -4.6597625489 -0.0403295622 -0.3678644291
C -3.4715779914 -1.0625881372 -0.630894979
C -2.053341873 -0.4380540697 -0.3521245381
O -1.384341424 -1.1722864587 0.6797243226
C 0.0559766066 -0.8207337973 0.710891866
C 0.8387805838 -1.3695700343 -0.537188792
O 2.2624475939 -0.9785789637 -0.4147925857
C 2.6068241293 0.0084192686 -1.4005523491
C 4.1241849506 0.3517851908 -1.223725556
C 4.4841597244 0.8894668457 0.2253687623
C 3.236462622 1.1777603093 1.1305216063
O 2.9986632523 0.7512774407 2.2802051742
O -4.7420903878 2.3681905535 -0.6985355825
O 2.4014414726 2.0955375683 0.4090498175
O 1.8207603733 0.4414807472 -2.2705515907
C 1.2676601663 2.5575177813 1.2430885293
C 5.0137913848 -0.9666178779 -1.2582705244
C 6.5366815444 -0.5499260953 -1.3540827093
C 6.8319829857 -0.1121224575 0.1298959617
C 5.40256007 -0.2790279759 0.7773048469
O 4.8772139331 -1.4958351569 0.1164381709
H 4.4053050586 1.0730635678 -2.0105990474
H 5.054742307 1.8334040776 0.1453776373
H 4.6854241285 -1.7216388338 -1.9989230917
H 7.1538769026 -1.4120166686 -1.652969335
H 6.6966978193 0.2650611013 -2.0780884111
H 7.5535462803 -0.7899942039 0.6130560698
H 7.2092312329 0.9202307696 0.2051601541
H 5.3751806202 -0.3930730807 1.8785261172
O -1.5468176661 0.5310546851 -0.9601650205
C -4.2915559506 3.707467684 -0.2535197019
C -5.474483112 -0.8224862626 0.7558612788
C -6.2632003963 -2.0008820494 0.0608080283
C -5.0948216158 -3.013217963 -0.2332008882
C -3.8557342013 -2.2340099676 0.3623823486
O -4.4210924014 -1.5160213974 1.5290163478
H -5.2686966165 0.1164934323 -1.2753513928
H -3.4773971459 -1.3992976946 -1.6841519554
H -3.1867097903 3.79658935 -0.2909748199
H -6.080297903 -0.1749353559 1.4191182381
H -7.0037136048 -2.428034801 0.755733305
H -6.7842806446 -1.6725352331 -0.8526432276
H -5.242533981 -3.9663599379 0.2990101497
H -4.9752582301 -3.2236212289 -1.3081129422
H -2.999203104 -2.8614858912 0.6725108798
H -4.6277614838 3.9291026476 0.7801041136
H -4.7460583679 4.4316964066 -0.9541797462
H 0.3342817139 2.4548404047 0.6555676874
H 1.4168729522 3.6251957971 1.5018125905
H 1.2106749446 1.9561028406 2.17264704
H 0.7888617462 -2.4770640477 -0.5743805981
H 0.4229467673 -0.9293970332 -1.4694125586
H 0.4543985351 -1.2681618755 1.6428879894
H 0.1826296182 0.2788430206 0.7518464007
$end

$rem
JOBTYPE                   OPT
METHOD                    B3LYP
DFT_D                     d3_op
BASIS                     STO-3G
GEOM_OPT_MAX_CYCLES       100
GEOM_OPT_TOL_GRADIENT     300
GEOM_OPT_TOL_DISPLACEMENT 1200
GEOM_OPT_TOL_ENERGY       100
SYMMETRY                  False
THRESH                    12
SCF_CONVERGENCE           8
MAX_SUB_FILE_NUM          128
MEM_STATIC                400
MEM_TOTAL                 4000
$end
--------------------------------------------------------------

   16   -1510.2822487195      5.63E-09 Convergence criterion met
 Total energy in the final basis set = -1510.28224872
   14   -1510.2840625250      4.75E-09 Convergence criterion met
 Total energy in the final basis set = -1510.28406253
   14   -1510.2862831004      6.94E-09 Convergence criterion met
 Total energy in the final basis set = -1510.28628310
   14   -1510.2849257884      6.73E-09 Convergence criterion met
 Total energy in the final basis set = -1510.28492579
   13   -1510.2855489839      9.46E-09 Convergence criterion met
 Total energy in the final basis set = -1510.28554898
   14   -1510.2877838394      2.77E-09 Convergence criterion met
 Total energy in the final basis set = -1510.28778384
   13   -1510.2880980550      9.84E-09 Convergence criterion met
 Total energy in the final basis set = -1510.28809806
   14   -1510.2877824780      1.69E-09 Convergence criterion met
   12   -1510.2937894215      5.80E-09 Convergence criterion met
 Total energy in the final basis set = -1510.29378942
   12   -1510.2938284013      6.28E-09 Convergence criterion met
 Total energy in the final basis set = -1510.29382840
   12   -1510.2938320732      6.75E-09 Convergence criterion met
 Total energy in the final basis set = -1510.29383207
   12   -1510.2938562575      3.91E-09 Convergence criterion met
 Total energy in the final basis set = -1510.29385626
   11   -1510.2938372140      8.52E-09 Convergence criterion met
 Total energy in the final basis set = -1510.29383721
   10   -1510.2938616712      9.80E-09 Convergence criterion met
 Total energy in the final basis set = -1510.29386167

             Standard Nuclear Orientation (Angstroms)
    I     Atom           X                Y                Z
 ----------------------------------------------------------------
    1      O      -2.0388816074     1.3108166640     0.4221853933
    2      C      -3.2910203202     1.3522240025     0.4402133932
    3      C      -4.2802564371     0.2954645307    -0.1554961854
    4      C      -3.5388463323    -0.9146545817    -0.8615432434
    5      C      -1.9694016730    -0.7762566039    -0.8552727778
    6      O      -1.4524745746    -1.4050604755     0.3182445738
    7      C      -0.0108554554    -1.1151112209     0.5097118379
    8      C       0.9240686766    -1.7750755125    -0.5692071085
    9      O       2.2767706548    -1.2355624538    -0.2982107552
   10      C       3.0263852239    -1.0646570139    -1.5077198761
   11      C       4.3593086768    -0.3386632094    -1.1215809466
   12      C       4.1077441704     1.0221790469    -0.3433337861
   13      C       2.5863017367     1.3937245736    -0.2008097898
   14      O       1.9441245649     1.6047972069     0.8516999654
   15      O      -4.0443027840     2.4089057430     1.0311718557
   16      O       2.0509291018     1.5048595000    -1.5212661018
   17      O       2.6505847535    -1.4422508927    -2.6374168990
   18      C       0.6254282503     1.9187039563    -1.4924440948
   19      C       5.1711219481    -1.1509572823    -0.0214656620
   20      C       6.6242904754    -0.5374374656     0.0835657915
   21      C       6.3414697383     0.7852550003     0.8892817566
   22      C       4.7736265809     0.7056727033     1.0578495366
   23      O       4.5257938670    -0.7433148804     1.2459873012
   24      H       4.9459657447    -0.1836926908    -2.0438849020
   25      H       4.6155435728     1.8597125659    -0.8564418332
   26      H       5.1315679402    -2.2511400234    -0.1406936888
   27      H       7.2897877126    -1.2160683899     0.6404191667
   28      H       7.0646624381    -0.3457752822    -0.9080008079
   29      H       6.8365015902     0.7709200283     1.8733492350
   30      H       6.6587456657     1.6903229884     0.3472182853
   31      H       4.3438704864     1.2825421678     1.8997307954
   32      O      -1.2873551985    -0.3064246041    -1.7983238155
   33      C      -3.1289147378     3.4133236576     1.6242541712
   34      C      -5.0879778965    -0.4668120339     0.9846390788
   35      C      -6.3038479402    -1.2177465808     0.3120104524
   36      C      -5.5667317304    -2.4178146980    -0.3903618495
   37      C      -4.0649279864    -2.1322906142     0.0102504209
   38      O      -4.1727233738    -1.5618226610     1.3737376462
   39      H      -4.9672646840     0.8146888764    -0.8480436379
   40      H      -3.8552978094    -0.9982890095    -1.9162730327
   41      H      -2.4331905270     3.8272119213     0.8662909785
   42      H      -5.3431188219     0.1638271885     1.8585151582
   43      H      -7.0093932259    -1.5699858619     1.0813332644
   44      H      -6.8473452769    -0.5747217197    -0.3985095204
   45      H      -5.8958267972    -3.3872006690     0.0164664638
   46      H      -5.7102897510    -2.4261133207    -1.4826022767
   47      H      -3.3986302396    -3.0157589056     0.0127293016
   48      H      -2.5315885372     2.9780020252     2.4512021247
   49      H      -3.7757988641     4.2191646858     2.0167307742
   50      H      -0.0398279091     1.0409726827    -1.6778812460
   51      H       0.4881906368     2.6688555130    -2.2937557043
   52      H       0.3746232695     2.3594796617    -0.5076446966
   53      H       0.9214930996    -2.8823056561    -0.4737446430
   54      H       0.5902665822    -1.4979709793    -1.5912695323
   55      H       0.2316695122    -1.5192021488     1.5128160710
   56      H       0.1665772526    -0.0177697377     0.5232004589
 ----------------------------------------------------------------

    9   -1510.2938610281      6.16E-09 Convergence criterion met
 Total energy in the final basis set = -1510.29386103
 Final energy is   -1510.29386102808
 **  OPTIMIZATION CONVERGED  **

                    Orbital Energies (a.u.)
 --------------------------------------------------------------

 Alpha MOs
 -- Occupied --
-18.948 -18.930 -18.923 -18.918 -18.891 -18.890 -18.882 -18.870
-18.868 -18.862 -10.111 -10.103 -10.091 -10.089 -10.072 -10.064
-10.061 -10.060 -10.057 -10.055 -10.052 -10.044 -10.037 -10.031
-10.030 -10.029 -10.023 -10.021 -10.016 -10.015  -1.024  -1.008
 -1.004  -0.995  -0.973  -0.964  -0.948  -0.935  -0.928  -0.923
 -0.766  -0.757  -0.727  -0.721  -0.712  -0.701  -0.688  -0.669
 -0.643  -0.610  -0.594  -0.578  -0.549  -0.540  -0.539  -0.531
 -0.516  -0.505  -0.487  -0.470  -0.465  -0.456  -0.449  -0.439
 -0.436  -0.429  -0.425  -0.418  -0.413  -0.399  -0.397  -0.395
 -0.384  -0.380  -0.373  -0.363  -0.361  -0.356  -0.351  -0.342
 -0.339  -0.336  -0.334  -0.328  -0.326  -0.320  -0.320  -0.316
 -0.308  -0.305  -0.302  -0.299  -0.290  -0.284  -0.283  -0.275
 -0.267  -0.263  -0.248  -0.239  -0.236  -0.235  -0.228  -0.190
 -0.177  -0.168  -0.164  -0.157  -0.150  -0.148  -0.144  -0.141
 -0.137

          Ground-State Mulliken Net Atomic Charges

     Atom                 Charge (a.u.)
  ----------------------------------------
      1 O                    -0.206758
      2 C                     0.215522
      3 C                    -0.078462
      4 C                    -0.081278
      5 C                     0.223466
      6 O                    -0.168030
      7 C                    -0.050118
      8 C                    -0.056758
      9 O                    -0.172493
     10 C                     0.213147
     11 C                    -0.077928
     12 C                    -0.077503
     13 C                     0.212742
     14 O                    -0.219667
     15 O                    -0.167395
     16 O                    -0.177225
     17 O                    -0.210900
     18 C                    -0.152373
     19 C                     0.025907
     20 C                    -0.144145
     21 C                    -0.143879
     22 C                     0.024327
     23 O                    -0.185909
     24 H                     0.084700
     25 H                     0.083042
     26 H                     0.081741
     27 H                     0.076950
     28 H                     0.073180
     29 H                     0.076989
     30 H                     0.072419
     31 H                     0.089026
     32 O                    -0.224669
     33 C                    -0.128126
     34 C                     0.025433
     35 C                    -0.143541
     36 C                    -0.144293
     37 C                     0.026545
     38 O                    -0.186675
     39 H                     0.087729
     40 H                     0.084400
     41 H                     0.092348
     42 H                     0.086508
     43 H                     0.078850
     44 H                     0.073993
     45 H                     0.078557
     46 H                     0.073941
     47 H                     0.088405
     48 H                     0.093502
     49 H                     0.093165
     50 H                     0.109766
     51 H                     0.077917
     52 H                     0.090426
     53 H                     0.080289
     54 H                     0.105519
     55 H                     0.093139
     56 H                     0.104537
  ----------------------------------------
  Sum of atomic charges =    -0.000000

                    Cartesian Multipole Moments
 -----------------------------------------------------------------
    Charge (ESU x 10^10)
                 0.0000
    Dipole Moment (Debye)
         X      -1.8627      Y       1.3281      Z      -0.0084
       Tot       2.2877
    Quadrupole Moments (Debye-Ang)
        XX    -132.2388     XY       1.2355     YY    -150.8770
        XZ       2.2223     YZ       2.8691     ZZ    -169.3469

 Total job time:  79.84s(wall), 3801.41s(cpu)
        *  Thank you very much for using Q-Chem.  Have a nice day.  *
