 Q-Chem 5.0, Q-Chem, Inc., Pleasanton, CA (2017)
 Q-Chem 5.0.1 for Intel X86 EM64T Linux

User input:
--------------------------------------------------------------
$molecule
0  1
O -3.4288273901 1.5921554584 1.1604951258
C -4.1651583172 1.37129555 0.1746269361
C -4.6744743485 -0.0153778752 -0.3481085967
C -3.5102124912 -1.068929057 -0.5885746538
C -2.0786733967 -0.4736895926 -0.3224643673
O -1.3716981516 -1.2871926583 0.6205071018
C 0.0430423281 -0.8490820254 0.6999532431
C 0.873060072 -1.3247768186 -0.544867658
O 2.2758496388 -0.8882863828 -0.3482093254
C 2.7471278033 -0.1588387909 -1.4903299388
C 4.2332674643 0.2482343134 -1.2246667815
C 4.4721297084 0.9212717735 0.1924057957
C 3.1530605024 1.2337151325 0.9838040052
O 2.765048583 0.7554222612 2.0704513671
O -4.7076098813 2.3948159819 -0.6679098653
O 2.4381880292 2.2150150896 0.2181830551
O 2.0670969035 0.0647973541 -2.5155616898
C 1.1896169465 2.6241902049 0.9014386536
C 5.1460075095 -1.0487063982 -1.0783701067
C 6.6638421853 -0.6060524347 -1.1081338108
C 6.8426596399 -0.0220557601 0.3433756017
C 5.3757100339 -0.1681255237 0.9065060915
O 4.9203849597 -1.4531922229 0.3260092425
H 4.5630401896 0.9003385658 -2.0519973679
H 5.0197091896 1.8737458036 0.0694501533
H 4.8818567531 -1.8736108314 -1.7684229671
H 7.3165706185 -1.4766506407 -1.2794922809
H 6.8582347124 0.1420458762 -1.8932996186
H 7.5441165228 -0.6297484803 0.9371909008
H 7.1909812795 1.0231410585 0.3438664109
H 5.2757888942 -0.1870283736 2.0090865085
O -1.5912870172 0.5405647885 -0.8700425104
C -4.2377844846 3.7239251384 -0.2131304948
C -5.5259767678 -0.7735579096 0.7642886786
C -6.3187033339 -1.9485341538 0.0678943771
C -5.1640025466 -2.9892637422 -0.1774654298
C -3.9236012709 -2.2166976905 0.4221244538
O -4.4977721395 -1.4715326027 1.5672871331
H -5.2637348952 0.1571078084 -1.265650952
H -3.5249610327 -1.426316757 -1.6352324093
H -3.1312684573 3.7940688476 -0.2412104777
H -6.1356517894 -0.1092767261 1.4071430804
H -7.0863806935 -2.3490324631 0.7490662374
H -6.8080927203 -1.6254408567 -0.8647832871
H -5.3394374653 -3.9243979483 0.3779687349
H -5.0282881255 -3.2318579925 -1.2436012683
H -3.0788532111 -2.8483277244 0.7555834981
H -4.5783778373 3.946981722 0.8187384685
H -4.6738082937 4.4590969302 -0.9141893171
H 0.3236482627 2.3801818896 0.2529726016
H 1.2193618315 3.7187709771 1.0694146533
H 1.0989376368 2.095332932 1.8719143964
H 0.8491296207 -2.4322149123 -0.6245372656
H 0.4834162519 -0.8735127242 -1.483280517
H 0.4502501474 -1.3032049429 1.6250621598
H 0.1013863001 0.2536801485 0.7780887137
$end

$rem
JOBTYPE                   OPT
METHOD                    B3LYP
DFT_D                     d3_op
BASIS                     STO-3G
GEOM_OPT_MAX_CYCLES       100
GEOM_OPT_TOL_GRADIENT     300
GEOM_OPT_TOL_DISPLACEMENT 1200
GEOM_OPT_TOL_ENERGY       100
SYMMETRY                  False
THRESH                    12
SCF_CONVERGENCE           8
MAX_SUB_FILE_NUM          128
MEM_STATIC                400
MEM_TOTAL                 4000
$end
--------------------------------------------------------------

   16   -1510.2841726085      6.63E-09 Convergence criterion met
 Total energy in the final basis set = -1510.28417261
   14   -1510.2855361962      3.83E-09 Convergence criterion met
 Total energy in the final basis set = -1510.28553620
   14   -1510.2876507537      3.94E-09 Convergence criterion met
 Total energy in the final basis set = -1510.28765075
   13   -1510.2889509477      9.16E-09 Convergence criterion met
 Total energy in the final basis set = -1510.28895095
   14   -1510.2891205134      1.93E-09 Convergence criterion met
 Total energy in the final basis set = -1510.28912051
   13   -1510.2899471222      8.24E-09 Convergence criterion met
 Total energy in the final basis set = -1510.28994712
   13   -1510.2901871144      5.00E-09 Convergence criterion met
 Total energy in the final basis set = -1510.29018711
   13   -1510.2900894384      3.89E-09 Convergence criterion met
   11   -1510.2938424014      6.21E-09 Convergence criterion met
 Total energy in the final basis set = -1510.29384240
   11   -1510.2938527334      9.47E-09 Convergence criterion met
 Total energy in the final basis set = -1510.29385273
   10   -1510.2938393948      6.09E-09 Convergence criterion met
 Total energy in the final basis set = -1510.29383939
   10   -1510.2938523532      8.44E-09 Convergence criterion met
 Total energy in the final basis set = -1510.29385235
   10   -1510.2938538198      5.06E-09 Convergence criterion met
 Total energy in the final basis set = -1510.29385382
    9   -1510.2938517967      6.60E-09 Convergence criterion met
 Total energy in the final basis set = -1510.29385180

             Standard Nuclear Orientation (Angstroms)
    I     Atom           X                Y                Z
 ----------------------------------------------------------------
    1      O      -2.0465628881     1.3250793213     0.3812842849
    2      C      -3.2989643372     1.3617856922     0.3842274442
    3      C      -4.2767831746     0.3087680328    -0.2365057359
    4      C      -3.5223740914    -0.8972837661    -0.9354771367
    5      C      -1.9533736029    -0.7620414278    -0.8938425240
    6      O      -1.4655524105    -1.3883245423     0.2935830143
    7      C      -0.0282062344    -1.1011522069     0.5187753047
    8      C       0.9303016819    -1.7651184772    -0.5366656433
    9      O       2.2766637442    -1.2227217337    -0.2409487916
   10      C       3.0500119432    -1.0565358396    -1.4360288240
   11      C       4.3766173104    -0.3321577838    -1.0258034724
   12      C       4.1127680687     1.0312080569    -0.2559393262
   13      C       2.5896500641     1.4057785200    -0.1433548698
   14      O       1.9274978395     1.6193214133     0.8961776521
   15      O      -4.0634028645     2.4092982442     0.9772448294
   16      O       2.0807282296     1.5163648275    -1.4742604708
   17      O       2.6954076521    -1.4361688858    -2.5718874045
   18      C       0.6548649633     1.9300759110    -1.4745527026
   19      C       5.1653490898    -1.1434050730     0.0917687405
   20      C       6.6176584031    -0.5325045026     0.2231019660
   21      C       6.3220931843     0.7929215470     1.0198283888
   22      C       4.7511276022     0.7169741267     1.1585050139
   23      O       4.4967702832    -0.7310093344     1.3454664895
   24      H       4.9811780599    -0.1805270008    -1.9370251924
   25      H       4.6319474016     1.8664090329    -0.7613428869
   26      H       5.1257842223    -2.2438202970    -0.0253598631
   27      H       7.2709710137    -1.2110515082     0.7943287951
   28      H       7.0771792830    -0.3442404206    -0.7603599025
   29      H       6.7980276046     0.7806190371     2.0133013614
   30      H       6.6512799781     1.6957778545     0.4812019744
   31      H       4.3066573304     1.2966798995     1.9907525032
   32      O      -1.2483439855    -0.2967291920    -1.8221295367
   33      C      -3.1591812749     3.4103048514     1.5929250540
   34      C      -5.1085306066    -0.4599715961     0.8816847655
   35      C      -6.3116382879    -1.2020388718     0.1768236716
   36      C      -5.5626262622    -2.3990106791    -0.5183760381
   37      C      -4.0689678200    -2.1202848722    -0.0838100057
   38      O      -4.2040533780    -1.5600141656     1.2814101873
   39      H      -4.9497906657     0.8323041424    -0.9395429440
   40      H      -3.8163595092    -0.9728616956    -1.9973068085
   41      H      -2.4522714921     3.8313187374     0.8494551201
   42      H      -5.3803262794     0.1648764165     1.7546746541
   43      H      -7.0359464754    -1.5578000731     0.9268857457
   44      H      -6.8360325767    -0.5511806265    -0.5408903532
   45      H      -5.9029718876    -3.3705593263    -0.1261281022
   46      H      -5.6825955166    -2.3986375840    -1.6134961401
   47      H      -3.4047897964    -3.0053153047    -0.0742580015
   48      H      -2.5743045321     2.9689307989     2.4255709339
   49      H      -3.8135236453     4.2117936655     1.9819390481
   50      H      -0.0061982950     1.0518861299    -1.6724383664
   51      H       0.5337731001     2.6791298981    -2.2794929481
   52      H       0.3840917442     2.3722103257    -0.4956795853
   53      H       0.9271073496    -2.8718660303    -0.4358163166
   54      H       0.6170173376    -1.4934140992    -1.5666713906
   55      H       0.1892583400    -1.5039182705     1.5281352486
   56      H       0.1510455783    -0.0041241290     0.5343616912
 ----------------------------------------------------------------

    9   -1510.2938522824      2.95E-09 Convergence criterion met
 Total energy in the final basis set = -1510.29385228
 Final energy is   -1510.29385228238
 **  OPTIMIZATION CONVERGED  **

                    Orbital Energies (a.u.)
 --------------------------------------------------------------

 Alpha MOs
 -- Occupied --
-18.948 -18.930 -18.923 -18.918 -18.891 -18.891 -18.881 -18.870
-18.868 -18.862 -10.111 -10.103 -10.091 -10.089 -10.072 -10.064
-10.061 -10.061 -10.057 -10.055 -10.052 -10.044 -10.037 -10.031
-10.030 -10.029 -10.023 -10.021 -10.016 -10.015  -1.024  -1.008
 -1.003  -0.994  -0.973  -0.963  -0.948  -0.934  -0.928  -0.923
 -0.766  -0.757  -0.727  -0.721  -0.712  -0.701  -0.688  -0.669
 -0.643  -0.610  -0.594  -0.578  -0.549  -0.540  -0.539  -0.531
 -0.516  -0.504  -0.487  -0.470  -0.465  -0.456  -0.449  -0.439
 -0.436  -0.429  -0.425  -0.418  -0.413  -0.399  -0.397  -0.395
 -0.384  -0.380  -0.373  -0.363  -0.361  -0.356  -0.351  -0.342
 -0.339  -0.336  -0.334  -0.328  -0.326  -0.320  -0.319  -0.316
 -0.308  -0.305  -0.302  -0.299  -0.290  -0.284  -0.283  -0.275
 -0.267  -0.263  -0.248  -0.239  -0.236  -0.235  -0.228  -0.190
 -0.177  -0.168  -0.164  -0.157  -0.150  -0.148  -0.144  -0.141
 -0.137

          Ground-State Mulliken Net Atomic Charges

     Atom                 Charge (a.u.)
  ----------------------------------------
      1 O                    -0.206806
      2 C                     0.215548
      3 C                    -0.078435
      4 C                    -0.081304
      5 C                     0.223438
      6 O                    -0.168102
      7 C                    -0.050129
      8 C                    -0.056830
      9 O                    -0.172453
     10 C                     0.213143
     11 C                    -0.077926
     12 C                    -0.077515
     13 C                     0.212748
     14 O                    -0.219703
     15 O                    -0.167381
     16 O                    -0.177221
     17 O                    -0.210907
     18 C                    -0.152333
     19 C                     0.025921
     20 C                    -0.144143
     21 C                    -0.143869
     22 C                     0.024332
     23 O                    -0.185944
     24 H                     0.084692
     25 H                     0.083044
     26 H                     0.081735
     27 H                     0.076937
     28 H                     0.073178
     29 H                     0.076979
     30 H                     0.072410
     31 H                     0.089008
     32 O                    -0.224526
     33 C                    -0.128141
     34 C                     0.025407
     35 C                    -0.143518
     36 C                    -0.144291
     37 C                     0.026614
     38 O                    -0.186577
     39 H                     0.087688
     40 H                     0.084413
     41 H                     0.092425
     42 H                     0.086623
     43 H                     0.078825
     44 H                     0.073950
     45 H                     0.078563
     46 H                     0.073950
     47 H                     0.088295
     48 H                     0.093488
     49 H                     0.093180
     50 H                     0.109764
     51 H                     0.077915
     52 H                     0.090406
     53 H                     0.080269
     54 H                     0.105593
     55 H                     0.093074
     56 H                     0.104498
  ----------------------------------------
  Sum of atomic charges =    -0.000000

                    Cartesian Multipole Moments
 -----------------------------------------------------------------
    Charge (ESU x 10^10)
                 0.0000
    Dipole Moment (Debye)
         X      -1.8688      Y       1.3275      Z      -0.0384
       Tot       2.2927
    Quadrupole Moments (Debye-Ang)
        XX    -132.3478     XY       1.0756     YY    -150.9235
        XZ       2.9628     YZ       2.9143     ZZ    -169.1664

 Total job time:  83.27s(wall), 3968.58s(cpu)
        *  Thank you very much for using Q-Chem.  Have a nice day.  *
