 Q-Chem 5.0, Q-Chem, Inc., Pleasanton, CA (2017)
 Q-Chem 5.0.1 for Intel X86 EM64T Linux

User input:
--------------------------------------------------------------
$molecule
0  1
O -3.94934 -3.66094 2.70899
C -3.26408 -4.56952 2.26188
C -3.36658 -6.02376 2.66595
C -3.28771 -6.34293 4.16787
C -3.29375 -5.15956 5.11004
O -4.29266 -5.30415 6.0302
C -4.23579 -4.33302 7.0804
C -3.12152 -4.68383 8.06093
O -3.10255 -3.73588 9.13978
C -1.90214 -3.15389 9.38359
C -1.94227 -2.18519 10.54146
C -3.09259 -1.16885 10.4956
C -4.21411 -1.48355 9.52613
O -5.373 -1.71985 9.83547
O -2.29919 -4.27063 1.35251
O -3.93963 -1.21758 8.22166
O -0.89583 -3.30619 8.70212
C -4.90853 -0.92326 7.28072
C -2.22063 -2.86983 11.89554
C -1.66596 -2.00487 13.02531
C -2.62445 -0.83234 12.97625
C -3.62774 -1.34351 11.93343
O -3.60688 -2.74125 12.08825
H -0.94265 -1.69629 10.5999
H -2.7532 -0.12934 10.29254
H -1.81058 -3.90156 11.96
H -1.8389 -2.56778 13.97085
H -0.58937 -1.73932 12.95279
H -3.0986 -0.72616 13.97708
H -2.17703 0.13441 12.65855
H -4.61411 -0.85102 12.08133
O -2.43168 -4.28781 5.11826
C -2.04442 -3.00075 0.87856
C -4.74619 -6.62324 2.32181
C -4.61411 -8.12941 2.11856
C -4.34485 -8.57829 3.53824
C -4.5375 -7.25315 4.29035
O -5.48142 -6.55299 3.51979
H -2.58989 -6.57701 2.08872
H -2.35274 -6.89787 4.40294
H -1.75403 -2.33083 1.71603
H -5.22003 -6.157 1.42994
H -5.61978 -8.49814 1.81263
H -3.86335 -8.45632 1.36735
H -5.12183 -9.32261 3.8218
H -3.33129 -8.9972 3.7194
H -4.82444 -7.48007 5.33964
H -2.94381 -2.59547 0.36744
H -1.20894 -3.04503 0.1502
H -4.42594 -0.77695 6.2926
H -5.43328 0.01451 7.5621
H -5.65453 -1.7425 7.20659
H -3.34883 -5.68447 8.48673
H -2.15685 -4.78798 7.5236
H -5.19953 -4.34804 7.6324
H -4.09368 -3.3203 6.65924
$end

$opt
CONSTRAINT
tors           1           2           3           4     -52.792
tors           3           4           5           6    +125.687
tors           4           5           6           7    +170.923
tors           5           6           7           8     -75.751
tors           6           7           8           9    -177.775
tors           7           8           9          10    -127.528
tors           8           9          10          11    -179.090
tors           9          10          11          12     -48.936
tors          11          12          13          14    +116.032
ENDCONSTRAINT
$end

$rem
JOBTYPE                   OPT
METHOD                    B3LYP
DFT_D                     d3_op
BASIS                     STO-3G
GEOM_OPT_MAX_CYCLES       100
GEOM_OPT_TOL_GRADIENT     300
GEOM_OPT_TOL_DISPLACEMENT 1200
GEOM_OPT_TOL_ENERGY       100
SYMMETRY                  False
THRESH                    12
SCF_CONVERGENCE           8
MAX_SUB_FILE_NUM          128
MEM_STATIC                400
MEM_TOTAL                 4000
$end
--------------------------------------------------------------

   15   -1510.1551166770      6.13E-09 Convergence criterion met
 Total energy in the final basis set = -1510.15511668
   14   -1510.2235253882      6.81E-09 Convergence criterion met
 Total energy in the final basis set = -1510.22352539
   15   -1510.2586149513      1.29E-09 Convergence criterion met
 Total energy in the final basis set = -1510.25861495
   14   -1510.2707302578      9.56E-09 Convergence criterion met
 Total energy in the final basis set = -1510.27073026
   14   -1510.2773076266      6.56E-09 Convergence criterion met
 Total energy in the final basis set = -1510.27730763
   12   -1510.2788402894      8.30E-09 Convergence criterion met
 Total energy in the final basis set = -1510.27884029
   13   -1510.2801650881      2.75E-09 Convergence criterion met
 Total energy in the final basis set = -1510.28016509
   12   -1510.2806997683      4.90E-09 Convergence criterion met
   12   -1510.2838577937      8.69E-09 Convergence criterion met
 Total energy in the final basis set = -1510.28385779
   11   -1510.2839458807      4.12E-09 Convergence criterion met
 Total energy in the final basis set = -1510.28394588
   12   -1510.2840373533      3.70E-09 Convergence criterion met
 Total energy in the final basis set = -1510.28403735
   10   -1510.2840851768      8.02E-09 Convergence criterion met
 Total energy in the final basis set = -1510.28408518
   11   -1510.2841179280      7.03E-09 Convergence criterion met
 Total energy in the final basis set = -1510.28411793
   11   -1510.2841285762      5.40E-09 Convergence criterion met
 Total energy in the final basis set = -1510.28412858

             Standard Nuclear Orientation (Angstroms)
    I     Atom           X                Y                Z
 ----------------------------------------------------------------
    1      O      -3.4288273901     1.5921554584     1.1604951258
    2      C      -4.1651583172     1.3712955500     0.1746269361
    3      C      -4.6744743485    -0.0153778752    -0.3481085967
    4      C      -3.5102124912    -1.0689290570    -0.5885746538
    5      C      -2.0786733967    -0.4736895926    -0.3224643673
    6      O      -1.3716981516    -1.2871926583     0.6205071018
    7      C       0.0430423281    -0.8490820254     0.6999532431
    8      C       0.8730600720    -1.3247768186    -0.5448676580
    9      O       2.2758496388    -0.8882863828    -0.3482093254
   10      C       2.7471278033    -0.1588387909    -1.4903299388
   11      C       4.2332674643     0.2482343134    -1.2246667815
   12      C       4.4721297084     0.9212717735     0.1924057957
   13      C       3.1530605024     1.2337151325     0.9838040052
   14      O       2.7650485830     0.7554222612     2.0704513671
   15      O      -4.7076098813     2.3948159819    -0.6679098653
   16      O       2.4381880292     2.2150150896     0.2181830551
   17      O       2.0670969035     0.0647973541    -2.5155616898
   18      C       1.1896169465     2.6241902049     0.9014386536
   19      C       5.1460075095    -1.0487063982    -1.0783701067
   20      C       6.6638421853    -0.6060524347    -1.1081338108
   21      C       6.8426596399    -0.0220557601     0.3433756017
   22      C       5.3757100339    -0.1681255237     0.9065060915
   23      O       4.9203849597    -1.4531922229     0.3260092425
   24      H       4.5630401896     0.9003385658    -2.0519973679
   25      H       5.0197091896     1.8737458036     0.0694501533
   26      H       4.8818567531    -1.8736108314    -1.7684229671
   27      H       7.3165706185    -1.4766506407    -1.2794922809
   28      H       6.8582347124     0.1420458762    -1.8932996186
   29      H       7.5441165228    -0.6297484803     0.9371909008
   30      H       7.1909812795     1.0231410585     0.3438664109
   31      H       5.2757888942    -0.1870283736     2.0090865085
   32      O      -1.5912870172     0.5405647885    -0.8700425104
   33      C      -4.2377844846     3.7239251384    -0.2131304948
   34      C      -5.5259767678    -0.7735579096     0.7642886786
   35      C      -6.3187033339    -1.9485341538     0.0678943771
   36      C      -5.1640025466    -2.9892637422    -0.1774654298
   37      C      -3.9236012709    -2.2166976905     0.4221244538
   38      O      -4.4977721395    -1.4715326027     1.5672871331
   39      H      -5.2637348952     0.1571078084    -1.2656509520
   40      H      -3.5249610327    -1.4263167570    -1.6352324093
   41      H      -3.1312684573     3.7940688476    -0.2412104777
   42      H      -6.1356517894    -0.1092767261     1.4071430804
   43      H      -7.0863806935    -2.3490324631     0.7490662374
   44      H      -6.8080927203    -1.6254408567    -0.8647832871
   45      H      -5.3394374653    -3.9243979483     0.3779687349
   46      H      -5.0282881255    -3.2318579925    -1.2436012683
   47      H      -3.0788532111    -2.8483277244     0.7555834981
   48      H      -4.5783778373     3.9469817220     0.8187384685
   49      H      -4.6738082937     4.4590969302    -0.9141893171
   50      H       0.3236482627     2.3801818896     0.2529726016
   51      H       1.2193618315     3.7187709771     1.0694146533
   52      H       1.0989376368     2.0953329320     1.8719143964
   53      H       0.8491296207    -2.4322149123    -0.6245372656
   54      H       0.4834162519    -0.8735127242    -1.4832805170
   55      H       0.4502501474    -1.3032049429     1.6250621598
   56      H       0.1013863001     0.2536801485     0.7780887137
 ----------------------------------------------------------------

   11   -1510.2841294950      3.32E-09 Convergence criterion met
 Total energy in the final basis set = -1510.28412950
 Final energy is   -1510.28412949505
 **  OPTIMIZATION CONVERGED  **

                    Orbital Energies (a.u.)
 --------------------------------------------------------------

 Alpha MOs
 -- Occupied --
-18.936 -18.933 -18.932 -18.928 -18.888 -18.886 -18.877 -18.875
-18.872 -18.869 -10.100 -10.099 -10.099 -10.095 -10.067 -10.064
-10.061 -10.061 -10.060 -10.057 -10.056 -10.054 -10.039 -10.038
-10.037 -10.035 -10.021 -10.020 -10.019 -10.019  -1.015  -1.012
 -1.006  -1.005  -0.970  -0.968  -0.939  -0.935  -0.934  -0.931
 -0.764  -0.761  -0.727  -0.722  -0.711  -0.705  -0.692  -0.661
 -0.659  -0.613  -0.596  -0.581  -0.545  -0.544  -0.537  -0.536
 -0.512  -0.510  -0.483  -0.479  -0.464  -0.459  -0.450  -0.441
 -0.432  -0.431  -0.428  -0.410  -0.410  -0.408  -0.404  -0.399
 -0.390  -0.376  -0.375  -0.367  -0.360  -0.358  -0.355  -0.348
 -0.347  -0.341  -0.333  -0.330  -0.329  -0.326  -0.321  -0.310
 -0.308  -0.305  -0.303  -0.299  -0.291  -0.288  -0.286  -0.275
 -0.272  -0.255  -0.249  -0.246  -0.243  -0.234  -0.232  -0.184
 -0.174  -0.172  -0.166  -0.160  -0.155  -0.152  -0.147  -0.143
 -0.142

          Ground-State Mulliken Net Atomic Charges

     Atom                 Charge (a.u.)
  ----------------------------------------
      1 O                    -0.213805
      2 C                     0.209206
      3 C                    -0.079642
      4 C                    -0.078370
      5 C                     0.211867
      6 O                    -0.167308
      7 C                    -0.050289
      8 C                    -0.057889
      9 O                    -0.168788
     10 C                     0.211071
     11 C                    -0.077035
     12 C                    -0.077444
     13 C                     0.214392
     14 O                    -0.212678
     15 O                    -0.168892
     16 O                    -0.175512
     17 O                    -0.210269
     18 C                    -0.138684
     19 C                     0.026076
     20 C                    -0.144244
     21 C                    -0.143368
     22 C                     0.024952
     23 O                    -0.185126
     24 H                     0.087161
     25 H                     0.084988
     26 H                     0.082325
     27 H                     0.078165
     28 H                     0.073952
     29 H                     0.078165
     30 H                     0.073218
     31 H                     0.089867
     32 O                    -0.218681
     33 C                    -0.128504
     34 C                     0.025792
     35 C                    -0.143907
     36 C                    -0.144362
     37 C                     0.023574
     38 O                    -0.186472
     39 H                     0.086192
     40 H                     0.084757
     41 H                     0.090971
     42 H                     0.082647
     43 H                     0.077949
     44 H                     0.073753
     45 H                     0.077993
     46 H                     0.072677
     47 H                     0.093001
     48 H                     0.087730
     49 H                     0.089879
     50 H                     0.093147
     51 H                     0.085348
     52 H                     0.100132
     53 H                     0.084169
     54 H                     0.102757
     55 H                     0.097636
     56 H                     0.095758
  ----------------------------------------
  Sum of atomic charges =     0.000000

                    Cartesian Multipole Moments
 -----------------------------------------------------------------
    Charge (ESU x 10^10)
                 0.0000
    Dipole Moment (Debye)
         X      -0.0085      Y       0.4272      Z      -1.6086
       Tot       1.6644
    Quadrupole Moments (Debye-Ang)
        XX    -133.7865     XY       4.9921     YY    -150.7619
        XZ       1.8337     YZ       6.6460     ZZ    -169.4359

 Total job time:  67.86s(wall), 3229.70s(cpu)
        *  Thank you very much for using Q-Chem.  Have a nice day.  *
