 Q-Chem 5.0, Q-Chem, Inc., Pleasanton, CA (2017)
 Q-Chem 5.0.1 for Intel X86 EM64T Linux

User input:
--------------------------------------------------------------
$molecule
0  1
O -3.5650516154 1.6624310553 1.2112496126
C -4.2339819009 1.379225933 0.1935153143
C -4.62225467 -0.0479786804 -0.3208748264
C -3.3701841805 -1.0147253725 -0.4729533421
C -2.0041050828 -0.3097321568 -0.1384371985
O -1.3327707463 -0.984117954 0.9346460971
C 0.0994177269 -0.6024450804 0.9216534159
C 0.9104575516 -1.4896206135 -0.0878730421
O 2.322148051 -1.0437361153 -0.0362072677
C 2.7500541369 -0.6176948268 -1.3439872969
C 4.2421636477 -0.1627297808 -1.2356945426
C 4.4401928913 0.971641042 -0.1433417144
C 3.087453522 1.5647116244 0.3926816333
O 2.7353866587 1.7416296744 1.5778369606
O -4.7960328067 2.3506380151 -0.6957986621
O 2.3069468431 1.9195364353 -0.7582475159
O 2.0391060929 -0.6806266184 -2.3705233645
C 1.03534186 2.5821740277 -0.3770336344
C 5.1384761852 -1.3150245107 -0.6034620953
C 6.6600233787 -0.8998105353 -0.7177016971
C 6.7820595585 0.1536111795 0.4474622377
C 5.2889676989 0.2089479154 0.9556529495
O 4.8485380081 -1.2013669498 0.8432918897
H 4.5881451859 0.1514839811 -2.2355159308
H 5.0204149698 1.8111923216 -0.5694137611
H 4.8998509276 -2.3329624233 -0.9682173131
H 7.310816771 -1.7719604487 -0.5467467379
H 6.8974927277 -0.4706519385 -1.7043930159
H 7.4475709378 -0.2080430276 1.2475490616
H 7.1449528015 1.1343484557 0.1008533601
H 5.1368246885 0.5822029951 1.9871024258
O -1.5233026914 0.6660989928 -0.7616035577
C -4.4409269142 3.7150337476 -0.2403684571
C -5.4760175821 -0.8469351961 0.7609701398
C -6.1418852279 -2.0875408597 0.0458839119
C -4.9021050619 -3.0427828215 -0.1204908452
C -3.7562877075 -2.173719018 0.5344819104
O -4.4467196371 -1.4561565749 1.6316959407
H -5.1702225255 0.0619177324 -1.2728850642
H -3.2930136065 -1.3861124115 -1.5117322162
H -3.3415866392 3.8535575086 -0.1936503598
H -6.166072147 -0.2186014781 1.3569327067
H -6.9128049495 -2.5344681047 0.6935734145
H -6.603788595 -1.8148154103 -0.9164042539
H -5.0390441464 -3.9825915167 0.4378167899
H -4.6894291719 -3.2853334687 -1.1739683564
H -2.8892111486 -2.7379687062 0.9262102846
H -4.8660301233 3.934682733 0.7603802529
H -4.8716392881 4.4083229831 -0.9859451952
H 0.1722087178 1.9575755174 -0.7003379402
H 0.9910286652 3.5633952631 -0.8885295977
H 1.0042469279 2.727860148 0.7214533605
H 0.8606822309 -2.5585793395 0.2065018224
H 0.5361047992 -1.3645274042 -1.1277625674
H 0.4728348062 -0.7698652188 1.9516183652
H 0.2156179995 0.464602759 0.6636705703
$end

$rem
JOBTYPE                   OPT
METHOD                    B3LYP
DFT_D                     d3_op
BASIS                     STO-3G
GEOM_OPT_MAX_CYCLES       100
GEOM_OPT_TOL_GRADIENT     300
GEOM_OPT_TOL_DISPLACEMENT 1200
GEOM_OPT_TOL_ENERGY       100
SYMMETRY                  False
THRESH                    12
SCF_CONVERGENCE           8
MAX_SUB_FILE_NUM          128
MEM_STATIC                400
MEM_TOTAL                 4000
$end
--------------------------------------------------------------

   16   -1510.2845755791      7.21E-09 Convergence criterion met
 Total energy in the final basis set = -1510.28457558
   14   -1510.2825163316      5.27E-09 Convergence criterion met
 Total energy in the final basis set = -1510.28251633
   14   -1510.2847979060      2.61E-09 Convergence criterion met
 Total energy in the final basis set = -1510.28479791
   14   -1510.2879766953      3.19E-09 Convergence criterion met
 Total energy in the final basis set = -1510.28797670
   14   -1510.2894772602      1.37E-09 Convergence criterion met
 Total energy in the final basis set = -1510.28947726
   14   -1510.2892113378      1.43E-09 Convergence criterion met
 Total energy in the final basis set = -1510.28921134
   14   -1510.2889443423      2.29E-09 Convergence criterion met
 Total energy in the final basis set = -1510.28894434
   13   -1510.2900987003      7.85E-09 Convergence criterion met
   12   -1510.2936331782      3.63E-09 Convergence criterion met
 Total energy in the final basis set = -1510.29363318
   13   -1510.2936170221      2.56E-09 Convergence criterion met
 Total energy in the final basis set = -1510.29361702
   12   -1510.2936447314      5.50E-09 Convergence criterion met
 Total energy in the final basis set = -1510.29364473
   11   -1510.2936496320      7.28E-09 Convergence criterion met
 Total energy in the final basis set = -1510.29364963
   11   -1510.2936526869      8.78E-09 Convergence criterion met
 Total energy in the final basis set = -1510.29365269
   11   -1510.2936604074      5.76E-09 Convergence criterion met
 Total energy in the final basis set = -1510.29366041

             Standard Nuclear Orientation (Angstroms)
    I     Atom           X                Y                Z
 ----------------------------------------------------------------
    1      O      -2.0129507031     1.3433162371     0.1078816818
    2      C      -3.2600525189     1.3205983472     0.2256110970
    3      C      -4.2405764965     0.2352437719    -0.3345563912
    4      C      -3.4875899692    -1.0120487793    -0.9588179066
    5      C      -1.9185963219    -0.8898464217    -0.9096008648
    6      O      -1.4604197587    -1.3475219762     0.3634181225
    7      C      -0.0269790721    -1.0359311147     0.5816300460
    8      C       0.9586121465    -1.8251587404    -0.3569034654
    9      O       2.2920824271    -1.2366936886    -0.0898163612
   10      C       3.1164899039    -1.2357670092    -1.2609899425
   11      C       4.4036839109    -0.4142472114    -0.9135378811
   12      C       4.0668368845     1.0379174366    -0.3610347972
   13      C       2.5303198687     1.3714174295    -0.3640755109
   14      O       1.8026859233     1.6572811394     0.6128331332
   15      O      -4.0137361109     2.3207237302     0.9068638894
   16      O       2.0972372419     1.3430496119    -1.7246280807
   17      O       2.8225967871    -1.7925233013    -2.3397198277
   18      C       0.6635563734     1.7111152027    -1.8419892736
   19      C       5.1762709093    -1.0223910700     0.3367134499
   20      C       6.5997079294    -0.3404540709     0.4258219917
   21      C       6.2264804820     1.0731256873     1.0105377822
   22      C       4.6559308213     0.9543396471     1.1059698349
   23      O       4.4444658392    -0.4605598252     1.4933212400
   24      H       5.0386701828    -0.3736851094    -1.8155873916
   25      H       4.5838804052     1.8073146782    -0.9632268931
   26      H       5.1803551337    -2.1288855627     0.3801104633
   27      H       7.2535588933    -0.9029804707     1.1110681016
   28      H       7.0908201584    -0.2777076405    -0.5584267909
   29      H       6.6635139813     1.2226876987     2.0106636464
   30      H       6.5441609695     1.9022543328     0.3584742606
   31      H       4.1595683964     1.6295102401     1.8297688644
   32      O      -1.1916145141    -0.5702469265    -1.8815703592
   33      C      -3.1040031700     3.3543661698     1.4568759537
   34      C      -5.0883156232    -0.4627266569     0.8149913210
   35      C      -6.2896799911    -1.2375737292     0.1430373245
   36      C      -5.5417073444    -2.4757189217    -0.4767434616
   37      C      -4.0504995155    -2.1817505077    -0.0438650637
   38      O      -4.1951602315    -1.5446713786     1.2858413650
   39      H      -4.9030484156     0.7201439561    -1.0748428078
   40      H      -3.7712859494    -1.1469606977    -2.0173804331
   41      H      -2.5777593491     3.9022807072     0.6486758803
   42      H      -5.3623269545     0.2135881419     1.6479400150
   43      H      -7.0214024518    -1.5463799433     0.9066089762
   44      H      -6.8060438413    -0.6265982058    -0.6145533352
   45      H      -5.8913849592    -3.4218798315    -0.0341591340
   46      H      -5.6517151565    -2.5356951697    -1.5713375649
   47      H      -3.3932461739    -3.0696933026     0.0219255023
   48      H      -2.3461628165     2.9101835042     2.1336352666
   49      H      -3.7462888874     4.0541667652     2.0222531123
   50      H       0.0249471956     0.7964880387    -1.9006743988
   51      H       0.5602064291     2.2994005824    -2.7727134028
   52      H       0.3450105670     2.3149125690    -0.9698358218
   53      H       0.9559990850    -2.9106525306    -0.1186068616
   54      H       0.6722254993    -1.6853929206    -1.4203957492
   55      H       0.1660844554    -1.3084007537     1.6383639315
   56      H       0.1597022766     0.0549697221     0.4635182225
 ----------------------------------------------------------------

    9   -1510.2936603634      3.06E-09 Convergence criterion met
 Total energy in the final basis set = -1510.29366036
 Final energy is   -1510.29366036342
 **  OPTIMIZATION CONVERGED  **

                    Orbital Energies (a.u.)
 --------------------------------------------------------------

 Alpha MOs
 -- Occupied --
-18.948 -18.930 -18.924 -18.918 -18.890 -18.890 -18.882 -18.870
-18.869 -18.862 -10.111 -10.103 -10.092 -10.089 -10.071 -10.063
-10.061 -10.059 -10.057 -10.055 -10.052 -10.044 -10.037 -10.031
-10.029 -10.029 -10.023 -10.021 -10.016 -10.015  -1.024  -1.008
 -1.003  -0.995  -0.972  -0.964  -0.947  -0.935  -0.929  -0.923
 -0.766  -0.757  -0.727  -0.721  -0.712  -0.701  -0.688  -0.669
 -0.643  -0.609  -0.594  -0.578  -0.548  -0.540  -0.539  -0.531
 -0.516  -0.505  -0.486  -0.471  -0.466  -0.455  -0.448  -0.439
 -0.436  -0.429  -0.425  -0.418  -0.412  -0.399  -0.397  -0.394
 -0.383  -0.380  -0.374  -0.363  -0.360  -0.356  -0.351  -0.341
 -0.337  -0.336  -0.335  -0.329  -0.326  -0.321  -0.319  -0.316
 -0.308  -0.304  -0.302  -0.299  -0.290  -0.284  -0.283  -0.274
 -0.267  -0.263  -0.248  -0.238  -0.236  -0.235  -0.228  -0.189
 -0.177  -0.168  -0.164  -0.157  -0.149  -0.147  -0.144  -0.141
 -0.137

          Ground-State Mulliken Net Atomic Charges

     Atom                 Charge (a.u.)
  ----------------------------------------
      1 O                    -0.207142
      2 C                     0.216070
      3 C                    -0.078312
      4 C                    -0.081325
      5 C                     0.223399
      6 O                    -0.168721
      7 C                    -0.051622
      8 C                    -0.056599
      9 O                    -0.172120
     10 C                     0.212327
     11 C                    -0.077891
     12 C                    -0.077600
     13 C                     0.212835
     14 O                    -0.220211
     15 O                    -0.167375
     16 O                    -0.177126
     17 O                    -0.210479
     18 C                    -0.151602
     19 C                     0.025852
     20 C                    -0.144122
     21 C                    -0.143861
     22 C                     0.024369
     23 O                    -0.185821
     24 H                     0.084752
     25 H                     0.083036
     26 H                     0.081805
     27 H                     0.076987
     28 H                     0.073259
     29 H                     0.076889
     30 H                     0.072461
     31 H                     0.088603
     32 O                    -0.223714
     33 C                    -0.128061
     34 C                     0.025022
     35 C                    -0.143624
     36 C                    -0.144236
     37 C                     0.026731
     38 O                    -0.186523
     39 H                     0.087323
     40 H                     0.084320
     41 H                     0.090762
     42 H                     0.087964
     43 H                     0.078754
     44 H                     0.073716
     45 H                     0.078531
     46 H                     0.073928
     47 H                     0.087292
     48 H                     0.095704
     49 H                     0.093167
     50 H                     0.109868
     51 H                     0.078604
     52 H                     0.089578
     53 H                     0.080465
     54 H                     0.105269
     55 H                     0.092443
     56 H                     0.106001
  ----------------------------------------
  Sum of atomic charges =    -0.000000

                    Cartesian Multipole Moments
 -----------------------------------------------------------------
    Charge (ESU x 10^10)
                 0.0000
    Dipole Moment (Debye)
         X      -1.8563      Y       1.4404      Z      -0.0679
       Tot       2.3506
    Quadrupole Moments (Debye-Ang)
        XX    -132.9020     XY       1.7629     YY    -151.3023
        XZ       3.9175     YZ       1.0913     ZZ    -168.7703

 Total job time:  102.71s(wall), 4896.53s(cpu)
        *  Thank you very much for using Q-Chem.  Have a nice day.  *
