 Q-Chem 5.0, Q-Chem, Inc., Pleasanton, CA (2017)
 Q-Chem 5.0.1 for Intel X86 EM64T Linux

User input:
--------------------------------------------------------------
$molecule
0  1
O -3.94934 -3.66094 2.70899
C -3.26408 -4.56952 2.26188
C -3.36658 -6.02376 2.66595
C -3.28771 -6.34293 4.16787
C -3.29375 -5.15956 5.11004
O -4.35425 -5.25305 5.96562
C -4.2076 -4.44065 7.13513
C -3.38636 -5.17801 8.18774
O -3.24309 -4.35894 9.35884
C -1.9669 -4.07582 9.71984
C -1.8828 -3.21597 10.95849
C -2.64531 -1.88554 10.87592
C -3.64907 -1.7682 9.74659
O -4.80493 -1.3872 9.86235
O -2.29871 -4.2705 1.35305
O -3.08367 -1.67525 8.51332
O -0.96588 -4.45012 9.12135
C -3.65035 -0.98204 7.4588
C -2.542 -3.84807 12.2004
C -1.91642 -3.25952 13.46302
C -2.45905 -1.84514 13.41244
C -3.41058 -1.95836 12.21367
O -3.83671 -3.29936 12.23693
H -0.80089 -3.05748 11.17375
H -1.96398 -1.0092 10.80392
H -2.47837 -4.95816 12.21535
H -2.3816 -3.78919 14.32545
H -0.81083 -3.33974 13.54094
H -3.01764 -1.65118 14.35485
H -1.69972 -1.05049 13.24599
H -4.21104 -1.19029 12.29064
O -2.38899 -4.3352 5.17493
C -2.04387 -3.0006 0.87916
C -4.74521 -6.62221 2.31797
C -4.61467 -8.12903 2.1179
C -4.3536 -8.57581 3.53957
C -4.54285 -7.24784 4.2872
O -5.48346 -6.54724 3.51314
H -2.58836 -6.57613 2.09008
H -2.36349 -6.91141 4.41294
H -1.75407 -2.33056 1.71674
H -5.21514 -6.15686 1.42355
H -5.61892 -8.49745 1.80702
H -3.85982 -8.45723 1.37136
H -5.13654 -9.31416 3.8224
H -3.34359 -9.00092 3.72586
H -4.8313 -7.46949 5.33754
H -2.94304 -2.59551 0.36749
H -1.20797 -3.04479 0.15128
H -2.99946 -1.0792 6.5656
H -3.73726 0.09455 7.71845
H -4.66011 -1.37959 7.22029
H -3.91958 -6.1109 8.46919
H -2.4265 -5.48908 7.72205
H -5.21436 -4.24114 7.55946
H -3.76077 -3.4661 6.88813
$end

$opt
CONSTRAINT
tors           1           2           3           4     -52.792
tors           3           4           5           6    +121.100
tors           4           5           6           7    +161.245
tors           5           6           7           8     -84.132
tors           6           7           8           9    -179.965
tors           7           8           9          10    -121.459
tors           8           9          10          11    -179.838
tors           9          10          11          12     -56.173
tors          11          12          13          14    +131.053
ENDCONSTRAINT
$end

$rem
JOBTYPE                   OPT
METHOD                    B3LYP
DFT_D                     d3_op
BASIS                     STO-3G
GEOM_OPT_MAX_CYCLES       100
GEOM_OPT_TOL_GRADIENT     300
GEOM_OPT_TOL_DISPLACEMENT 1200
GEOM_OPT_TOL_ENERGY       100
SYMMETRY                  False
THRESH                    12
SCF_CONVERGENCE           8
MAX_SUB_FILE_NUM          128
MEM_STATIC                400
MEM_TOTAL                 4000
$end
--------------------------------------------------------------

   15   -1510.1519250230      6.25E-09 Convergence criterion met
 Total energy in the final basis set = -1510.15192502
   13   -1510.2205710089      9.31E-09 Convergence criterion met
 Total energy in the final basis set = -1510.22057101
   14   -1510.2565269049      8.29E-09 Convergence criterion met
 Total energy in the final basis set = -1510.25652690
   14   -1510.2713047731      7.80E-09 Convergence criterion met
 Total energy in the final basis set = -1510.27130477
   14   -1510.2737771335      6.43E-09 Convergence criterion met
 Total energy in the final basis set = -1510.27377713
    2   -1510.2737771335      4.29E-09 Convergence criterion met
 Total energy in the final basis set = -1510.27377713
   13   -1510.2770995389      7.89E-09 Convergence criterion met
 Total energy in the final basis set = -1510.27709954
   12   -1510.2782520055      8.26E-09 Convergence criterion met
   10   -1510.2845575264      5.85E-09 Convergence criterion met
 Total energy in the final basis set = -1510.28455753
   10   -1510.2845840439      8.57E-09 Convergence criterion met
 Total energy in the final basis set = -1510.28458404
   11   -1510.2846000947      3.71E-09 Convergence criterion met
 Total energy in the final basis set = -1510.28460009
   10   -1510.2846088790      9.65E-09 Convergence criterion met
 Total energy in the final basis set = -1510.28460888
    9   -1510.2846106405      8.00E-09 Convergence criterion met
 Total energy in the final basis set = -1510.28461064
    9   -1510.2846116447      4.79E-09 Convergence criterion met
 Total energy in the final basis set = -1510.28461164

             Standard Nuclear Orientation (Angstroms)
    I     Atom           X                Y                Z
 ----------------------------------------------------------------
    1      O      -3.5650516154     1.6624310553     1.2112496126
    2      C      -4.2339819009     1.3792259330     0.1935153143
    3      C      -4.6222546700    -0.0479786804    -0.3208748264
    4      C      -3.3701841805    -1.0147253725    -0.4729533421
    5      C      -2.0041050828    -0.3097321568    -0.1384371985
    6      O      -1.3327707463    -0.9841179540     0.9346460971
    7      C       0.0994177269    -0.6024450804     0.9216534159
    8      C       0.9104575516    -1.4896206135    -0.0878730421
    9      O       2.3221480510    -1.0437361153    -0.0362072677
   10      C       2.7500541369    -0.6176948268    -1.3439872969
   11      C       4.2421636477    -0.1627297808    -1.2356945426
   12      C       4.4401928913     0.9716410420    -0.1433417144
   13      C       3.0874535220     1.5647116244     0.3926816333
   14      O       2.7353866587     1.7416296744     1.5778369606
   15      O      -4.7960328067     2.3506380151    -0.6957986621
   16      O       2.3069468431     1.9195364353    -0.7582475159
   17      O       2.0391060929    -0.6806266184    -2.3705233645
   18      C       1.0353418600     2.5821740277    -0.3770336344
   19      C       5.1384761852    -1.3150245107    -0.6034620953
   20      C       6.6600233787    -0.8998105353    -0.7177016971
   21      C       6.7820595585     0.1536111795     0.4474622377
   22      C       5.2889676989     0.2089479154     0.9556529495
   23      O       4.8485380081    -1.2013669498     0.8432918897
   24      H       4.5881451859     0.1514839811    -2.2355159308
   25      H       5.0204149698     1.8111923216    -0.5694137611
   26      H       4.8998509276    -2.3329624233    -0.9682173131
   27      H       7.3108167710    -1.7719604487    -0.5467467379
   28      H       6.8974927277    -0.4706519385    -1.7043930159
   29      H       7.4475709378    -0.2080430276     1.2475490616
   30      H       7.1449528015     1.1343484557     0.1008533601
   31      H       5.1368246885     0.5822029951     1.9871024258
   32      O      -1.5233026914     0.6660989928    -0.7616035577
   33      C      -4.4409269142     3.7150337476    -0.2403684571
   34      C      -5.4760175821    -0.8469351961     0.7609701398
   35      C      -6.1418852279    -2.0875408597     0.0458839119
   36      C      -4.9021050619    -3.0427828215    -0.1204908452
   37      C      -3.7562877075    -2.1737190180     0.5344819104
   38      O      -4.4467196371    -1.4561565749     1.6316959407
   39      H      -5.1702225255     0.0619177324    -1.2728850642
   40      H      -3.2930136065    -1.3861124115    -1.5117322162
   41      H      -3.3415866392     3.8535575086    -0.1936503598
   42      H      -6.1660721470    -0.2186014781     1.3569327067
   43      H      -6.9128049495    -2.5344681047     0.6935734145
   44      H      -6.6037885950    -1.8148154103    -0.9164042539
   45      H      -5.0390441464    -3.9825915167     0.4378167899
   46      H      -4.6894291719    -3.2853334687    -1.1739683564
   47      H      -2.8892111486    -2.7379687062     0.9262102846
   48      H      -4.8660301233     3.9346827330     0.7603802529
   49      H      -4.8716392881     4.4083229831    -0.9859451952
   50      H       0.1722087178     1.9575755174    -0.7003379402
   51      H       0.9910286652     3.5633952631    -0.8885295977
   52      H       1.0042469279     2.7278601480     0.7214533605
   53      H       0.8606822309    -2.5585793395     0.2065018224
   54      H       0.5361047992    -1.3645274042    -1.1277625674
   55      H       0.4728348062    -0.7698652188     1.9516183652
   56      H       0.2156179995     0.4646027590     0.6636705703
 ----------------------------------------------------------------

    9   -1510.2846121791      3.31E-09 Convergence criterion met
 Total energy in the final basis set = -1510.28461218
 Final energy is   -1510.28461217913
 **  OPTIMIZATION CONVERGED  **

                    Orbital Energies (a.u.)
 --------------------------------------------------------------

 Alpha MOs
 -- Occupied --
-18.937 -18.934 -18.929 -18.928 -18.888 -18.887 -18.878 -18.876
-18.875 -18.871 -10.104 -10.099 -10.098 -10.096 -10.066 -10.063
-10.063 -10.061 -10.061 -10.058 -10.057 -10.047 -10.040 -10.038
-10.037 -10.037 -10.021 -10.020 -10.020 -10.019  -1.016  -1.012
 -1.008  -1.004  -0.970  -0.969  -0.941  -0.935  -0.933  -0.933
 -0.764  -0.763  -0.727  -0.722  -0.711  -0.705  -0.692  -0.662
 -0.655  -0.613  -0.596  -0.581  -0.546  -0.545  -0.538  -0.537
 -0.512  -0.510  -0.484  -0.480  -0.465  -0.460  -0.451  -0.440
 -0.434  -0.431  -0.429  -0.411  -0.410  -0.408  -0.405  -0.396
 -0.392  -0.376  -0.373  -0.370  -0.360  -0.359  -0.356  -0.348
 -0.344  -0.341  -0.332  -0.331  -0.329  -0.326  -0.323  -0.310
 -0.309  -0.305  -0.304  -0.297  -0.292  -0.289  -0.286  -0.276
 -0.273  -0.255  -0.250  -0.244  -0.244  -0.233  -0.233  -0.185
 -0.175  -0.173  -0.165  -0.160  -0.158  -0.152  -0.149  -0.143
 -0.142

          Ground-State Mulliken Net Atomic Charges

     Atom                 Charge (a.u.)
  ----------------------------------------
      1 O                    -0.212092
      2 C                     0.208347
      3 C                    -0.079579
      4 C                    -0.078138
      5 C                     0.215168
      6 O                    -0.165231
      7 C                    -0.053895
      8 C                    -0.058914
      9 O                    -0.169714
     10 C                     0.213161
     11 C                    -0.076959
     12 C                    -0.077169
     13 C                     0.212738
     14 O                    -0.212899
     15 O                    -0.168537
     16 O                    -0.175532
     17 O                    -0.212394
     18 C                    -0.146195
     19 C                     0.026133
     20 C                    -0.144465
     21 C                    -0.143025
     22 C                     0.024356
     23 O                    -0.184775
     24 H                     0.087091
     25 H                     0.084459
     26 H                     0.082272
     27 H                     0.078020
     28 H                     0.073666
     29 H                     0.078139
     30 H                     0.073015
     31 H                     0.090484
     32 O                    -0.218572
     33 C                    -0.128615
     34 C                     0.025907
     35 C                    -0.143766
     36 C                    -0.144418
     37 C                     0.024064
     38 O                    -0.185711
     39 H                     0.086439
     40 H                     0.085987
     41 H                     0.091388
     42 H                     0.083169
     43 H                     0.078242
     44 H                     0.073924
     45 H                     0.078210
     46 H                     0.072849
     47 H                     0.092131
     48 H                     0.088272
     49 H                     0.090135
     50 H                     0.104444
     51 H                     0.083589
     52 H                     0.095963
     53 H                     0.084525
     54 H                     0.098850
     55 H                     0.095641
     56 H                     0.099820
  ----------------------------------------
  Sum of atomic charges =     0.000000

                    Cartesian Multipole Moments
 -----------------------------------------------------------------
    Charge (ESU x 10^10)
                 0.0000
    Dipole Moment (Debye)
         X      -0.0927      Y      -0.0754      Z      -2.1063
       Tot       2.1097
    Quadrupole Moments (Debye-Ang)
        XX    -133.9807     XY       2.8936     YY    -149.5395
        XZ       1.0724     YZ       1.8984     ZZ    -171.6961

 Total job time:  76.37s(wall), 3634.74s(cpu)
        *  Thank you very much for using Q-Chem.  Have a nice day.  *
