 Q-Chem 5.0, Q-Chem, Inc., Pleasanton, CA (2017)
 Q-Chem 5.0.1 for Intel X86 EM64T Linux

User input:
--------------------------------------------------------------
$molecule
0  1
O -3.94934 -3.66094 2.70899
C -3.26408 -4.56952 2.26188
C -3.36658 -6.02376 2.66595
C -3.1787 -6.35398 4.15575
C -3.08612 -5.1767 5.10102
O -3.95074 -5.34997 6.14401
C -3.81554 -4.35019 7.1596
C -2.62451 -4.67015 8.05693
O -2.59778 -3.76866 9.17473
C -1.37223 -3.2985 9.51549
C -1.37671 -2.53339 10.8175
C -2.28621 -1.2962 10.83818
C -3.30569 -1.20678 9.72042
O -4.50822 -1.04446 9.86919
O -2.3257 -4.27638 1.32332
O -2.79281 -1.04969 8.47027
O -0.34205 -3.50537 8.88609
C -3.51706 -0.59291 7.38726
C -1.94172 -3.32334 12.01468
C -1.36805 -2.75862 13.31246
C -2.06717 -1.41434 13.36835
C -3.01844 -1.54826 12.17151
O -3.2897 -2.92782 12.10006
H -0.31839 -2.26182 11.03742
H -1.70315 -0.34925 10.81935
H -1.75346 -4.41722 11.94821
H -1.75809 -3.39763 14.13724
H -0.25946 -2.7185 13.37746
H -2.62928 -1.3522 14.32644
H -1.40442 -0.52918 13.25429
H -3.89888 -0.88266 12.3072
O -2.22085 -4.31124 5.02983
C -2.08399 -3.00932 0.83518
C -4.77429 -6.60122 2.41791
C -4.68044 -8.10889 2.20543
C -4.32395 -8.56488 3.60357
C -4.43627 -7.23748 4.36777
O -5.42008 -6.51924 3.6659
H -2.63502 -6.58385 2.0384
H -2.23867 -6.92783 4.31287
H -1.76969 -2.33501 1.66041
H -5.30159 -6.12519 1.562
H -5.7096 -8.46207 1.96685
H -3.98597 -8.4445 1.40548
H -5.09652 -9.29138 3.94058
H -3.31051 -9.00784 3.71461
H -4.65451 -7.4627 5.43353
H -2.99729 -2.60629 0.34749
H -1.26951 -3.05815 0.0837
H -2.87118 -0.60284 6.48548
H -3.85582 0.44852 7.57311
H -4.40621 -1.23179 7.20888
H -2.78138 -5.69531 8.45648
H -1.69124 -4.69072 7.45588
H -4.72712 -4.38755 7.79342
H -3.75651 -3.33112 6.72715
$end

$opt
CONSTRAINT
tors           1           2           3           4     -57.412
tors           3           4           5           6    +129.755
tors           4           5           6           7    +173.444
tors           5           6           7           8     -79.720
tors           6           7           8           9    -172.408
tors           7           8           9          10    -138.356
tors           8           9          10          11    -171.062
tors           9          10          11          12     -60.066
tors          11          12          13          14    +126.717
ENDCONSTRAINT
$end

$rem
JOBTYPE                   OPT
METHOD                    B3LYP
DFT_D                     d3_op
BASIS                     STO-3G
GEOM_OPT_MAX_CYCLES       100
GEOM_OPT_TOL_GRADIENT     300
GEOM_OPT_TOL_DISPLACEMENT 1200
GEOM_OPT_TOL_ENERGY       100
SYMMETRY                  False
THRESH                    12
SCF_CONVERGENCE           8
MAX_SUB_FILE_NUM          128
MEM_STATIC                400
MEM_TOTAL                 4000
$end
--------------------------------------------------------------

   15   -1510.1568598257      6.24E-09 Convergence criterion met
 Total energy in the final basis set = -1510.15685983
   13   -1510.2251988576      9.70E-09 Convergence criterion met
 Total energy in the final basis set = -1510.22519886
   14   -1510.2609973919      8.83E-09 Convergence criterion met
 Total energy in the final basis set = -1510.26099739
   13   -1510.2757993352      9.49E-09 Convergence criterion met
 Total energy in the final basis set = -1510.27579934
   13   -1510.2789573622      8.41E-09 Convergence criterion met
 Total energy in the final basis set = -1510.27895736
    2   -1510.2789573622      9.62E-09 Convergence criterion met
 Total energy in the final basis set = -1510.27895736
   13   -1510.2800404059      8.37E-09 Convergence criterion met
 Total energy in the final basis set = -1510.28004041
   13   -1510.2814607596      4.08E-09 Convergence criterion met
   10   -1510.2853279559      9.34E-09 Convergence criterion met
 Total energy in the final basis set = -1510.28532796
    9   -1510.2853306990      3.41E-09 Convergence criterion met
 Total energy in the final basis set = -1510.28533070
    9   -1510.2853344263      3.43E-09 Convergence criterion met
 Total energy in the final basis set = -1510.28533443
    9   -1510.2853371509      2.48E-09 Convergence criterion met
 Total energy in the final basis set = -1510.28533715
    9   -1510.2853396239      1.87E-09 Convergence criterion met
 Total energy in the final basis set = -1510.28533962
    9   -1510.2853414641      1.47E-09 Convergence criterion met
 Total energy in the final basis set = -1510.28534146

             Standard Nuclear Orientation (Angstroms)
    I     Atom           X                Y                Z
 ----------------------------------------------------------------
    1      O      -3.5880327229     1.6186453755     1.2377857337
    2      C      -4.2696368692     1.3627537084     0.2217116283
    3      C      -4.7532859817    -0.0418639847    -0.2789413449
    4      C      -3.5675409201    -1.0693440090    -0.5290863362
    5      C      -2.1477468300    -0.4399157146    -0.2846366196
    6      O      -1.3757642802    -1.2815611679     0.5794383911
    7      C       0.0080886542    -0.7573247407     0.6721628783
    8      C       0.8591756956    -1.1680496153    -0.5809860142
    9      O       2.2573007835    -0.7638348919    -0.3123627104
   10      C       2.8518152216    -0.1876661125    -1.4891259742
   11      C       4.3777832786    -0.0024087014    -1.1972436998
   12      C       4.6429819386     0.9556383276     0.0422294244
   13      C       3.3183493046     1.5230979736     0.6667150767
   14      O       2.9447841794     1.4790090809     1.8574863440
   15      O      -4.7570082767     2.3542359196    -0.6902396292
   16      O       2.5771342679     2.1335533704    -0.4011001850
   17      O       2.2414279391     0.0231714036    -2.5588733714
   18      C       1.2793630663     2.6612487484     0.0808211047
   19      C       5.0506606399    -1.3441661541    -0.6741218841
   20      C       6.6200426841    -1.1637059345    -0.7325590670
   21      C       6.8666174301    -0.2300791947     0.5111308550
   22      C       5.3910722795    -0.0255474694     1.0349388385
   23      O       4.7510327032    -1.3367471943     0.7745515079
   24      H       4.8598239040     0.3756251709    -2.1153999494
   25      H       5.2817689652     1.8086558456    -0.2519340917
   26      H       4.6631639396    -2.2676211221    -1.1464322426
   27      H       7.1249101452    -2.1358024023    -0.6159118064
   28      H       6.9483960462    -0.7056480515    -1.6792074398
   29      H       7.4802453387    -0.7311251193     1.2765864173
   30      H       7.3486535385     0.7225773856     0.2395885719
   31      H       5.2874281920     0.2490000919     2.1027421891
   32      O      -1.7176978011     0.6244014468    -0.7841377054
   33      C      -4.2934635758     3.6967464530    -0.2700273309
   34      C      -5.5675331454    -0.8103891475     0.8536519513
   35      C      -6.3450176792    -2.0087613264     0.1803230965
   36      C      -5.1705855888    -3.0233472926    -0.0804678658
   37      C      -3.9385442996    -2.2192569373     0.4954224692
   38      O      -4.5102038367    -1.4786743371     1.6441676698
   39      H      -5.3591001029     0.1064472305    -1.1898564311
   40      H      -3.5888465275    -1.4355817032    -1.5727014372
   41      H      -3.1860149940     3.7558339536    -0.2543834760
   42      H      -6.1806385075    -0.1549095037     1.5021647219
   43      H      -7.0904047667    -2.4225103915     0.8781154838
   44      H      -6.8588754239    -1.7036823600    -0.7452422574
   45      H      -5.3147486595    -3.9610499752     0.4795435072
   46      H      -5.0465665152    -3.2648407480    -1.1482572362
   47      H      -3.0741062957    -2.8293789551     0.8183605232
   48      H      -4.6744571301     3.9649333645     0.7366659601
   49      H      -4.6920763665     4.4063962960    -1.0181609651
   50      H       0.4556375127     2.1463774305    -0.4555891799
   51      H       1.2333805639     3.7462571870    -0.1364946017
   52      H       1.1906395990     2.4905770692     1.1728766068
   53      H       0.8151191310    -2.2694542715    -0.7247499907
   54      H       0.4958978009    -0.6645574622    -1.5028292990
   55      H       0.4432709613    -1.2134794884     1.5839615819
   56      H       0.0024414401     0.3451909588     0.7804973866
 ----------------------------------------------------------------

    9   -1510.2853420559      1.88E-09 Convergence criterion met
 Total energy in the final basis set = -1510.28534206
 Final energy is   -1510.28534205587
 **  OPTIMIZATION CONVERGED  **

                    Orbital Energies (a.u.)
 --------------------------------------------------------------

 Alpha MOs
 -- Occupied --
-18.938 -18.931 -18.931 -18.928 -18.887 -18.886 -18.879 -18.875
-18.874 -18.868 -10.102 -10.101 -10.098 -10.094 -10.069 -10.065
-10.061 -10.061 -10.059 -10.058 -10.057 -10.055 -10.039 -10.038
-10.037 -10.035 -10.021 -10.020 -10.019 -10.019  -1.016  -1.014
 -1.005  -1.004  -0.969  -0.969  -0.940  -0.937  -0.934  -0.930
 -0.764  -0.762  -0.728  -0.722  -0.712  -0.705  -0.692  -0.660
 -0.658  -0.614  -0.596  -0.581  -0.546  -0.545  -0.537  -0.537
 -0.513  -0.510  -0.482  -0.478  -0.465  -0.460  -0.450  -0.441
 -0.432  -0.431  -0.429  -0.411  -0.410  -0.407  -0.404  -0.399
 -0.392  -0.376  -0.375  -0.370  -0.361  -0.356  -0.355  -0.349
 -0.347  -0.341  -0.333  -0.330  -0.329  -0.326  -0.321  -0.310
 -0.309  -0.305  -0.303  -0.297  -0.292  -0.288  -0.287  -0.275
 -0.273  -0.255  -0.249  -0.247  -0.245  -0.234  -0.232  -0.183
 -0.174  -0.173  -0.168  -0.161  -0.157  -0.151  -0.147  -0.143
 -0.142

          Ground-State Mulliken Net Atomic Charges

     Atom                 Charge (a.u.)
  ----------------------------------------
      1 O                    -0.213764
      2 C                     0.209223
      3 C                    -0.079794
      4 C                    -0.078145
      5 C                     0.212322
      6 O                    -0.167081
      7 C                    -0.049670
      8 C                    -0.056790
      9 O                    -0.174060
     10 C                     0.214026
     11 C                    -0.077964
     12 C                    -0.077297
     13 C                     0.215923
     14 O                    -0.210429
     15 O                    -0.169072
     16 O                    -0.173649
     17 O                    -0.212525
     18 C                    -0.138806
     19 C                     0.026440
     20 C                    -0.143959
     21 C                    -0.143822
     22 C                     0.024488
     23 O                    -0.185306
     24 H                     0.085746
     25 H                     0.085390
     26 H                     0.082471
     27 H                     0.078013
     28 H                     0.073766
     29 H                     0.078313
     30 H                     0.073192
     31 H                     0.090286
     32 O                    -0.219396
     33 C                    -0.128459
     34 C                     0.025817
     35 C                    -0.143948
     36 C                    -0.144333
     37 C                     0.023403
     38 O                    -0.186535
     39 H                     0.086006
     40 H                     0.084893
     41 H                     0.091092
     42 H                     0.083063
     43 H                     0.078009
     44 H                     0.073678
     45 H                     0.078057
     46 H                     0.072582
     47 H                     0.093181
     48 H                     0.087779
     49 H                     0.089460
     50 H                     0.095663
     51 H                     0.085996
     52 H                     0.100002
     53 H                     0.082320
     54 H                     0.100528
     55 H                     0.096806
     56 H                     0.096873
  ----------------------------------------
  Sum of atomic charges =     0.000000

                    Cartesian Multipole Moments
 -----------------------------------------------------------------
    Charge (ESU x 10^10)
                 0.0000
    Dipole Moment (Debye)
         X       0.1038      Y      -0.1651      Z      -1.9402
       Tot       1.9500
    Quadrupole Moments (Debye-Ang)
        XX    -132.8317     XY       2.9695     YY    -150.1856
        XZ       1.9911     YZ       4.5909     ZZ    -171.7549

 Total job time:  86.35s(wall), 4111.21s(cpu)
        *  Thank you very much for using Q-Chem.  Have a nice day.  *
