 Q-Chem 5.0, Q-Chem, Inc., Pleasanton, CA (2017)
 Q-Chem 5.0.1 for Intel X86 EM64T Linux

User input:
--------------------------------------------------------------
$molecule
0  1
O -3.5880327229 1.6186453755 1.2377857337
C -4.2696368692 1.3627537084 0.2217116283
C -4.7532859817 -0.0418639847 -0.2789413449
C -3.5675409201 -1.069344009 -0.5290863362
C -2.14774683 -0.4399157146 -0.2846366196
O -1.3757642802 -1.2815611679 0.5794383911
C 0.0080886542 -0.7573247407 0.6721628783
C 0.8591756956 -1.1680496153 -0.5809860142
O 2.2573007835 -0.7638348919 -0.3123627104
C 2.8518152216 -0.1876661125 -1.4891259742
C 4.3777832786 -0.0024087014 -1.1972436998
C 4.6429819386 0.9556383276 0.0422294244
C 3.3183493046 1.5230979736 0.6667150767
O 2.9447841794 1.4790090809 1.857486344
O -4.7570082767 2.3542359196 -0.6902396292
O 2.5771342679 2.1335533704 -0.401100185
O 2.2414279391 0.0231714036 -2.5588733714
C 1.2793630663 2.6612487484 0.0808211047
C 5.0506606399 -1.3441661541 -0.6741218841
C 6.6200426841 -1.1637059345 -0.732559067
C 6.8666174301 -0.2300791947 0.511130855
C 5.3910722795 -0.0255474694 1.0349388385
O 4.7510327032 -1.3367471943 0.7745515079
H 4.859823904 0.3756251709 -2.1153999494
H 5.2817689652 1.8086558456 -0.2519340917
H 4.6631639396 -2.2676211221 -1.1464322426
H 7.1249101452 -2.1358024023 -0.6159118064
H 6.9483960462 -0.7056480515 -1.6792074398
H 7.4802453387 -0.7311251193 1.2765864173
H 7.3486535385 0.7225773856 0.2395885719
H 5.287428192 0.2490000919 2.1027421891
O -1.7176978011 0.6244014468 -0.7841377054
C -4.2934635758 3.696746453 -0.2700273309
C -5.5675331454 -0.8103891475 0.8536519513
C -6.3450176792 -2.0087613264 0.1803230965
C -5.1705855888 -3.0233472926 -0.0804678658
C -3.9385442996 -2.2192569373 0.4954224692
O -4.5102038367 -1.4786743371 1.6441676698
H -5.3591001029 0.1064472305 -1.1898564311
H -3.5888465275 -1.4355817032 -1.5727014372
H -3.186014994 3.7558339536 -0.254383476
H -6.1806385075 -0.1549095037 1.5021647219
H -7.0904047667 -2.4225103915 0.8781154838
H -6.8588754239 -1.70368236 -0.7452422574
H -5.3147486595 -3.9610499752 0.4795435072
H -5.0465665152 -3.264840748 -1.1482572362
H -3.0741062957 -2.8293789551 0.8183605232
H -4.6744571301 3.9649333645 0.7366659601
H -4.6920763665 4.406396296 -1.0181609651
H 0.4556375127 2.1463774305 -0.4555891799
H 1.2333805639 3.746257187 -0.1364946017
H 1.190639599 2.4905770692 1.1728766068
H 0.815119131 -2.2694542715 -0.7247499907
H 0.4958978009 -0.6645574622 -1.502829299
H 0.4432709613 -1.2134794884 1.5839615819
H 0.0024414401 0.3451909588 0.7804973866
$end

$rem
JOBTYPE                   OPT
METHOD                    B3LYP
DFT_D                     d3_op
BASIS                     STO-3G
GEOM_OPT_MAX_CYCLES       100
GEOM_OPT_TOL_GRADIENT     300
GEOM_OPT_TOL_DISPLACEMENT 1200
GEOM_OPT_TOL_ENERGY       100
SYMMETRY                  False
THRESH                    12
SCF_CONVERGENCE           8
MAX_SUB_FILE_NUM          128
MEM_STATIC                400
MEM_TOTAL                 4000
$end
--------------------------------------------------------------

   16   -1510.2851860633      6.09E-09 Convergence criterion met
 Total energy in the final basis set = -1510.28518606
   14   -1510.2858673693      4.35E-09 Convergence criterion met
 Total energy in the final basis set = -1510.28586737
   14   -1510.2874136068      2.06E-09 Convergence criterion met
 Total energy in the final basis set = -1510.28741361
   14   -1510.2853169746      3.66E-09 Convergence criterion met
 Total energy in the final basis set = -1510.28531697
   13   -1510.2873089268      4.97E-09 Convergence criterion met
 Total energy in the final basis set = -1510.28730893
   14   -1510.2674466109      5.56E-09 Convergence criterion met
 Total energy in the final basis set = -1510.26744661
   14   -1510.2879433686      4.24E-09 Convergence criterion met
 Total energy in the final basis set = -1510.28794337
   14   -1510.2879810467      2.94E-09 Convergence criterion met
   13   -1510.2987768692      1.72E-09 Convergence criterion met
 Total energy in the final basis set = -1510.29877687
   12   -1510.2987861756      6.04E-09 Convergence criterion met
 Total energy in the final basis set = -1510.29878618
   10   -1510.2988201418      9.21E-09 Convergence criterion met
 Total energy in the final basis set = -1510.29882014
   10   -1510.2988235395      9.91E-09 Convergence criterion met
 Total energy in the final basis set = -1510.29882354
   10   -1510.2988219054      9.69E-09 Convergence criterion met
 Total energy in the final basis set = -1510.29882191
   11   -1510.2988141420      6.38E-09 Convergence criterion met
 Total energy in the final basis set = -1510.29881414

             Standard Nuclear Orientation (Angstroms)
    I     Atom           X                Y                Z
 ----------------------------------------------------------------
    1      O      -3.2972058983     2.2552434049     0.0215945272
    2      C      -3.1081039583     1.1730045614    -0.5733853538
    3      C      -4.1075188715    -0.0445266601    -0.6232098050
    4      C      -3.5570394269    -1.4133594753    -0.0356258886
    5      C      -2.0830223241    -1.2905447475     0.4571954153
    6      O      -1.3172745966    -2.3531750157    -0.1175102646
    7      C       0.1328781675    -2.0939950808     0.0606541975
    8      C       0.5899828064    -1.0888743956    -1.0549268782
    9      O       1.9543138387    -0.6403651744    -0.6946172795
   10      C       2.3275832054     0.5489775994    -1.3908395294
   11      C       3.7881251693     0.9025407517    -0.9590833448
   12      C       3.9853080342     0.8939392236     0.6147122472
   13      C       2.6541577185     0.6693544972     1.4224708304
   14      O       2.4328854118    -0.1840547540     2.3075307382
   15      O      -1.9591582476     0.8948338532    -1.3883715619
   16      O       1.7295217340     1.6825254748     1.0157145788
   17      O       1.6072717390     1.1555945101    -2.2165313403
   18      C       0.4835749874     1.6072941039     1.8175355367
   19      C       4.7975009936    -0.2543108913    -1.3793178839
   20      C       6.2749759569     0.2759208574    -1.1942286960
   21      C       6.4368411659     0.1947042510     0.3700515572
   22      C       5.0023308795    -0.3076654976     0.7942236750
   23      O       4.6374785977    -1.2459541220    -0.2938802370
   24      H       4.0554370679     1.8745665730    -1.4083792473
   25      H       4.4287467868     1.8495107150     0.9501379666
   26      H       4.5822923412    -0.7156308293    -2.3628022610
   27      H       6.9886246161    -0.3851345428    -1.7109753577
   28      H       6.3977357197     1.3000320833    -1.5814344265
   29      H       7.2032123761    -0.5428048295     0.6573631029
   30      H       6.6908667829     1.1651874370     0.8249664516
   31      H       4.9326905081    -0.8112382647     1.7781320841
   32      O      -1.6243426653    -0.4078508124     1.2179707676
   33      C      -1.1236886476     2.1178106053    -1.5167191199
   34      C      -5.3394840627     0.2226974120     0.3379269422
   35      C      -6.5046530408    -0.7704762024    -0.0461280553
   36      C      -5.9546982971    -2.1240334458     0.5401773098
   37      C      -4.5803825921    -1.6515732056     1.1603567701
   38      O      -4.8654808296    -0.2854384423     1.6470059305
   39      H      -4.4261517487    -0.1789967271    -1.6733436436
   40      H      -3.6060840955    -2.2251760272    -0.7819950581
   41      H      -1.0203590656     2.6312940146    -0.5419369973
   42      H      -5.6167682843     1.2916081778     0.4186478055
   43      H      -7.4443468466    -0.4710559661     0.4443120671
   44      H      -6.6715754985    -0.8144186209    -1.1342610840
   45      H      -6.6143342313    -2.5212188359     1.3279850030
   46      H      -5.8171274041    -2.8988848807    -0.2307444010
   47      H      -4.1901434646    -2.2843893785     1.9810294471
   48      H      -1.5809645451     2.8225168542    -2.2401114759
   49      H      -0.1263461867     1.7850601816    -1.8830504313
   50      H      -0.1771579295     0.7657994126     1.5024739183
   51      H      -0.0422528398     2.5649833051     1.6495473582
   52      H       0.7102425096     1.4961756600     2.8962268649
   53      H       0.5966616247    -1.5862642433    -2.0488670959
   54      H      -0.1346333323    -0.2459452828    -1.0955526252
   55      H       0.6451882871    -3.0706030093    -0.0398416071
   56      H       0.3470896828    -1.6599818934     1.0611859406
 ----------------------------------------------------------------

   10   -1510.2988133260      8.60E-09 Convergence criterion met
 Total energy in the final basis set = -1510.29881333
 Final energy is   -1510.29881332598
 **  OPTIMIZATION CONVERGED  **

                    Orbital Energies (a.u.)
 --------------------------------------------------------------

 Alpha MOs
 -- Occupied --
-18.944 -18.942 -18.928 -18.923 -18.889 -18.888 -18.887 -18.884
-18.874 -18.867 -10.111 -10.109 -10.097 -10.094 -10.075 -10.071
-10.063 -10.062 -10.058 -10.057 -10.042 -10.041 -10.040 -10.039
-10.039 -10.035 -10.022 -10.022 -10.021 -10.020  -1.023  -1.018
 -1.006  -1.001  -0.972  -0.970  -0.948  -0.943  -0.932  -0.928
 -0.766  -0.764  -0.731  -0.724  -0.712  -0.706  -0.698  -0.652
 -0.649  -0.618  -0.598  -0.582  -0.547  -0.546  -0.538  -0.537
 -0.518  -0.509  -0.486  -0.477  -0.463  -0.461  -0.454  -0.447
 -0.436  -0.432  -0.430  -0.414  -0.409  -0.407  -0.401  -0.399
 -0.393  -0.379  -0.373  -0.368  -0.361  -0.359  -0.355  -0.352
 -0.342  -0.336  -0.334  -0.332  -0.330  -0.328  -0.325  -0.312
 -0.310  -0.306  -0.305  -0.299  -0.295  -0.289  -0.284  -0.279
 -0.271  -0.258  -0.255  -0.245  -0.243  -0.235  -0.235  -0.187
 -0.181  -0.173  -0.172  -0.161  -0.160  -0.151  -0.147  -0.145
 -0.144

          Ground-State Mulliken Net Atomic Charges

     Atom                 Charge (a.u.)
  ----------------------------------------
      1 O                    -0.208477
      2 C                     0.211155
      3 C                    -0.078614
      4 C                    -0.079610
      5 C                     0.217772
      6 O                    -0.168447
      7 C                    -0.050081
      8 C                    -0.054494
      9 O                    -0.167215
     10 C                     0.221509
     11 C                    -0.077961
     12 C                    -0.078233
     13 C                     0.213552
     14 O                    -0.216653
     15 O                    -0.181081
     16 O                    -0.179946
     17 O                    -0.215791
     18 C                    -0.145688
     19 C                     0.025793
     20 C                    -0.144065
     21 C                    -0.143607
     22 C                     0.024381
     23 O                    -0.186660
     24 H                     0.086472
     25 H                     0.084077
     26 H                     0.081520
     27 H                     0.078119
     28 H                     0.074013
     29 H                     0.078137
     30 H                     0.073591
     31 H                     0.090774
     32 O                    -0.212065
     33 C                    -0.147426
     34 C                     0.024840
     35 C                    -0.144323
     36 C                    -0.143560
     37 C                     0.026407
     38 O                    -0.185761
     39 H                     0.084664
     40 H                     0.087741
     41 H                     0.089373
     42 H                     0.091900
     43 H                     0.078884
     44 H                     0.073381
     45 H                     0.078797
     46 H                     0.073897
     47 H                     0.083931
     48 H                     0.078844
     49 H                     0.111087
     50 H                     0.108020
     51 H                     0.083907
     52 H                     0.085324
     53 H                     0.085148
     54 H                     0.103093
     55 H                     0.095245
     56 H                     0.104412
  ----------------------------------------
  Sum of atomic charges =     0.000000

                    Cartesian Multipole Moments
 -----------------------------------------------------------------
    Charge (ESU x 10^10)
                 0.0000
    Dipole Moment (Debye)
         X       0.4709      Y      -0.9371      Z      -2.1174
       Tot       2.3629
    Quadrupole Moments (Debye-Ang)
        XX    -139.1612     XY      13.7567     YY    -160.4032
        XZ       4.3572     YZ       1.0675     ZZ    -164.0777

 Total job time:  128.68s(wall), 6134.36s(cpu)
        *  Thank you very much for using Q-Chem.  Have a nice day.  *
