 Q-Chem 5.0, Q-Chem, Inc., Pleasanton, CA (2017)
 Q-Chem 5.0.1 for Intel X86 EM64T Linux

User input:
--------------------------------------------------------------
$molecule
0  1
O 3.4009149037 -1.5588843152 1.1573234967
C 4.2088863945 -1.3713181386 0.2217256961
C 4.6566227721 0.0012672703 -0.3838102953
C 3.4730822503 1.0508729421 -0.4793841695
C 2.0551644709 0.4247355531 -0.2236300203
O 1.3298868529 1.2045168047 0.7379754894
C -0.085155428 0.7607574251 0.7435138397
C -0.8800337076 1.3852900902 -0.4591772155
O -2.3115261285 1.0571248746 -0.2700547373
C -2.8229918476 0.3960443421 -1.441292384
C -4.3389687113 0.0932038822 -1.2000217857
C -4.5555281937 -0.9841157171 -0.0493300201
C -3.2100403557 -1.5393481652 0.5418599916
O -2.847934798 -1.5730672176 1.7369051745
O 4.9203793903 -2.4178498771 -0.4482692557
O -2.4416202672 -2.0399124275 -0.5604744581
O -2.1583909123 0.1884678187 -2.4798383563
C -1.1483936765 -2.6063840464 -0.1093683499
C -5.1190512661 1.3314569175 -0.5811504613
C -6.6699569251 1.0390898937 -0.6771507076
C -6.8586519897 -0.0047830906 0.4866313928
C -5.3761797326 -0.1429332066 1.0115865801
O -4.8332023949 1.2283386191 0.8672039139
H -4.7758618105 -0.2430559009 -2.1563726921
H -5.142530256 -1.8415850752 -0.4268110802
H -4.7999540914 2.3174309397 -0.9708205434
H -7.2466579942 1.9595770259 -0.4934495924
H -6.9550188225 0.6345065135 -1.6614552798
H -7.5127525564 0.390052169 1.2802505086
H -7.2685762262 -0.9653504625 0.1359438541
H -5.2602337177 -0.4964346915 2.0546198893
O 1.5700007442 -0.5631545103 -0.8217109039
C 4.5380692857 -3.7314456637 0.1208771313
C 5.6195873246 0.7521057842 0.6365079852
C 6.2589268183 1.999943486 -0.0936835973
C 5.0581523121 3.0171574205 -0.0725810506
C 3.9290198079 2.1337483273 0.5879603406
O 4.6687580477 1.3468728529 1.602242113
H 5.1418848894 -0.1775926228 -1.3589918996
H 3.4432897862 1.4922315452 -1.4933358162
H 3.4544218709 -3.9299122808 -0.0081216307
H 6.3395858196 0.0902261879 1.1559105753
H 7.1238677103 2.3785705264 0.4734579552
H 6.5869340229 1.7523630922 -1.1159404632
H 5.2819001468 3.8901314144 0.5612648666
H 4.779714232 3.3721840399 -1.0778367414
H 3.0921189636 2.6857888963 1.0560513398
H 4.7807155632 -3.795769744 1.2013176065
H 5.1217883984 -4.4874589885 -0.4357201988
H -0.3163168918 -2.0416013147 -0.5811410027
H -1.0981078618 -3.665945696 -0.4280601135
H -1.0773749864 -2.5411665859 0.9952012421
H -0.7617929043 2.4895177497 -0.4602662767
H -0.5398646901 0.9698671176 -1.432667639
H -0.5128232935 1.123958708 1.6995593056
H -0.151224266 -0.3428081088 0.7103459156
$end

$rem
JOBTYPE                   OPT
METHOD                    B3LYP
DFT_D                     d3_op
BASIS                     STO-3G
GEOM_OPT_MAX_CYCLES       100
GEOM_OPT_TOL_GRADIENT     300
GEOM_OPT_TOL_DISPLACEMENT 1200
GEOM_OPT_TOL_ENERGY       100
SYMMETRY                  False
THRESH                    12
SCF_CONVERGENCE           8
MAX_SUB_FILE_NUM          128
MEM_STATIC                400
MEM_TOTAL                 4000
$end
--------------------------------------------------------------

   16   -1510.2852934620      6.44E-09 Convergence criterion met
 Total energy in the final basis set = -1510.28529346
   14   -1510.2817327643      5.50E-09 Convergence criterion met
 Total energy in the final basis set = -1510.28173276
   14   -1510.2855526798      2.87E-09 Convergence criterion met
 Total energy in the final basis set = -1510.28555268
   14   -1510.2871960216      3.42E-09 Convergence criterion met
 Total energy in the final basis set = -1510.28719602
   14   -1510.2884485908      1.56E-09 Convergence criterion met
 Total energy in the final basis set = -1510.28844859
   14   -1510.2893452595      1.41E-09 Convergence criterion met
 Total energy in the final basis set = -1510.28934526
   13   -1510.2900576268      9.55E-09 Convergence criterion met
 Total energy in the final basis set = -1510.29005763
   13   -1510.2913179018      3.58E-09 Convergence criterion met
   12   -1510.2936945598      5.83E-09 Convergence criterion met
 Total energy in the final basis set = -1510.29369456
   12   -1510.2936660630      5.44E-09 Convergence criterion met
 Total energy in the final basis set = -1510.29366606
   10   -1510.2936950336      9.10E-09 Convergence criterion met
 Total energy in the final basis set = -1510.29369503
   11   -1510.2936822085      4.51E-09 Convergence criterion met
 Total energy in the final basis set = -1510.29368221
   12   -1510.2936744652      2.07E-09 Convergence criterion met
 Total energy in the final basis set = -1510.29367447
   12   -1510.2936671727      2.92E-09 Convergence criterion met
 Total energy in the final basis set = -1510.29366717

             Standard Nuclear Orientation (Angstroms)
    I     Atom           X                Y                Z
 ----------------------------------------------------------------
    1      O      -2.0280613155     1.3299612302     0.2006112880
    2      C      -3.2801507448     1.3412460539     0.2438573099
    3      C      -4.2544650771     0.2591293293    -0.3322128804
    4      C      -3.4954951853    -0.9886167417    -0.9483057858
    5      C      -1.9266252139    -0.8622543851    -0.8913779529
    6      O      -1.4670533263    -1.3745024330     0.3600390057
    7      C      -0.0309749123    -1.0800364175     0.5847251757
    8      C       0.9426056027    -1.8405312408    -0.3894552600
    9      O       2.2852665749    -1.2790156781    -0.1123390167
   10      C       3.0814271768    -1.1997414673    -1.3007144495
   11      C       4.3873727017    -0.4208637100    -0.9246753956
   12      C       4.0812338679     1.0059974482    -0.2949074516
   13      C       2.5498878719     1.3609607547    -0.2623017743
   14      O       1.8394570821     1.6117506888     0.7365105829
   15      O      -4.0467874338     2.3833662993     0.8432684715
   16      O       2.0965590960     1.3941095090    -1.6162910568
   17      O       2.7539039044    -1.6706775667    -2.4102012352
   18      C       0.6642745243     1.7774957226    -1.6967897451
   19      C       5.1575281163    -1.1076013035     0.2849878893
   20      C       6.5950855748    -0.4591124110     0.3971896839
   21      C       6.2545299255     0.9293261296     1.0572815439
   22      C       4.6824084365     0.8365868916     1.1601456296
   23      O       4.4461574591    -0.5920501229     1.4755024756
   24      H       5.0144014827    -0.3445929795    -1.8300416830
   25      H       4.6035284114     1.7978279203    -0.8626128558
   26      H       5.1397009805    -2.2146864288     0.2713031532
   27      H       7.2428720511    -1.0688742602     1.0469573121
   28      H       7.0797666868    -0.3549194926    -0.5867182628
   29      H       6.7013633078     1.0188717334     2.0603281953
   30      H       6.5845045731     1.7846652764     0.4465268602
   31      H       4.2053495033     1.4826943016     1.9224148476
   32      O      -1.2000126254    -0.4959791163    -1.8470842872
   33      C      -3.1445337528     3.4111603609     1.4159826246
   34      C      -5.1122459166    -0.4395127766     0.8101412010
   35      C      -6.3049697085    -1.2182303340     0.1270824005
   36      C      -5.5486187729    -2.4577671045    -0.4795325786
   37      C      -4.0621867240    -2.1576876257    -0.0352441521
   38      O      -4.2204403967    -1.5177154130     1.2916828604
   39      H      -4.9100328225     0.7455769182    -1.0773497914
   40      H      -3.7735296054    -1.1255607915    -2.0081842179
   41      H      -2.4707441681     3.8364569559     0.6447246771
   42      H      -5.3974008331     0.2367880435     1.6393975630
   43      H      -7.0456522534    -1.5248534520     0.8828686966
   44      H      -6.8123773047    -0.6102072930    -0.6388677782
   45      H      -5.8995850202    -3.4022988196    -0.0344634798
   46      H      -5.6492922940    -2.5242650382    -1.5746555685
   47      H      -3.4020947684    -3.0428280161     0.0384578398
   48      H      -2.5240765241     2.9934169473     2.2349576635
   49      H      -3.8027083981     4.2043415700     1.8154491656
   50      H       0.0203131064     0.8709524092    -1.8026593102
   51      H       0.5545575652     2.4207476872    -2.5897473684
   52      H       0.3596217133     2.3302639365    -0.7865471074
   53      H       0.9307523552    -2.9341151672    -0.1922472219
   54      H       0.6521255291    -1.6576618287    -1.4452700395
   55      H       0.1647480065    -1.3945374331     1.6292239896
   56      H       0.1618215361     0.0130825370     0.5082413850
 ----------------------------------------------------------------

   10   -1510.2936667464      8.08E-09 Convergence criterion met
 Total energy in the final basis set = -1510.29366675
 Final energy is   -1510.29366674636
 **  OPTIMIZATION CONVERGED  **

                    Orbital Energies (a.u.)
 --------------------------------------------------------------

 Alpha MOs
 -- Occupied --
-18.948 -18.930 -18.923 -18.918 -18.891 -18.890 -18.881 -18.870
-18.868 -18.862 -10.111 -10.103 -10.091 -10.089 -10.072 -10.064
-10.061 -10.059 -10.057 -10.055 -10.052 -10.044 -10.037 -10.031
-10.029 -10.029 -10.023 -10.021 -10.016 -10.015  -1.024  -1.008
 -1.003  -0.995  -0.972  -0.963  -0.947  -0.934  -0.928  -0.923
 -0.766  -0.757  -0.727  -0.721  -0.712  -0.701  -0.688  -0.669
 -0.644  -0.609  -0.594  -0.577  -0.548  -0.540  -0.539  -0.531
 -0.515  -0.504  -0.486  -0.470  -0.466  -0.455  -0.449  -0.439
 -0.436  -0.429  -0.425  -0.418  -0.413  -0.399  -0.397  -0.394
 -0.383  -0.380  -0.373  -0.363  -0.360  -0.356  -0.351  -0.341
 -0.338  -0.336  -0.334  -0.328  -0.326  -0.321  -0.319  -0.316
 -0.308  -0.304  -0.302  -0.299  -0.290  -0.284  -0.283  -0.274
 -0.268  -0.263  -0.248  -0.238  -0.236  -0.235  -0.228  -0.189
 -0.177  -0.168  -0.164  -0.157  -0.150  -0.147  -0.144  -0.141
 -0.137

          Ground-State Mulliken Net Atomic Charges

     Atom                 Charge (a.u.)
  ----------------------------------------
      1 O                    -0.206719
      2 C                     0.215833
      3 C                    -0.078326
      4 C                    -0.081364
      5 C                     0.223438
      6 O                    -0.168373
      7 C                    -0.051164
      8 C                    -0.057079
      9 O                    -0.172253
     10 C                     0.212277
     11 C                    -0.077815
     12 C                    -0.077562
     13 C                     0.212365
     14 O                    -0.219636
     15 O                    -0.167447
     16 O                    -0.176788
     17 O                    -0.210527
     18 C                    -0.151693
     19 C                     0.025925
     20 C                    -0.144129
     21 C                    -0.143873
     22 C                     0.024394
     23 O                    -0.185720
     24 H                     0.084707
     25 H                     0.083119
     26 H                     0.081850
     27 H                     0.076961
     28 H                     0.073201
     29 H                     0.076904
     30 H                     0.072436
     31 H                     0.088709
     32 O                    -0.224316
     33 C                    -0.128049
     34 C                     0.025141
     35 C                    -0.143597
     36 C                    -0.144248
     37 C                     0.026674
     38 O                    -0.186624
     39 H                     0.087523
     40 H                     0.084326
     41 H                     0.092261
     42 H                     0.087262
     43 H                     0.078771
     44 H                     0.073811
     45 H                     0.078539
     46 H                     0.073925
     47 H                     0.087825
     48 H                     0.093853
     49 H                     0.093131
     50 H                     0.110020
     51 H                     0.078532
     52 H                     0.089622
     53 H                     0.080217
     54 H                     0.105620
     55 H                     0.092635
     56 H                     0.105498
  ----------------------------------------
  Sum of atomic charges =    -0.000000

                    Cartesian Multipole Moments
 -----------------------------------------------------------------
    Charge (ESU x 10^10)
                 0.0000
    Dipole Moment (Debye)
         X      -1.8364      Y       1.3926      Z      -0.1039
       Tot       2.3071
    Quadrupole Moments (Debye-Ang)
        XX    -132.7121     XY       1.4315     YY    -150.8057
        XZ       3.7730     YZ       1.6706     ZZ    -169.1145

 Total job time:  85.39s(wall), 4068.68s(cpu)
        *  Thank you very much for using Q-Chem.  Have a nice day.  *
