 Q-Chem 5.0, Q-Chem, Inc., Pleasanton, CA (2017)
 Q-Chem 5.0.1 for Intel X86 EM64T Linux

User input:
--------------------------------------------------------------
$molecule
0  1
O -3.94934 -3.66094 2.70899
C -3.26408 -4.56952 2.26188
C -3.36658 -6.02376 2.66595
C -3.63086 -6.32354 4.15058
C -3.93982 -5.13516 5.03397
O -5.06246 -5.38422 5.77091
C -5.27173 -4.43078 6.81801
C -4.38108 -4.75761 8.01219
O -4.72782 -3.91889 9.12539
C -3.70497 -3.20643 9.65953
C -4.12826 -2.36241 10.83814
C -5.08378 -1.20918 10.49855
C -5.74735 -1.27975 9.13789
O -6.95104 -1.22094 8.9324
O -2.23274 -4.25699 1.43368
O -4.91256 -1.13261 8.07454
O -2.5321 -3.30117 9.31912
C -5.32264 -0.71934 6.82173
C -4.94149 -3.11163 11.91023
C -4.79195 -2.40025 13.25331
C -5.57931 -1.1314 12.99026
C -6.1429 -1.43899 11.59651
O -6.28401 -2.84025 11.58605
H -3.1933 -1.96936 11.30043
H -4.58601 -0.21652 10.56352
H -4.66373 -4.18432 12.00257
H -5.34324 -3.0125 14.00285
H -3.74934 -2.24595 13.60543
H -6.39334 -1.06242 13.74555
H -4.9819 -0.19397 12.98443
H -7.07142 -0.85216 11.42317
O -3.15082 -4.21808 5.23515
C -1.94482 -2.98053 0.99775
C -4.60957 -6.68979 2.03134
C -4.36527 -8.1879 1.87926
C -4.38876 -8.61915 3.3287
C -4.82031 -7.30671 4.00008
O -5.60016 -6.65802 3.02959
H -2.4681 -6.54752 2.26518
H -2.7444 -6.81153 4.61223
H -1.71952 -2.32165 1.8635
H -4.89462 -6.25087 1.04959
H -5.2639 -8.6034 1.3684
H -3.45703 -8.48365 1.31141
H -5.15983 -9.41301 3.44384
H -3.41529 -8.96971 3.73512
H -5.32682 -7.55188 4.95806
H -2.80387 -2.56911 0.42573
H -1.05674 -3.01441 0.33393
H -4.45386 -0.72724 6.13201
H -5.72263 0.31531 6.87996
H -6.11535 -1.3851 6.42149
H -4.5809 -5.80904 8.31063
H -3.31592 -4.71115 7.703
H -6.32563 -4.52779 7.15534
H -5.13269 -3.39336 6.462
$end

$opt
CONSTRAINT
tors           1           2           3           4     -38.336
tors           3           4           5           6    +130.468
tors           4           5           6           7    +168.273
tors           5           6           7           8     -79.720
tors           6           7           8           9    -171.882
tors           7           8           9          10    -125.239
tors           8           9          10          11    -179.090
tors           9          10          11          12     -67.017
tors          11          12          13          14    +126.207
ENDCONSTRAINT
$end

$rem
JOBTYPE                   OPT
METHOD                    B3LYP
DFT_D                     d3_op
BASIS                     STO-3G
GEOM_OPT_MAX_CYCLES       100
GEOM_OPT_TOL_GRADIENT     300
GEOM_OPT_TOL_DISPLACEMENT 1200
GEOM_OPT_TOL_ENERGY       100
SYMMETRY                  False
THRESH                    12
SCF_CONVERGENCE           8
MAX_SUB_FILE_NUM          128
MEM_STATIC                400
MEM_TOTAL                 4000
$end
--------------------------------------------------------------

   15   -1510.1534946507      6.21E-09 Convergence criterion met
 Total energy in the final basis set = -1510.15349465
   13   -1510.2220212381      9.78E-09 Convergence criterion met
 Total energy in the final basis set = -1510.22202124
   15   -1510.2579744410      1.28E-09 Convergence criterion met
 Total energy in the final basis set = -1510.25797444
   14   -1510.2729504936      6.75E-09 Convergence criterion met
 Total energy in the final basis set = -1510.27295049
   14   -1510.2758335278      5.52E-09 Convergence criterion met
 Total energy in the final basis set = -1510.27583353
   13   -1510.2781591413      9.40E-09 Convergence criterion met
 Total energy in the final basis set = -1510.27815914
   13   -1510.2795506611      4.51E-09 Convergence criterion met
 Total energy in the final basis set = -1510.27955066
   13   -1510.2807540752      3.84E-09 Convergence criterion met
   12   -1510.2851128879      2.72E-09 Convergence criterion met
 Total energy in the final basis set = -1510.28511289
   11   -1510.2851589457      8.38E-09 Convergence criterion met
 Total energy in the final basis set = -1510.28515895
   11   -1510.2851821646      6.28E-09 Convergence criterion met
 Total energy in the final basis set = -1510.28518216
    9   -1510.2851899449      8.22E-09 Convergence criterion met
 Total energy in the final basis set = -1510.28518994
    9   -1510.2851916664      6.57E-09 Convergence criterion met
 Total energy in the final basis set = -1510.28519167
    9   -1510.2851929629      3.81E-09 Convergence criterion met
 Total energy in the final basis set = -1510.28519296

             Standard Nuclear Orientation (Angstroms)
    I     Atom           X                Y                Z
 ----------------------------------------------------------------
    1      O       3.4009149037    -1.5588843152     1.1573234967
    2      C       4.2088863945    -1.3713181386     0.2217256961
    3      C       4.6566227721     0.0012672703    -0.3838102953
    4      C       3.4730822503     1.0508729421    -0.4793841695
    5      C       2.0551644709     0.4247355531    -0.2236300203
    6      O       1.3298868529     1.2045168047     0.7379754894
    7      C      -0.0851554280     0.7607574251     0.7435138397
    8      C      -0.8800337076     1.3852900902    -0.4591772155
    9      O      -2.3115261285     1.0571248746    -0.2700547373
   10      C      -2.8229918476     0.3960443421    -1.4412923840
   11      C      -4.3389687113     0.0932038822    -1.2000217857
   12      C      -4.5555281937    -0.9841157171    -0.0493300201
   13      C      -3.2100403557    -1.5393481652     0.5418599916
   14      O      -2.8479347980    -1.5730672176     1.7369051745
   15      O       4.9203793903    -2.4178498771    -0.4482692557
   16      O      -2.4416202672    -2.0399124275    -0.5604744581
   17      O      -2.1583909123     0.1884678187    -2.4798383563
   18      C      -1.1483936765    -2.6063840464    -0.1093683499
   19      C      -5.1190512661     1.3314569175    -0.5811504613
   20      C      -6.6699569251     1.0390898937    -0.6771507076
   21      C      -6.8586519897    -0.0047830906     0.4866313928
   22      C      -5.3761797326    -0.1429332066     1.0115865801
   23      O      -4.8332023949     1.2283386191     0.8672039139
   24      H      -4.7758618105    -0.2430559009    -2.1563726921
   25      H      -5.1425302560    -1.8415850752    -0.4268110802
   26      H      -4.7999540914     2.3174309397    -0.9708205434
   27      H      -7.2466579942     1.9595770259    -0.4934495924
   28      H      -6.9550188225     0.6345065135    -1.6614552798
   29      H      -7.5127525564     0.3900521690     1.2802505086
   30      H      -7.2685762262    -0.9653504625     0.1359438541
   31      H      -5.2602337177    -0.4964346915     2.0546198893
   32      O       1.5700007442    -0.5631545103    -0.8217109039
   33      C       4.5380692857    -3.7314456637     0.1208771313
   34      C       5.6195873246     0.7521057842     0.6365079852
   35      C       6.2589268183     1.9999434860    -0.0936835973
   36      C       5.0581523121     3.0171574205    -0.0725810506
   37      C       3.9290198079     2.1337483273     0.5879603406
   38      O       4.6687580477     1.3468728529     1.6022421130
   39      H       5.1418848894    -0.1775926228    -1.3589918996
   40      H       3.4432897862     1.4922315452    -1.4933358162
   41      H       3.4544218709    -3.9299122808    -0.0081216307
   42      H       6.3395858196     0.0902261879     1.1559105753
   43      H       7.1238677103     2.3785705264     0.4734579552
   44      H       6.5869340229     1.7523630922    -1.1159404632
   45      H       5.2819001468     3.8901314144     0.5612648666
   46      H       4.7797142320     3.3721840399    -1.0778367414
   47      H       3.0921189636     2.6857888963     1.0560513398
   48      H       4.7807155632    -3.7957697440     1.2013176065
   49      H       5.1217883984    -4.4874589885    -0.4357201988
   50      H      -0.3163168918    -2.0416013147    -0.5811410027
   51      H      -1.0981078618    -3.6659456960    -0.4280601135
   52      H      -1.0773749864    -2.5411665859     0.9952012421
   53      H      -0.7617929043     2.4895177497    -0.4602662767
   54      H      -0.5398646901     0.9698671176    -1.4326676390
   55      H      -0.5128232935     1.1239587080     1.6995593056
   56      H      -0.1512242660    -0.3428081088     0.7103459156
 ----------------------------------------------------------------

    9   -1510.2851934325      2.11E-09 Convergence criterion met
 Total energy in the final basis set = -1510.28519343
 Final energy is   -1510.28519343246
 **  OPTIMIZATION CONVERGED  **

                    Orbital Energies (a.u.)
 --------------------------------------------------------------

 Alpha MOs
 -- Occupied --
-18.935 -18.933 -18.931 -18.928 -18.887 -18.886 -18.878 -18.874
-18.872 -18.872 -10.101 -10.100 -10.097 -10.096 -10.066 -10.063
-10.062 -10.061 -10.060 -10.057 -10.057 -10.052 -10.038 -10.038
-10.037 -10.037 -10.021 -10.020 -10.019 -10.019  -1.015  -1.012
 -1.007  -1.004  -0.970  -0.968  -0.938  -0.936  -0.933  -0.931
 -0.764  -0.762  -0.726  -0.722  -0.712  -0.705  -0.690  -0.662
 -0.657  -0.613  -0.596  -0.580  -0.546  -0.545  -0.537  -0.536
 -0.512  -0.510  -0.480  -0.479  -0.465  -0.461  -0.450  -0.441
 -0.434  -0.431  -0.427  -0.411  -0.410  -0.409  -0.403  -0.397
 -0.389  -0.376  -0.373  -0.370  -0.360  -0.358  -0.354  -0.348
 -0.345  -0.342  -0.332  -0.330  -0.329  -0.327  -0.321  -0.310
 -0.309  -0.305  -0.303  -0.295  -0.292  -0.288  -0.285  -0.276
 -0.274  -0.255  -0.249  -0.246  -0.243  -0.233  -0.233  -0.184
 -0.175  -0.174  -0.164  -0.160  -0.156  -0.152  -0.148  -0.143
 -0.142

          Ground-State Mulliken Net Atomic Charges

     Atom                 Charge (a.u.)
  ----------------------------------------
      1 O                    -0.211567
      2 C                     0.210576
      3 C                    -0.078732
      4 C                    -0.079101
      5 C                     0.213847
      6 O                    -0.167498
      7 C                    -0.051689
      8 C                    -0.059482
      9 O                    -0.171355
     10 C                     0.212297
     11 C                    -0.077773
     12 C                    -0.077140
     13 C                     0.212371
     14 O                    -0.211097
     15 O                    -0.169507
     16 O                    -0.173091
     17 O                    -0.211618
     18 C                    -0.141171
     19 C                     0.026606
     20 C                    -0.144115
     21 C                    -0.143730
     22 C                     0.024117
     23 O                    -0.185102
     24 H                     0.086053
     25 H                     0.085260
     26 H                     0.083245
     27 H                     0.077876
     28 H                     0.073503
     29 H                     0.078145
     30 H                     0.072987
     31 H                     0.090092
     32 O                    -0.220994
     33 C                    -0.128584
     34 C                     0.025580
     35 C                    -0.144332
     36 C                    -0.143541
     37 C                     0.023557
     38 O                    -0.187247
     39 H                     0.086870
     40 H                     0.084562
     41 H                     0.090523
     42 H                     0.082657
     43 H                     0.078193
     44 H                     0.073892
     45 H                     0.078206
     46 H                     0.072721
     47 H                     0.093881
     48 H                     0.088904
     49 H                     0.090023
     50 H                     0.100603
     51 H                     0.085456
     52 H                     0.098739
     53 H                     0.082719
     54 H                     0.101777
     55 H                     0.095367
     56 H                     0.097265
  ----------------------------------------
  Sum of atomic charges =    -0.000000

                    Cartesian Multipole Moments
 -----------------------------------------------------------------
    Charge (ESU x 10^10)
                -0.0000
    Dipole Moment (Debye)
         X       0.1607      Y       0.0200      Z      -1.9015
       Tot       1.9084
    Quadrupole Moments (Debye-Ang)
        XX    -133.3243     XY       2.5202     YY    -149.2339
        XZ      -1.1154     YZ      -4.6226     ZZ    -171.3066

 Total job time:  75.06s(wall), 3574.67s(cpu)
        *  Thank you very much for using Q-Chem.  Have a nice day.  *
