 Q-Chem 5.0, Q-Chem, Inc., Pleasanton, CA (2017)
 Q-Chem 5.0.1 for Intel X86 EM64T Linux

User input:
--------------------------------------------------------------
$molecule
0  1
O -3.5476999 1.6857282451 1.257942587
C -4.1385209947 1.4106347681 0.1911030582
C -4.5952985178 -0.0021791974 -0.3096838343
C -3.3910246239 -1.0283189385 -0.4629725955
C -1.9980879136 -0.3901346905 -0.1086985043
O -1.3402679269 -1.140634483 0.9180187825
C 0.1016188175 -0.7920876583 0.9288558281
C 0.8571591913 -1.4126633344 -0.300257726
O 2.2741388898 -1.0029174381 -0.1846528181
C 2.7393086375 -0.4687062007 -1.4385348347
C 4.2418551084 -0.0795079209 -1.2532367307
C 4.427942525 0.9763166532 -0.0794703403
C 3.0618437654 1.4931062326 0.5033071279
O 2.6837032514 1.503679231 1.693782722
O -4.5254422099 2.3816601097 -0.7877994484
O 2.2921340155 1.9753650897 -0.6068427724
O 2.0457974033 -0.4013002225 -2.4759696463
C 0.9752456907 2.5055617392 -0.1744663889
C 5.0948661227 -1.2918369663 -0.6800635144
C 6.6271334468 -0.9091423517 -0.7576579785
C 6.7601553975 0.0817639245 0.4595103673
C 5.2668856394 0.1343528396 0.9674356586
O 4.7960740787 -1.2567643465 0.7691020217
H 4.6276628549 0.2971793301 -2.216279279
H 5.0003364421 1.8522311405 -0.4361574769
H 4.8338391149 -2.2797223931 -1.1066801523
H 7.2546861042 -1.804514986 -0.6232991019
H 6.8869912524 -0.4379162431 -1.7191003671
H 7.418578463 -0.3279729342 1.2419929085
H 7.1369047884 1.073779107 0.1632357074
H 5.1197576459 0.4458018596 2.0198777815
O -1.495302407 0.6076843985 -0.678684744
C -4.0790046897 3.7292752395 -0.3646416855
C -5.483371766 -0.7556271522 0.7754884966
C -6.2200075563 -1.9563364553 0.0627527887
C -5.0326642074 -2.9729152014 -0.1215454593
C -3.8392637525 -2.1728169457 0.5364396724
O -4.4849330975 -1.4234174807 1.6396052713
H -5.1374967752 0.1280431295 -1.2625007317
H -3.32338869 -1.396054878 -1.5038402903
H -2.9743016032 3.7809031359 -0.2791024411
H -6.1340187637 -0.0915460732 1.3768847622
H -7.0052273515 -2.3661830284 0.7177824879
H -6.6782425742 -1.6565847201 -0.8932262533
H -5.2149920505 -3.9112194362 0.4261348887
H -4.8382689076 -3.2131382656 -1.1790983243
H -3.0038323512 -2.7870782602 0.9220209367
H -4.5215096898 4.0196947307 0.6100689291
H -4.4225122929 4.4264297937 -1.1508457175
H 0.1566327259 1.8203618969 -0.4964675433
H 0.8372015994 3.4931908039 -0.6545866009
H 0.9566714047 2.6146062604 0.9283232822
H 0.7884924 -2.5209529361 -0.2755205082
H 0.4506029598 -1.0387697024 -1.2652444173
H 0.5020392022 -1.2223516947 1.8683929953
H 0.2502377695 0.3039575218 0.9518649993
$end

$rem
JOBTYPE                   OPT
METHOD                    B3LYP
DFT_D                     d3_op
BASIS                     STO-3G
GEOM_OPT_MAX_CYCLES       100
GEOM_OPT_TOL_GRADIENT     300
GEOM_OPT_TOL_DISPLACEMENT 1200
GEOM_OPT_TOL_ENERGY       100
SYMMETRY                  False
THRESH                    12
SCF_CONVERGENCE           8
MAX_SUB_FILE_NUM          128
MEM_STATIC                400
MEM_TOTAL                 4000
$end
--------------------------------------------------------------

   16   -1510.2858653049      7.01E-09 Convergence criterion met
 Total energy in the final basis set = -1510.28586530
   14   -1510.2757999670      6.21E-09 Convergence criterion met
 Total energy in the final basis set = -1510.27579997
   14   -1510.2858289993      3.41E-09 Convergence criterion met
 Total energy in the final basis set = -1510.28582900
   14   -1510.2884670368      3.38E-09 Convergence criterion met
 Total energy in the final basis set = -1510.28846704
   14   -1510.2893647141      2.04E-09 Convergence criterion met
 Total energy in the final basis set = -1510.28936471
   14   -1510.2889955671      2.99E-09 Convergence criterion met
 Total energy in the final basis set = -1510.28899557
   13   -1510.2899147356      6.28E-09 Convergence criterion met
 Total energy in the final basis set = -1510.28991474
   13   -1510.2901148482      3.72E-09 Convergence criterion met
   11   -1510.2987061973      6.33E-09 Convergence criterion met
 Total energy in the final basis set = -1510.29870620
   12   -1510.2987081620      4.09E-09 Convergence criterion met
 Total energy in the final basis set = -1510.29870816
   12   -1510.2987002314      3.46E-09 Convergence criterion met
 Total energy in the final basis set = -1510.29870023
   10   -1510.2986915511      9.40E-09 Convergence criterion met
 Total energy in the final basis set = -1510.29869155
   10   -1510.2986882155      5.73E-09 Convergence criterion met
 Total energy in the final basis set = -1510.29868822
    9   -1510.2986851598      9.94E-09 Convergence criterion met
 Total energy in the final basis set = -1510.29868516

             Standard Nuclear Orientation (Angstroms)
    I     Atom           X                Y                Z
 ----------------------------------------------------------------
    1      O      -3.2261379702     2.2090807261    -0.0659751435
    2      C      -3.0554738058     1.1109700104    -0.6366900424
    3      C      -4.0665510545    -0.0978985972    -0.6444172009
    4      C      -3.5232885665    -1.4605248536    -0.0366325125
    5      C      -2.0517508596    -1.3311461020     0.4613869024
    6      O      -1.2775738771    -2.3947076711    -0.0998077189
    7      C       0.1698316438    -2.1219037377     0.0828718134
    8      C       0.6240793787    -1.1326455553    -1.0477326758
    9      O       1.9692770057    -0.6398966612    -0.6711110613
   10      C       2.3432378073     0.5109194722    -1.4278937808
   11      C       3.7820053473     0.9234889650    -0.9773183643
   12      C       3.9333510955     1.0184660667     0.5989107833
   13      C       2.5886404245     0.8054344245     1.3864459963
   14      O       2.3674730688    -0.0049201826     2.3111321964
   15      O      -1.9229187104     0.8016119970    -1.4647084969
   16      O       1.6504557137     1.7736922801     0.9083470286
   17      O       1.6367306117     1.0504719877    -2.3105329674
   18      C       0.3920423189     1.7102397309     1.6916034557
   19      C       4.8326755092    -0.2291436105    -1.2955052585
   20      C       6.2895457353     0.3539009456    -1.1051402129
   21      C       6.4087160573     0.3775832752     0.4646660594
   22      C       4.9770986028    -0.1389982910     0.8814714429
   23      O       4.6691701187    -1.1548461533    -0.1536977638
   24      H       4.0399902331     1.8725179951    -1.4783108707
   25      H       4.3416100297     2.0054258058     0.8846096540
   26      H       4.6588341457    -0.7578508045    -2.2530668915
   27      H       7.0350274247    -0.3183961417    -1.5586578406
   28      H       6.3966813277     1.3542901541    -1.5543237872
   29      H       7.1873567406    -0.3160578714     0.8201839200
   30      H       6.6209513198     1.3828959101     0.8618763076
   31      H       4.8930660462    -0.5810480874     1.8934399470
   32      O      -1.6006412917    -0.4409958426     1.2179104938
   33      C      -1.1027597013     2.0224798253    -1.6817664368
   34      C      -5.2880182982     0.1992074890     0.3224221702
   35      C      -6.4686450329    -0.7819523469    -0.0440372656
   36      C      -5.9295846354    -2.1377105165     0.5474396124
   37      C      -4.5487620426    -1.6755036452     1.1614712482
   38      O      -4.8154025856    -0.3009961031     1.6348581769
   39      H      -4.3989716777    -0.2509666541    -1.6877545170
   40      H      -3.5726254096    -2.2833268935    -0.7707509185
   41      H      -1.0163900011     2.6127951192    -0.7498687260
   42      H      -5.5495874713     1.2728846171     0.3919076984
   43      H      -7.3997299466    -0.4672593720     0.4532911978
   44      H      -6.6467498821    -0.8317887613    -1.1301538488
   45      H      -6.5908484002    -2.5256954305     1.3384280122
   46      H      -5.8005716683    -2.9169492196    -0.2205775414
   47      H      -4.1650920049    -2.3049260994     1.9878249375
   48      H      -1.5658338170     2.6595244204    -2.4620155829
   49      H      -0.0975853380     1.6779506165    -2.0150266226
   50      H      -0.2258871380     0.8177218964     1.4361326511
   51      H      -0.1695477874     2.6275834472     1.4370663283
   52      H       0.6003843930     1.6975431808     2.7796326151
   53      H       0.6623991571    -1.6515014762    -2.0298445395
   54      H      -0.1222443169    -0.3101326812    -1.1206787402
   55      H       0.6902206913    -3.0961740795     0.0042994078
   56      H       0.3724459367    -1.6661388684     1.0762857205
 ----------------------------------------------------------------

    9   -1510.2986849678      3.20E-09 Convergence criterion met
 Total energy in the final basis set = -1510.29868497
 Final energy is   -1510.29868496780
 **  OPTIMIZATION CONVERGED  **

                    Orbital Energies (a.u.)
 --------------------------------------------------------------

 Alpha MOs
 -- Occupied --
-18.944 -18.942 -18.928 -18.922 -18.890 -18.888 -18.887 -18.884
-18.876 -18.866 -10.111 -10.108 -10.098 -10.093 -10.075 -10.070
-10.063 -10.062 -10.058 -10.057 -10.042 -10.041 -10.040 -10.039
-10.038 -10.035 -10.022 -10.021 -10.021 -10.020  -1.023  -1.018
 -1.006  -1.000  -0.972  -0.970  -0.948  -0.943  -0.933  -0.928
 -0.766  -0.764  -0.730  -0.724  -0.712  -0.706  -0.698  -0.653
 -0.649  -0.618  -0.598  -0.582  -0.547  -0.546  -0.538  -0.537
 -0.518  -0.509  -0.486  -0.477  -0.462  -0.461  -0.454  -0.447
 -0.436  -0.432  -0.430  -0.414  -0.409  -0.407  -0.401  -0.399
 -0.393  -0.379  -0.373  -0.368  -0.361  -0.359  -0.355  -0.352
 -0.341  -0.336  -0.334  -0.332  -0.330  -0.328  -0.324  -0.312
 -0.310  -0.306  -0.305  -0.299  -0.295  -0.289  -0.284  -0.279
 -0.271  -0.258  -0.255  -0.245  -0.243  -0.236  -0.234  -0.187
 -0.181  -0.174  -0.171  -0.161  -0.160  -0.152  -0.146  -0.146
 -0.144

          Ground-State Mulliken Net Atomic Charges

     Atom                 Charge (a.u.)
  ----------------------------------------
      1 O                    -0.208021
      2 C                     0.211232
      3 C                    -0.078530
      4 C                    -0.079484
      5 C                     0.217569
      6 O                    -0.168372
      7 C                    -0.050255
      8 C                    -0.054779
      9 O                    -0.166821
     10 C                     0.221222
     11 C                    -0.078076
     12 C                    -0.078331
     13 C                     0.213387
     14 O                    -0.216356
     15 O                    -0.181305
     16 O                    -0.180094
     17 O                    -0.216063
     18 C                    -0.145592
     19 C                     0.025783
     20 C                    -0.144006
     21 C                    -0.143607
     22 C                     0.024289
     23 O                    -0.186633
     24 H                     0.086429
     25 H                     0.084011
     26 H                     0.081470
     27 H                     0.078058
     28 H                     0.073940
     29 H                     0.078108
     30 H                     0.073526
     31 H                     0.090829
     32 O                    -0.211894
     33 C                    -0.147912
     34 C                     0.024792
     35 C                    -0.144208
     36 C                    -0.143651
     37 C                     0.026474
     38 O                    -0.185660
     39 H                     0.084721
     40 H                     0.087845
     41 H                     0.089951
     42 H                     0.091859
     43 H                     0.078913
     44 H                     0.073387
     45 H                     0.078837
     46 H                     0.073887
     47 H                     0.084006
     48 H                     0.078358
     49 H                     0.111148
     50 H                     0.108469
     51 H                     0.084025
     52 H                     0.084885
     53 H                     0.085116
     54 H                     0.103136
     55 H                     0.094892
     56 H                     0.105098
  ----------------------------------------
  Sum of atomic charges =     0.000000

                    Cartesian Multipole Moments
 -----------------------------------------------------------------
    Charge (ESU x 10^10)
                 0.0000
    Dipole Moment (Debye)
         X       0.3727      Y      -0.9287      Z      -2.1507
       Tot       2.3721
    Quadrupole Moments (Debye-Ang)
        XX    -139.0700     XY      13.6738     YY    -159.5587
        XZ       4.0063     YZ       1.0859     ZZ    -164.5015

 Total job time:  139.48s(wall), 6652.89s(cpu)
        *  Thank you very much for using Q-Chem.  Have a nice day.  *
