 Q-Chem 5.0, Q-Chem, Inc., Pleasanton, CA (2017)
 Q-Chem 5.0.1 for Intel X86 EM64T Linux

User input:
--------------------------------------------------------------
$molecule
0  1
O -3.94934 -3.66094 2.70899
C -3.26408 -4.56952 2.26188
C -3.36658 -6.02376 2.66595
C -3.13413 -6.35919 4.14828
C -3.00089 -5.18505 5.09259
O -3.92538 -5.28677 6.09278
C -3.62129 -4.46693 7.2262
C -2.45353 -5.06132 8.0067
O -2.15335 -4.23549 9.14282
C -0.84572 -3.91171 9.29913
C -0.59208 -3.06176 10.52138
C -1.36471 -1.73514 10.55901
C -2.51796 -1.61422 9.58325
O -3.66593 -1.31299 9.87649
O -2.33662 -4.27872 1.31177
O -2.15368 -1.52615 8.27587
O 0.06232 -4.27159 8.55995
C -2.90111 -0.8792 7.30978
C -1.06103 -3.70455 11.84167
C -0.26193 -3.11922 13.00396
C -0.81289 -1.70741 13.04158
C -1.92771 -1.81886 11.99275
O -2.33941 -3.16267 12.06901
H 0.50828 -2.89446 10.57874
H -0.70358 -0.85603 10.39387
H -0.99077 -4.81431 11.84001
H -0.59465 -3.65621 13.92138
H 0.84365 -3.19367 12.92038
H -1.22985 -1.52183 14.05621
H -0.08936 -0.90768 12.77196
H -2.71215 -1.05528 12.18837
O -2.102 -4.35379 5.03055
C -2.1007 -3.01293 0.81756
C -4.78253 -6.59445 2.45589
C -4.70169 -8.10254 2.24008
C -4.31145 -8.56172 3.62824
C -4.39218 -7.23366 4.39502
O -5.39186 -6.50946 3.72175
H -2.65282 -6.58528 2.01951
H -2.2005 -6.94911 4.28241
H -1.77722 -2.3364 1.63742
H -5.33068 -6.11467 1.61535
H -5.738 -8.45133 2.02752
H -4.02903 -8.4396 1.4223
H -5.08159 -9.28041 3.98686
H -3.29987 -9.01476 3.71179
H -4.57789 -7.45516 5.46808
H -3.01952 -2.61132 0.33915
H -1.29478 -3.06362 0.05703
H -2.40265 -0.99315 6.32529
H -2.96963 0.20286 7.55124
H -3.92878 -1.29521 7.25189
H -2.7673 -6.06211 8.37328
H -1.59232 -5.2276 7.32736
H -4.50639 -4.43703 7.89648
H -3.41064 -3.43365 6.90445
$end

$opt
CONSTRAINT
tors           1           2           3           4     -59.318
tors           3           4           5           6    +123.813
tors           4           5           6           7    +162.328
tors           5           6           7           8     -73.158
tors           6           7           8           9    -179.965
tors           7           8           9          10    -131.073
tors           8           9          10          11    -179.090
tors           9          10          11          12     -58.185
tors          11          12          13          14    +126.717
ENDCONSTRAINT
$end

$rem
JOBTYPE                   OPT
METHOD                    B3LYP
DFT_D                     d3_op
BASIS                     STO-3G
GEOM_OPT_MAX_CYCLES       100
GEOM_OPT_TOL_GRADIENT     300
GEOM_OPT_TOL_DISPLACEMENT 1200
GEOM_OPT_TOL_ENERGY       100
SYMMETRY                  False
THRESH                    12
SCF_CONVERGENCE           8
MAX_SUB_FILE_NUM          128
MEM_STATIC                400
MEM_TOTAL                 4000
$end
--------------------------------------------------------------

   15   -1510.1543001412      6.21E-09 Convergence criterion met
 Total energy in the final basis set = -1510.15430014
   14   -1510.2226538776      7.81E-09 Convergence criterion met
 Total energy in the final basis set = -1510.22265388
   15   -1510.2583863149      1.31E-09 Convergence criterion met
 Total energy in the final basis set = -1510.25838631
   14   -1510.2731820998      8.39E-09 Convergence criterion met
 Total energy in the final basis set = -1510.27318210
    2   -1510.2731820998      2.34E-09 Convergence criterion met
 Total energy in the final basis set = -1510.27318210
   14   -1510.2743516406      5.16E-09 Convergence criterion met
 Total energy in the final basis set = -1510.27435164
   13   -1510.2774130209      9.90E-09 Convergence criterion met
 Total energy in the final basis set = -1510.27741302
   13   -1510.2788274860      5.69E-09 Convergence criterion met
   11   -1510.2858590749      8.84E-09 Convergence criterion met
 Total energy in the final basis set = -1510.28585907
   11   -1510.2858619064      6.19E-09 Convergence criterion met
 Total energy in the final basis set = -1510.28586191
    9   -1510.2858682851      6.41E-09 Convergence criterion met
 Total energy in the final basis set = -1510.28586829
    9   -1510.2858701249      5.40E-09 Convergence criterion met
 Total energy in the final basis set = -1510.28587012
    9   -1510.2858712691      4.98E-09 Convergence criterion met
 Total energy in the final basis set = -1510.28587127
    9   -1510.2858722991      6.43E-09 Convergence criterion met
 Total energy in the final basis set = -1510.28587230

             Standard Nuclear Orientation (Angstroms)
    I     Atom           X                Y                Z
 ----------------------------------------------------------------
    1      O      -3.5476999000     1.6857282451     1.2579425870
    2      C      -4.1385209947     1.4106347681     0.1911030582
    3      C      -4.5952985178    -0.0021791974    -0.3096838343
    4      C      -3.3910246239    -1.0283189385    -0.4629725955
    5      C      -1.9980879136    -0.3901346905    -0.1086985043
    6      O      -1.3402679269    -1.1406344830     0.9180187825
    7      C       0.1016188175    -0.7920876583     0.9288558281
    8      C       0.8571591913    -1.4126633344    -0.3002577260
    9      O       2.2741388898    -1.0029174381    -0.1846528181
   10      C       2.7393086375    -0.4687062007    -1.4385348347
   11      C       4.2418551084    -0.0795079209    -1.2532367307
   12      C       4.4279425250     0.9763166532    -0.0794703403
   13      C       3.0618437654     1.4931062326     0.5033071279
   14      O       2.6837032514     1.5036792310     1.6937827220
   15      O      -4.5254422099     2.3816601097    -0.7877994484
   16      O       2.2921340155     1.9753650897    -0.6068427724
   17      O       2.0457974033    -0.4013002225    -2.4759696463
   18      C       0.9752456907     2.5055617392    -0.1744663889
   19      C       5.0948661227    -1.2918369663    -0.6800635144
   20      C       6.6271334468    -0.9091423517    -0.7576579785
   21      C       6.7601553975     0.0817639245     0.4595103673
   22      C       5.2668856394     0.1343528396     0.9674356586
   23      O       4.7960740787    -1.2567643465     0.7691020217
   24      H       4.6276628549     0.2971793301    -2.2162792790
   25      H       5.0003364421     1.8522311405    -0.4361574769
   26      H       4.8338391149    -2.2797223931    -1.1066801523
   27      H       7.2546861042    -1.8045149860    -0.6232991019
   28      H       6.8869912524    -0.4379162431    -1.7191003671
   29      H       7.4185784630    -0.3279729342     1.2419929085
   30      H       7.1369047884     1.0737791070     0.1632357074
   31      H       5.1197576459     0.4458018596     2.0198777815
   32      O      -1.4953024070     0.6076843985    -0.6786847440
   33      C      -4.0790046897     3.7292752395    -0.3646416855
   34      C      -5.4833717660    -0.7556271522     0.7754884966
   35      C      -6.2200075563    -1.9563364553     0.0627527887
   36      C      -5.0326642074    -2.9729152014    -0.1215454593
   37      C      -3.8392637525    -2.1728169457     0.5364396724
   38      O      -4.4849330975    -1.4234174807     1.6396052713
   39      H      -5.1374967752     0.1280431295    -1.2625007317
   40      H      -3.3233886900    -1.3960548780    -1.5038402903
   41      H      -2.9743016032     3.7809031359    -0.2791024411
   42      H      -6.1340187637    -0.0915460732     1.3768847622
   43      H      -7.0052273515    -2.3661830284     0.7177824879
   44      H      -6.6782425742    -1.6565847201    -0.8932262533
   45      H      -5.2149920505    -3.9112194362     0.4261348887
   46      H      -4.8382689076    -3.2131382656    -1.1790983243
   47      H      -3.0038323512    -2.7870782602     0.9220209367
   48      H      -4.5215096898     4.0196947307     0.6100689291
   49      H      -4.4225122929     4.4264297937    -1.1508457175
   50      H       0.1566327259     1.8203618969    -0.4964675433
   51      H       0.8372015994     3.4931908039    -0.6545866009
   52      H       0.9566714047     2.6146062604     0.9283232822
   53      H       0.7884924000    -2.5209529361    -0.2755205082
   54      H       0.4506029598    -1.0387697024    -1.2652444173
   55      H       0.5020392022    -1.2223516947     1.8683929953
   56      H       0.2502377695     0.3039575218     0.9518649993
 ----------------------------------------------------------------

    9   -1510.2858714235      8.66E-09 Convergence criterion met
 Total energy in the final basis set = -1510.28587142
 Final energy is   -1510.28587142347
 **  OPTIMIZATION CONVERGED  **

                    Orbital Energies (a.u.)
 --------------------------------------------------------------

 Alpha MOs
 -- Occupied --
-18.941 -18.933 -18.930 -18.927 -18.888 -18.887 -18.881 -18.876
-18.874 -18.870 -10.107 -10.098 -10.098 -10.096 -10.069 -10.065
-10.062 -10.061 -10.061 -10.058 -10.057 -10.045 -10.041 -10.038
-10.037 -10.036 -10.021 -10.020 -10.020 -10.019  -1.019  -1.013
 -1.007  -1.003  -0.970  -0.968  -0.943  -0.935  -0.933  -0.932
 -0.764  -0.763  -0.728  -0.723  -0.712  -0.705  -0.693  -0.661
 -0.654  -0.614  -0.596  -0.582  -0.547  -0.545  -0.538  -0.536
 -0.513  -0.510  -0.484  -0.479  -0.465  -0.460  -0.452  -0.440
 -0.434  -0.431  -0.429  -0.411  -0.409  -0.408  -0.404  -0.397
 -0.392  -0.376  -0.374  -0.369  -0.361  -0.358  -0.356  -0.348
 -0.344  -0.342  -0.332  -0.331  -0.329  -0.326  -0.323  -0.309
 -0.309  -0.306  -0.304  -0.297  -0.291  -0.288  -0.287  -0.277
 -0.273  -0.256  -0.251  -0.246  -0.243  -0.233  -0.233  -0.186
 -0.175  -0.174  -0.167  -0.159  -0.159  -0.151  -0.148  -0.144
 -0.142

          Ground-State Mulliken Net Atomic Charges

     Atom                 Charge (a.u.)
  ----------------------------------------
      1 O                    -0.212880
      2 C                     0.208227
      3 C                    -0.079741
      4 C                    -0.077861
      5 C                     0.215604
      6 O                    -0.164126
      7 C                    -0.051363
      8 C                    -0.058643
      9 O                    -0.170785
     10 C                     0.213692
     11 C                    -0.077465
     12 C                    -0.077193
     13 C                     0.212642
     14 O                    -0.213613
     15 O                    -0.168444
     16 O                    -0.175578
     17 O                    -0.211660
     18 C                    -0.147242
     19 C                     0.026129
     20 C                    -0.144227
     21 C                    -0.143350
     22 C                     0.024318
     23 O                    -0.185004
     24 H                     0.086575
     25 H                     0.084451
     26 H                     0.082350
     27 H                     0.077872
     28 H                     0.073640
     29 H                     0.078103
     30 H                     0.073046
     31 H                     0.090279
     32 O                    -0.217638
     33 C                    -0.128499
     34 C                     0.025923
     35 C                    -0.143766
     36 C                    -0.144472
     37 C                     0.023751
     38 O                    -0.185718
     39 H                     0.086339
     40 H                     0.086158
     41 H                     0.090724
     42 H                     0.083607
     43 H                     0.078326
     44 H                     0.073898
     45 H                     0.078309
     46 H                     0.072775
     47 H                     0.092260
     48 H                     0.088717
     49 H                     0.089923
     50 H                     0.104943
     51 H                     0.083393
     52 H                     0.093744
     53 H                     0.083023
     54 H                     0.100373
     55 H                     0.096914
     56 H                     0.099242
  ----------------------------------------
  Sum of atomic charges =     0.000000

                    Cartesian Multipole Moments
 -----------------------------------------------------------------
    Charge (ESU x 10^10)
                 0.0000
    Dipole Moment (Debye)
         X      -0.0651      Y      -0.1839      Z      -2.1306
       Tot       2.1395
    Quadrupole Moments (Debye-Ang)
        XX    -134.5972     XY       3.3745     YY    -149.8510
        XZ       2.0676     YZ       2.8349     ZZ    -171.9707

 Total job time:  84.88s(wall), 4041.67s(cpu)
        *  Thank you very much for using Q-Chem.  Have a nice day.  *
