 Q-Chem 5.0, Q-Chem, Inc., Pleasanton, CA (2017)
 Q-Chem 5.0.1 for Intel X86 EM64T Linux

User input:
--------------------------------------------------------------
$molecule
0  1
O -3.0585506774 1.4728578448 1.2673551292
C -3.8470628605 1.395596946 0.3003143097
C -4.533534292 0.1093691822 -0.2766025289
C -3.5147102508 -1.0767935508 -0.560724722
C -2.0193864612 -0.6440845963 -0.357532166
O -1.3213549895 -1.5827870535 0.4678070209
C 0.0967432862 -1.158019763 0.5667152259
C 0.9335739663 -1.5638044202 -0.6998098286
O 2.3176997659 -1.0864165708 -0.4745277396
C 2.688148548 -0.1465761327 -1.5017434653
C 4.1551164855 0.3184429201 -1.2193771948
C 4.2935554998 0.9742737362 0.2202397699
C 2.9055631235 1.2290910888 0.9122285902
O 2.520550693 0.8701612125 2.0445166365
O -4.2835353487 2.5215153616 -0.4701289047
O 2.128037388 1.9974404261 -0.0180438667
O 1.9568334097 0.1648301617 -2.4664994005
C 0.786989589 2.3325299087 0.5194724227
C 5.127370599 -0.927726115 -1.0525500479
C 6.619183123 -0.4065207049 -0.9886107396
C 6.6907708176 0.146542453 0.4840474621
C 5.2047487153 -0.0867509794 0.9638020505
O 4.8524165098 -1.3792972036 0.3304759739
H 4.4673407026 1.005188729 -2.0248956729
H 4.8093346196 1.9494494991 0.1449311977
H 4.9463069116 -1.7497315253 -1.7719922779
H 7.324606363 -1.2379197418 -1.1444181827
H 6.8171959698 0.3707747442 -1.7440285362
H 7.3898161911 -0.4415051102 1.1001154837
H 6.9856664639 1.2070718194 0.5290210696
H 5.0466971974 -0.1351401091 2.058722424
O -1.4876167162 0.3779554571 -0.8515564465
C -3.627095837 3.7536008837 0.0253210007
C -5.4661677228 -0.5723465602 0.8168684489
C -6.3766067785 -1.647579034 0.1001236437
C -5.3477605071 -2.8162195461 -0.126761475
C -4.0287954952 -2.1771247113 0.4595225978
O -4.516830607 -1.3836444323 1.611474115
H -5.0967227577 0.3925816071 -1.1825351327
H -3.6162450907 -1.4244566862 -1.6059533392
H -2.522818732 3.6805642897 -0.0484445769
H -6.0054265852 0.1417371883 1.469057671
H -7.2013195799 -1.9571515276 0.7615542793
H -6.803210824 -1.266795011 -0.8416622139
H -5.6246759398 -3.7132397196 0.4496903627
H -5.2438625214 -3.0958561533 -1.1873816292
H -3.2490048617 -2.8927347973 0.7825952508
H -3.896086819 3.9648614182 1.0805447406
H -3.9888636038 4.5742255107 -0.6209484923
H 0.0063557824 1.8203869419 -0.0862913332
H 0.6496745796 3.4287836078 0.4437469491
H 0.7111666655 2.0157508757 1.5790581868
H 0.9501225977 -2.66653723 -0.8219516353
H 0.5320545962 -1.0805846629 -1.617264683
H 0.5010919479 -1.6748921209 1.4599600566
H 0.1650359252 -0.0672731032 0.7219899923
$end

$rem
JOBTYPE                   OPT
METHOD                    B3LYP
DFT_D                     d3_op
BASIS                     STO-3G
GEOM_OPT_MAX_CYCLES       100
GEOM_OPT_TOL_GRADIENT     300
GEOM_OPT_TOL_DISPLACEMENT 1200
GEOM_OPT_TOL_ENERGY       100
SYMMETRY                  False
THRESH                    12
SCF_CONVERGENCE           8
MAX_SUB_FILE_NUM          128
MEM_STATIC                400
MEM_TOTAL                 4000
$end
--------------------------------------------------------------

   16   -1510.2861377250      6.37E-09 Convergence criterion met
 Total energy in the final basis set = -1510.28613773
   14   -1510.2812503293      5.47E-09 Convergence criterion met
 Total energy in the final basis set = -1510.28125033
   14   -1510.2838676593      3.48E-09 Convergence criterion met
 Total energy in the final basis set = -1510.28386766
   14   -1510.2881153220      4.21E-09 Convergence criterion met
 Total energy in the final basis set = -1510.28811532
   13   -1510.2886193892      8.06E-09 Convergence criterion met
 Total energy in the final basis set = -1510.28861939
   13   -1510.2894225771      3.86E-09 Convergence criterion met
 Total energy in the final basis set = -1510.28942258
   14   -1510.2895300586      2.15E-09 Convergence criterion met
 Total energy in the final basis set = -1510.28953006
   13   -1510.2899780511      6.62E-09 Convergence criterion met
   12   -1510.2987443003      9.98E-09 Convergence criterion met
 Total energy in the final basis set = -1510.29874430
   11   -1510.2987629485      7.32E-09 Convergence criterion met
 Total energy in the final basis set = -1510.29876295
   10   -1510.2987739536      8.59E-09 Convergence criterion met
 Total energy in the final basis set = -1510.29877395
   11   -1510.2987790953      9.46E-09 Convergence criterion met
 Total energy in the final basis set = -1510.29877910
   11   -1510.2987734000      7.21E-09 Convergence criterion met
 Total energy in the final basis set = -1510.29877340
   10   -1510.2987709318      5.29E-09 Convergence criterion met
 Total energy in the final basis set = -1510.29877093

             Standard Nuclear Orientation (Angstroms)
    I     Atom           X                Y                Z
 ----------------------------------------------------------------
    1      O      -3.2731420657     2.3076848723    -0.0029052025
    2      C      -3.0933527278     1.2175774684    -0.5861029861
    3      C      -4.1037556426     0.0086690012    -0.6244455358
    4      C      -3.5657510105    -1.3612959558    -0.0285518068
    5      C      -2.0934886894    -1.2450749393     0.4710692945
    6      O      -1.3300334371    -2.3149295368    -0.0930281733
    7      C       0.1203236378    -2.0597954671     0.0900805758
    8      C       0.5860220764    -1.0681957476    -1.0340008425
    9      O       1.9460211432    -0.6119673944    -0.6663111884
   10      C       2.3281685931     0.5602066794    -1.3859477909
   11      C       3.7836495339     0.9246540670    -0.9469735458
   12      C       3.9670950979     0.9455804716     0.6284210057
   13      C       2.6304332010     0.7325947479     1.4300136366
   14      O       2.4033949198    -0.1086052802     2.3252705443
   15      O      -1.9470334164     0.9208519721    -1.3988322895
   16      O       1.7089760968     1.7410312724     1.0049023166
   17      O       1.6172227618     1.1470571413    -2.2339200278
   18      C       0.4593894052     1.6765839416     1.8019727850
   19      C       4.8003307191    -0.2364103167    -1.3367814099
   20      C       6.2742646632     0.3022565706    -1.1473825295
   21      C       6.4225977895     0.2477521818     0.4192869630
   22      C       4.9852055632    -0.2499392889     0.8390100970
   23      O       4.6329219412    -1.2089506700    -0.2352510881
   24      H       4.0526614625     1.8890021386    -1.4115539672
   25      H       4.4056341992     1.9083018708     0.9495958445
   26      H       4.5961004198    -0.7160356323    -2.3138644306
   27      H       6.9948810397    -0.3645735339    -1.6467152465
   28      H       6.3969655835     1.3203021249    -1.5503226515
   29      H       7.1875649910    -0.4835114681     0.7258024638
   30      H       6.6709840333     1.2262640173     0.8599328681
   31      H       4.9074187435    -0.7357641110     1.8312015304
   32      O      -1.6342547339    -0.3604652944     1.2292243443
   33      C      -1.1062037900     2.1374385678    -1.5506530580
   34      C      -5.3333050435     0.2936271275     0.3352340714
   35      C      -6.5088079977    -0.6882613551    -0.0460967680
   36      C      -5.9722999846    -2.0460610772     0.5430384843
   37      C      -4.5947657152    -1.5855086301     1.1651819022
   38      O      -4.8666232280    -0.2148801045     1.6467012545
   39      H      -4.4250832837    -0.1302066751    -1.6732039961
   40      H      -3.6174660038    -2.1767165108    -0.7707478343
   41      H      -0.9989616128     2.6685726918    -0.5858133109
   42      H      -5.5987046021     1.3659008780     0.4114171879
   43      H      -7.4450414861    -0.3780368098     0.4442706799
   44      H      -6.6769114367    -0.7329598905    -1.1340287281
   45      H      -6.6370053060    -2.4365255262     1.3299382421
   46      H      -5.8399956219    -2.8229143221    -0.2268101797
   47      H      -4.2130014524    -2.2196653925     1.9888176072
   48      H      -1.5611901787     2.8305422446    -2.2865719250
   49      H      -0.1108429568     1.7928807131    -1.9116717132
   50      H      -0.1962296755     0.8260821262     1.5009648856
   51      H      -0.0695765478     2.6285486892     1.6126497750
   52      H       0.6812313519     1.5879895142     2.8837571176
   53      H       0.6030938174    -1.5778398484    -2.0215647668
   54      H      -0.1406620478    -0.2277205809    -1.0916814739
   55      H       0.6292188057    -3.0394419323     0.0029510018
   56      H       0.3308389093    -1.6152570443     1.0868926219
 ----------------------------------------------------------------

    9   -1510.2987715166      4.68E-09 Convergence criterion met
 Total energy in the final basis set = -1510.29877152
 Final energy is   -1510.29877151659
 **  OPTIMIZATION CONVERGED  **

                    Orbital Energies (a.u.)
 --------------------------------------------------------------

 Alpha MOs
 -- Occupied --
-18.944 -18.942 -18.928 -18.922 -18.889 -18.888 -18.887 -18.884
-18.875 -18.867 -10.111 -10.109 -10.097 -10.094 -10.075 -10.071
-10.063 -10.062 -10.058 -10.057 -10.042 -10.041 -10.040 -10.039
-10.039 -10.035 -10.022 -10.022 -10.021 -10.020  -1.023  -1.018
 -1.006  -1.001  -0.972  -0.970  -0.948  -0.943  -0.932  -0.928
 -0.766  -0.764  -0.731  -0.724  -0.712  -0.706  -0.698  -0.652
 -0.649  -0.618  -0.598  -0.582  -0.547  -0.546  -0.538  -0.537
 -0.518  -0.509  -0.486  -0.477  -0.462  -0.461  -0.454  -0.447
 -0.436  -0.432  -0.430  -0.414  -0.409  -0.407  -0.401  -0.399
 -0.393  -0.379  -0.373  -0.368  -0.361  -0.359  -0.355  -0.352
 -0.342  -0.336  -0.334  -0.332  -0.330  -0.328  -0.325  -0.312
 -0.310  -0.306  -0.305  -0.299  -0.295  -0.289  -0.284  -0.279
 -0.271  -0.258  -0.255  -0.245  -0.243  -0.235  -0.235  -0.187
 -0.181  -0.173  -0.171  -0.161  -0.160  -0.151  -0.146  -0.145
 -0.144

          Ground-State Mulliken Net Atomic Charges

     Atom                 Charge (a.u.)
  ----------------------------------------
      1 O                    -0.208353
      2 C                     0.211222
      3 C                    -0.078599
      4 C                    -0.079576
      5 C                     0.217736
      6 O                    -0.168463
      7 C                    -0.050129
      8 C                    -0.054572
      9 O                    -0.167014
     10 C                     0.221374
     11 C                    -0.077982
     12 C                    -0.078286
     13 C                     0.213562
     14 O                    -0.216700
     15 O                    -0.181134
     16 O                    -0.180026
     17 O                    -0.215864
     18 C                    -0.145652
     19 C                     0.025765
     20 C                    -0.144063
     21 C                    -0.143588
     22 C                     0.024361
     23 O                    -0.186661
     24 H                     0.086477
     25 H                     0.084056
     26 H                     0.081508
     27 H                     0.078106
     28 H                     0.074005
     29 H                     0.078139
     30 H                     0.073589
     31 H                     0.090791
     32 O                    -0.212042
     33 C                    -0.147413
     34 C                     0.024820
     35 C                    -0.144278
     36 C                    -0.143592
     37 C                     0.026434
     38 O                    -0.185768
     39 H                     0.084669
     40 H                     0.087763
     41 H                     0.089430
     42 H                     0.091918
     43 H                     0.078894
     44 H                     0.073379
     45 H                     0.078803
     46 H                     0.073889
     47 H                     0.083932
     48 H                     0.078797
     49 H                     0.111032
     50 H                     0.108087
     51 H                     0.083904
     52 H                     0.085210
     53 H                     0.085157
     54 H                     0.103161
     55 H                     0.095141
     56 H                     0.104646
  ----------------------------------------
  Sum of atomic charges =     0.000000

                    Cartesian Multipole Moments
 -----------------------------------------------------------------
    Charge (ESU x 10^10)
                 0.0000
    Dipole Moment (Debye)
         X       0.4452      Y      -0.9372      Z      -2.1185
       Tot       2.3589
    Quadrupole Moments (Debye-Ang)
        XX    -139.0167     XY      13.6589     YY    -160.4244
        XZ       4.3168     YZ       0.9740     ZZ    -164.2348

 Total job time:  141.96s(wall), 6768.23s(cpu)
        *  Thank you very much for using Q-Chem.  Have a nice day.  *
