 Q-Chem 5.0, Q-Chem, Inc., Pleasanton, CA (2017)
 Q-Chem 5.0.1 for Intel X86 EM64T Linux

User input:
--------------------------------------------------------------
$molecule
0  1
O -3.94934 -3.66094 2.70899
C -3.26408 -4.56952 2.26188
C -3.36658 -6.02376 2.66595
C -3.34466 -6.3381 4.1708
C -3.40176 -5.15242 5.10834
O -4.36358 -5.3564 6.05635
C -4.435 -4.30207 7.02204
C -3.33327 -4.46777 8.06361
O -3.41011 -3.40811 9.0301
C -2.31194 -2.61713 9.11673
C -2.45204 -1.52731 10.15273
C -3.64199 -0.58035 9.93926
C -4.69896 -1.05697 8.96337
O -5.89665 -1.13234 9.19666
O -2.28645 -4.26792 1.36717
O -4.3103 -1.04569 7.66061
O -1.29578 -2.74587 8.44494
C -5.1837 -0.88569 6.60042
C -2.74717 -2.04665 11.57343
C -2.28241 -1.01486 12.59882
C -3.29805 0.08687 12.36957
C -4.23099 -0.60322 11.36525
O -4.14624 -1.96816 11.69826
H -1.48722 -0.96976 10.17039
H -3.32487 0.43395 9.61066
H -2.28976 -3.03827 11.78315
H -2.46129 -1.46111 13.60359
H -1.21897 -0.70111 12.52465
H -3.81899 0.28775 13.3319
H -2.88811 1.03153 11.95088
H -5.24526 -0.14999 11.41538
O -2.56662 -4.25485 5.12199
C -2.02528 -2.99664 0.90048
C -4.73036 -6.63168 2.27376
C -4.58243 -8.13712 2.07705
C -4.35953 -8.58241 3.50567
C -4.59044 -7.25827 4.2489
O -5.50977 -6.56517 3.44363
H -2.56936 -6.57419 2.11461
H -2.40986 -6.8777 4.43974
H -1.74675 -2.32903 1.74381
H -5.17481 -6.16986 1.36458
H -5.57516 -8.51149 1.73748
H -3.80493 -8.46153 1.35242
H -5.13849 -9.33456 3.76182
H -3.34875 -8.99062 3.72328
H -4.91687 -7.4889 5.28544
H -2.91756 -2.59006 0.37803
H -1.17972 -3.03872 0.18372
H -4.61621 -0.93693 5.64846
H -5.67813 0.10691 6.66583
H -5.96244 -1.67804 6.605
H -3.4833 -5.43439 8.58979
H -2.35126 -4.54941 7.55493
H -5.41526 -4.35447 7.54144
H -4.36719 -3.32158 6.52174
$end

$opt
CONSTRAINT
tors           1           2           3           4     -50.394
tors           3           4           5           6    +130.648
tors           4           5           6           7    +177.200
tors           5           6           7           8     -79.720
tors           6           7           8           9    -179.965
tors           7           8           9          10    -119.556
tors           8           9          10          11    -179.758
tors           9          10          11          12     -58.134
tors          11          12          13          14    +127.051
ENDCONSTRAINT
$end

$rem
JOBTYPE                   OPT
METHOD                    B3LYP
DFT_D                     d3_op
BASIS                     STO-3G
GEOM_OPT_MAX_CYCLES       100
GEOM_OPT_TOL_GRADIENT     300
GEOM_OPT_TOL_DISPLACEMENT 1200
GEOM_OPT_TOL_ENERGY       100
SYMMETRY                  False
THRESH                    12
SCF_CONVERGENCE           8
MAX_SUB_FILE_NUM          128
MEM_STATIC                400
MEM_TOTAL                 4000
$end
--------------------------------------------------------------

   15   -1510.1545397592      6.16E-09 Convergence criterion met
 Total energy in the final basis set = -1510.15453976
   14   -1510.2229762425      6.67E-09 Convergence criterion met
 Total energy in the final basis set = -1510.22297624
   15   -1510.2586122367      1.20E-09 Convergence criterion met
 Total energy in the final basis set = -1510.25861224
   14   -1510.2729260282      9.14E-09 Convergence criterion met
 Total energy in the final basis set = -1510.27292603
   14   -1510.2760279709      6.86E-09 Convergence criterion met
 Total energy in the final basis set = -1510.27602797
   13   -1510.2788272430      7.48E-09 Convergence criterion met
 Total energy in the final basis set = -1510.27882724
   12   -1510.2799935343      6.92E-09 Convergence criterion met
 Total energy in the final basis set = -1510.27999353
   12   -1510.2812254939      8.37E-09 Convergence criterion met
   12   -1510.2858538810      3.32E-09 Convergence criterion met
 Total energy in the final basis set = -1510.28585388
   11   -1510.2859478299      7.09E-09 Convergence criterion met
 Total energy in the final basis set = -1510.28594783
   11   -1510.2859957722      3.68E-09 Convergence criterion met
 Total energy in the final basis set = -1510.28599577
   10   -1510.2860360365      7.46E-09 Convergence criterion met
 Total energy in the final basis set = -1510.28603604
   11   -1510.2860529191      7.26E-09 Convergence criterion met
 Total energy in the final basis set = -1510.28605292
   10   -1510.2860541111      7.74E-09 Convergence criterion met
 Total energy in the final basis set = -1510.28605411

             Standard Nuclear Orientation (Angstroms)
    I     Atom           X                Y                Z
 ----------------------------------------------------------------
    1      O      -3.0585506774     1.4728578448     1.2673551292
    2      C      -3.8470628605     1.3955969460     0.3003143097
    3      C      -4.5335342920     0.1093691822    -0.2766025289
    4      C      -3.5147102508    -1.0767935508    -0.5607247220
    5      C      -2.0193864612    -0.6440845963    -0.3575321660
    6      O      -1.3213549895    -1.5827870535     0.4678070209
    7      C       0.0967432862    -1.1580197630     0.5667152259
    8      C       0.9335739663    -1.5638044202    -0.6998098286
    9      O       2.3176997659    -1.0864165708    -0.4745277396
   10      C       2.6881485480    -0.1465761327    -1.5017434653
   11      C       4.1551164855     0.3184429201    -1.2193771948
   12      C       4.2935554998     0.9742737362     0.2202397699
   13      C       2.9055631235     1.2290910888     0.9122285902
   14      O       2.5205506930     0.8701612125     2.0445166365
   15      O      -4.2835353487     2.5215153616    -0.4701289047
   16      O       2.1280373880     1.9974404261    -0.0180438667
   17      O       1.9568334097     0.1648301617    -2.4664994005
   18      C       0.7869895890     2.3325299087     0.5194724227
   19      C       5.1273705990    -0.9277261150    -1.0525500479
   20      C       6.6191831230    -0.4065207049    -0.9886107396
   21      C       6.6907708176     0.1465424530     0.4840474621
   22      C       5.2047487153    -0.0867509794     0.9638020505
   23      O       4.8524165098    -1.3792972036     0.3304759739
   24      H       4.4673407026     1.0051887290    -2.0248956729
   25      H       4.8093346196     1.9494494991     0.1449311977
   26      H       4.9463069116    -1.7497315253    -1.7719922779
   27      H       7.3246063630    -1.2379197418    -1.1444181827
   28      H       6.8171959698     0.3707747442    -1.7440285362
   29      H       7.3898161911    -0.4415051102     1.1001154837
   30      H       6.9856664639     1.2070718194     0.5290210696
   31      H       5.0466971974    -0.1351401091     2.0587224240
   32      O      -1.4876167162     0.3779554571    -0.8515564465
   33      C      -3.6270958370     3.7536008837     0.0253210007
   34      C      -5.4661677228    -0.5723465602     0.8168684489
   35      C      -6.3766067785    -1.6475790340     0.1001236437
   36      C      -5.3477605071    -2.8162195461    -0.1267614750
   37      C      -4.0287954952    -2.1771247113     0.4595225978
   38      O      -4.5168306070    -1.3836444323     1.6114741150
   39      H      -5.0967227577     0.3925816071    -1.1825351327
   40      H      -3.6162450907    -1.4244566862    -1.6059533392
   41      H      -2.5228187320     3.6805642897    -0.0484445769
   42      H      -6.0054265852     0.1417371883     1.4690576710
   43      H      -7.2013195799    -1.9571515276     0.7615542793
   44      H      -6.8032108240    -1.2667950110    -0.8416622139
   45      H      -5.6246759398    -3.7132397196     0.4496903627
   46      H      -5.2438625214    -3.0958561533    -1.1873816292
   47      H      -3.2490048617    -2.8927347973     0.7825952508
   48      H      -3.8960868190     3.9648614182     1.0805447406
   49      H      -3.9888636038     4.5742255107    -0.6209484923
   50      H       0.0063557824     1.8203869419    -0.0862913332
   51      H       0.6496745796     3.4287836078     0.4437469491
   52      H       0.7111666655     2.0157508757     1.5790581868
   53      H       0.9501225977    -2.6665372300    -0.8219516353
   54      H       0.5320545962    -1.0805846629    -1.6172646830
   55      H       0.5010919479    -1.6748921209     1.4599600566
   56      H       0.1650359252    -0.0672731032     0.7219899923
 ----------------------------------------------------------------

    9   -1510.2860546549      6.96E-09 Convergence criterion met
 Total energy in the final basis set = -1510.28605465
 Final energy is   -1510.28605465490
 **  OPTIMIZATION CONVERGED  **

                    Orbital Energies (a.u.)
 --------------------------------------------------------------

 Alpha MOs
 -- Occupied --
-18.940 -18.932 -18.928 -18.928 -18.887 -18.886 -18.876 -18.875
-18.875 -18.869 -10.103 -10.099 -10.097 -10.095 -10.065 -10.062
-10.062 -10.061 -10.060 -10.058 -10.057 -10.049 -10.040 -10.037
-10.036 -10.036 -10.021 -10.020 -10.019 -10.019  -1.017  -1.012
 -1.007  -1.003  -0.970  -0.968  -0.940  -0.935  -0.933  -0.931
 -0.764  -0.762  -0.727  -0.722  -0.711  -0.704  -0.691  -0.661
 -0.656  -0.613  -0.596  -0.581  -0.546  -0.544  -0.537  -0.536
 -0.512  -0.509  -0.482  -0.479  -0.464  -0.459  -0.451  -0.440
 -0.434  -0.430  -0.428  -0.411  -0.410  -0.408  -0.404  -0.397
 -0.390  -0.376  -0.372  -0.369  -0.361  -0.357  -0.355  -0.348
 -0.345  -0.341  -0.332  -0.330  -0.329  -0.324  -0.321  -0.310
 -0.309  -0.305  -0.303  -0.296  -0.290  -0.288  -0.286  -0.277
 -0.273  -0.257  -0.250  -0.245  -0.242  -0.233  -0.232  -0.186
 -0.174  -0.173  -0.163  -0.159  -0.158  -0.151  -0.148  -0.143
 -0.141

          Ground-State Mulliken Net Atomic Charges

     Atom                 Charge (a.u.)
  ----------------------------------------
      1 O                    -0.214764
      2 C                     0.209842
      3 C                    -0.079221
      4 C                    -0.078545
      5 C                     0.213948
      6 O                    -0.165286
      7 C                    -0.052387
      8 C                    -0.059410
      9 O                    -0.169807
     10 C                     0.211793
     11 C                    -0.076829
     12 C                    -0.077146
     13 C                     0.212218
     14 O                    -0.212224
     15 O                    -0.168825
     16 O                    -0.174888
     17 O                    -0.210496
     18 C                    -0.143350
     19 C                     0.026044
     20 C                    -0.144480
     21 C                    -0.143022
     22 C                     0.024279
     23 O                    -0.184531
     24 H                     0.087115
     25 H                     0.084467
     26 H                     0.082420
     27 H                     0.077976
     28 H                     0.073650
     29 H                     0.077944
     30 H                     0.072907
     31 H                     0.090064
     32 O                    -0.219949
     33 C                    -0.128385
     34 C                     0.025638
     35 C                    -0.144175
     36 C                    -0.143915
     37 C                     0.023709
     38 O                    -0.186601
     39 H                     0.086722
     40 H                     0.085274
     41 H                     0.090300
     42 H                     0.082855
     43 H                     0.078120
     44 H                     0.073851
     45 H                     0.078323
     46 H                     0.072931
     47 H                     0.093086
     48 H                     0.087969
     49 H                     0.089978
     50 H                     0.102283
     51 H                     0.083798
     52 H                     0.097759
     53 H                     0.084168
     54 H                     0.102689
     55 H                     0.095220
     56 H                     0.098897
  ----------------------------------------
  Sum of atomic charges =    -0.000000

                    Cartesian Multipole Moments
 -----------------------------------------------------------------
    Charge (ESU x 10^10)
                -0.0000
    Dipole Moment (Debye)
         X      -0.2611      Y       0.4742      Z      -1.7031
       Tot       1.7870
    Quadrupole Moments (Debye-Ang)
        XX    -134.2861     XY       5.2015     YY    -151.0883
        XZ       1.6881     YZ       6.3724     ZZ    -169.4368

 Total job time:  69.96s(wall), 3331.24s(cpu)
        *  Thank you very much for using Q-Chem.  Have a nice day.  *
