 Q-Chem 5.0, Q-Chem, Inc., Pleasanton, CA (2017)
 Q-Chem 5.0.1 for Intel X86 EM64T Linux

User input:
--------------------------------------------------------------
$molecule
0  1
O 3.1117422515 -1.4824885018 1.1290986848
C 3.9658426126 -1.3790938003 0.2215725781
C 4.6009964855 -0.0613399691 -0.3372266423
C 3.5363594135 1.0950810942 -0.560140004
C 2.0565361878 0.6009713618 -0.3760151114
O 1.3690578346 1.4161521544 0.5805194056
C -0.0395843751 0.9622373791 0.6760998364
C -0.9282939481 1.5485503916 -0.4795763917
O -2.3063607167 1.0380217667 -0.2919456749
C -2.7098989021 0.2675224174 -1.439618316
C -4.2059374417 -0.1482228493 -1.2321959979
C -4.4166959025 -0.9832174737 0.1013412035
C -3.0687959366 -1.406314143 0.7864316829
O -2.7461222703 -1.3212221941 1.9895285002
O 4.5568702847 -2.4932850677 -0.4560147294
O -2.2545720005 -1.9865211284 -0.2438392051
O -1.9934747509 0.0717035289 -2.4451291209
C -0.9699930385 -2.4945939316 0.2914447542
C -5.1122225262 1.1184408877 -0.9103649085
C -6.6312519151 0.6788015806 -0.9540252773
C -6.7769111961 -0.0678950287 0.4249223319
C -5.2954647772 0.0121706771 0.9647999373
O -4.8547728659 1.3568852927 0.5275568906
H -4.5448215544 -0.6983811952 -2.1267265873
H -4.9773006862 -1.9119647861 -0.1155217359
H -4.8664887811 2.0211399895 -1.5028323463
H -7.2868802266 1.5621245764 -1.0080807731
H -6.8464865963 0.0254036377 -1.814624926
H -7.4611569588 0.4682379983 1.1017941246
H -7.1295030025 -1.1056926081 0.3134510239
H -5.1695227137 -0.1026627725 2.0590959799
O 1.5227849485 -0.3549940506 -0.984351788
C 3.9859427922 -3.7586043889 0.0620518008
C 5.5265139569 0.6119754933 0.7679066653
C 6.3765208492 1.7569996479 0.0872065689
C 5.2953068466 2.8899409911 -0.0681815799
C 4.015223692 2.1662215299 0.5067149922
O 4.5564923041 1.342253131 1.6134454753
H 5.1598067414 -0.2988479982 -1.2589593443
H 3.619428346 1.4941887168 -1.588311717
H 2.8937786081 -3.8168540117 -0.1228672336
H 6.1089222575 -0.1070041975 1.3763139401
H 7.1997556341 2.0702741876 0.748678296
H 6.8010576555 1.4381747551 -0.8782855888
H 5.5448199429 3.771552271 0.543556793
H 5.1605076675 3.2116457999 -1.1132706295
H 3.2095388632 2.8292189862 0.8749182761
H 4.1645342291 -3.8728503467 1.1508413621
H 4.4974339841 -4.571718879 -0.4850786173
H -0.1369872344 -2.0150906318 -0.2642362718
H -0.9284298056 -3.5911667097 0.1373756511
H -0.8949443477 -2.2669522782 1.373975575
H -0.9513243267 2.6569451643 -0.4311978611
H -0.5560651596 1.2133014032 -1.4724881282
H -0.4082740658 1.3261116148 1.6560037595
H -0.091066034 -0.1415158216 0.6529321042
$end

$rem
JOBTYPE                   OPT
METHOD                    B3LYP
DFT_D                     d3_op
BASIS                     STO-3G
GEOM_OPT_MAX_CYCLES       100
GEOM_OPT_TOL_GRADIENT     300
GEOM_OPT_TOL_DISPLACEMENT 1200
GEOM_OPT_TOL_ENERGY       100
SYMMETRY                  False
THRESH                    12
SCF_CONVERGENCE           8
MAX_SUB_FILE_NUM          128
MEM_STATIC                400
MEM_TOTAL                 4000
$end
--------------------------------------------------------------

   16   -1510.2855089202      5.50E-09 Convergence criterion met
 Total energy in the final basis set = -1510.28550892
   14   -1510.2857324360      4.94E-09 Convergence criterion met
 Total energy in the final basis set = -1510.28573244
   14   -1510.2846269733      2.61E-09 Convergence criterion met
 Total energy in the final basis set = -1510.28462697
   14   -1510.2874226484      3.90E-09 Convergence criterion met
 Total energy in the final basis set = -1510.28742265
   13   -1510.2892766926      9.86E-09 Convergence criterion met
 Total energy in the final basis set = -1510.28927669
   14   -1510.2883397439      3.18E-09 Convergence criterion met
 Total energy in the final basis set = -1510.28833974
   13   -1510.2905721898      7.20E-09 Convergence criterion met
 Total energy in the final basis set = -1510.29057219
   13   -1510.2906588397      5.08E-09 Convergence criterion met
   12   -1510.2937073029      7.53E-09 Convergence criterion met
 Total energy in the final basis set = -1510.29370730
   11   -1510.2937310351      9.95E-09 Convergence criterion met
 Total energy in the final basis set = -1510.29373104
   11   -1510.2937239733      4.14E-09 Convergence criterion met
 Total energy in the final basis set = -1510.29372397
   10   -1510.2937117758      7.35E-09 Convergence criterion met
 Total energy in the final basis set = -1510.29371178
   10   -1510.2937065771      8.39E-09 Convergence criterion met
 Total energy in the final basis set = -1510.29370658
   11   -1510.2936973938      5.49E-09 Convergence criterion met
 Total energy in the final basis set = -1510.29369739

             Standard Nuclear Orientation (Angstroms)
    I     Atom           X                Y                Z
 ----------------------------------------------------------------
    1      O      -2.0144171417     1.3818231462     0.2691078715
    2      C      -3.2662001116     1.4225980104     0.3031725099
    3      C      -4.2614412085     0.3570009572    -0.2672307359
    4      C      -3.5263680366    -0.8986917955    -0.8957155333
    5      C      -1.9553497535    -0.7923669033    -0.8564619956
    6      O      -1.4856744553    -1.3341272432     0.3784828456
    7      C      -0.0414714196    -1.0680861991     0.5853628260
    8      C       0.9028884234    -1.8289949059    -0.4170003187
    9      O       2.2598754834    -1.2964555482    -0.1534852279
   10      C       3.0326131721    -1.1960568302    -1.3557732805
   11      C       4.3597213107    -0.4513151035    -0.9840530418
   12      C       4.0918594512     0.9657357510    -0.3169502159
   13      C       2.5679906654     1.3481760082    -0.2523660719
   14      O       1.8778292404     1.5916871540     0.7623231481
   15      O      -4.0126033252     2.4878364716     0.8873655923
   16      O       2.0936619585     1.4147508955    -1.5979827172
   17      O       2.6745839640    -1.6293883926    -2.4711729166
   18      C       0.6669949746     1.8232726803    -1.6486470706
   19      C       5.1339232967    -1.1813591976     0.1970730190
   20      C       6.5859113158    -0.5646595528     0.3017753160
   21      C       6.2841027726     0.8140798180     0.9997768890
   22      C       4.7116362507     0.7508327714     1.1243634069
   23      O       4.4511443922    -0.6797963636     1.4100926695
   24      H       4.9737481235    -0.3664013428    -1.8975388806
   25      H       4.6201464063     1.7607615753    -0.8745996201
   26      H       5.0933020063    -2.2872297517     0.1580907821
   27      H       7.2312889695    -1.2023663673     0.9266418537
   28      H       7.0572608394    -0.4463715070    -0.6869963135
   29      H       6.7473452053     0.8706158512     1.9977790750
   30      H       6.6227486947     1.6767488011     0.4042459818
   31      H       4.2593777930     1.3884096185     1.9086083611
   32      O      -1.2367564768    -0.4172793358    -1.8148435816
   33      C      -3.0906062249     3.5011532875     1.4543596933
   34      C      -5.1161253709    -0.3344781467     0.8822604811
   35      C      -6.3263869412    -1.0948810805     0.2094468074
   36      C      -5.5931701527    -2.3421085454    -0.4095762020
   37      C      -4.0981771338    -2.0633628152     0.0195194285
   38      O      -4.2335802606    -1.4260713879     1.3503331347
   39      H      -4.9185168730     0.8552947794    -1.0030459826
   40      H      -3.8181331617    -1.0278368122    -1.9529109711
   41      H      -2.4066138277     3.9068380630     0.6814327736
   42      H      -5.3835067389     0.3422938900     1.7170312599
   43      H      -7.0627543089    -1.3942729820     0.9723049720
   44      H      -6.8339403258    -0.4773320599    -0.5487278638
   45      H      -5.9520080577    -3.2835321167     0.0358188915
   46      H      -5.7063021004    -2.4031718065    -1.5037792973
   47      H      -3.4491196349    -2.9573742956     0.0830792064
   48      H      -2.4805882309     3.0771373228     2.2779216327
   49      H      -3.7332022284     4.3107528451     1.8461654741
   50      H       0.0061444893     0.9299665096    -1.7631962192
   51      H       0.5549013007     2.4863407766    -2.5266854113
   52      H       0.3853072738     2.3624376628    -0.7229671861
   53      H       0.8749596483    -2.9252418527    -0.2370769523
   54      H       0.5992064792    -1.6238533675    -1.4649948740
   55      H       0.1650023647    -1.4037210768     1.6212007958
   56      H       0.1694005426     0.0225896286     0.5242033689
 ----------------------------------------------------------------

    9   -1510.2936969682      5.12E-09 Convergence criterion met
 Total energy in the final basis set = -1510.29369697
 Final energy is   -1510.29369696824
 **  OPTIMIZATION CONVERGED  **

                    Orbital Energies (a.u.)
 --------------------------------------------------------------

 Alpha MOs
 -- Occupied --
-18.948 -18.930 -18.923 -18.918 -18.891 -18.890 -18.881 -18.869
-18.868 -18.863 -10.111 -10.102 -10.091 -10.089 -10.072 -10.064
-10.061 -10.059 -10.057 -10.055 -10.052 -10.044 -10.037 -10.031
-10.030 -10.029 -10.023 -10.021 -10.016 -10.015  -1.024  -1.007
 -1.003  -0.995  -0.972  -0.963  -0.947  -0.934  -0.928  -0.923
 -0.766  -0.757  -0.727  -0.721  -0.712  -0.701  -0.688  -0.669
 -0.644  -0.610  -0.594  -0.577  -0.548  -0.540  -0.539  -0.531
 -0.515  -0.505  -0.486  -0.470  -0.466  -0.456  -0.449  -0.439
 -0.436  -0.429  -0.425  -0.418  -0.413  -0.399  -0.397  -0.394
 -0.383  -0.380  -0.373  -0.363  -0.360  -0.356  -0.351  -0.341
 -0.338  -0.336  -0.334  -0.328  -0.326  -0.321  -0.319  -0.316
 -0.308  -0.304  -0.302  -0.299  -0.290  -0.284  -0.283  -0.274
 -0.268  -0.263  -0.248  -0.238  -0.236  -0.235  -0.228  -0.189
 -0.177  -0.168  -0.164  -0.157  -0.150  -0.148  -0.144  -0.141
 -0.137

          Ground-State Mulliken Net Atomic Charges

     Atom                 Charge (a.u.)
  ----------------------------------------
      1 O                    -0.206535
      2 C                     0.215749
      3 C                    -0.078371
      4 C                    -0.081365
      5 C                     0.223461
      6 O                    -0.168255
      7 C                    -0.051039
      8 C                    -0.057182
      9 O                    -0.172335
     10 C                     0.212292
     11 C                    -0.077786
     12 C                    -0.077536
     13 C                     0.212262
     14 O                    -0.219449
     15 O                    -0.167433
     16 O                    -0.176696
     17 O                    -0.210543
     18 C                    -0.151702
     19 C                     0.025964
     20 C                    -0.144152
     21 C                    -0.143863
     22 C                     0.024388
     23 O                    -0.185670
     24 H                     0.084699
     25 H                     0.083149
     26 H                     0.081857
     27 H                     0.076950
     28 H                     0.073185
     29 H                     0.076921
     30 H                     0.072418
     31 H                     0.088726
     32 O                    -0.224632
     33 C                    -0.128054
     34 C                     0.025204
     35 C                    -0.143584
     36 C                    -0.144253
     37 C                     0.026640
     38 O                    -0.186630
     39 H                     0.087572
     40 H                     0.084339
     41 H                     0.092171
     42 H                     0.087018
     43 H                     0.078785
     44 H                     0.073852
     45 H                     0.078534
     46 H                     0.073915
     47 H                     0.088009
     48 H                     0.093813
     49 H                     0.093131
     50 H                     0.110096
     51 H                     0.078538
     52 H                     0.089571
     53 H                     0.080159
     54 H                     0.105659
     55 H                     0.092680
     56 H                     0.105360
  ----------------------------------------
  Sum of atomic charges =    -0.000000

                    Cartesian Multipole Moments
 -----------------------------------------------------------------
    Charge (ESU x 10^10)
                 0.0000
    Dipole Moment (Debye)
         X      -1.8081      Y       1.4070      Z      -0.0871
       Tot       2.2927
    Quadrupole Moments (Debye-Ang)
        XX    -132.5173     XY       1.0461     YY    -150.6221
        XZ       3.2805     YZ       1.8844     ZZ    -169.2969

 Total job time:  85.08s(wall), 4055.87s(cpu)
        *  Thank you very much for using Q-Chem.  Have a nice day.  *
