 Q-Chem 5.0, Q-Chem, Inc., Pleasanton, CA (2017)
 Q-Chem 5.0.1 for Intel X86 EM64T Linux

User input:
--------------------------------------------------------------
$molecule
0  1
O -3.94934 -3.66094 2.70899
C -3.26408 -4.56952 2.26188
C -3.36658 -6.02376 2.66595
C -3.51264 -6.32759 4.16602
C -3.71853 -5.13851 5.07805
O -4.84016 -5.32318 5.83519
C -5.06755 -4.26511 6.77222
C -4.20935 -4.47111 8.01609
O -4.44201 -3.40751 8.95284
C -3.35585 -2.65827 9.26594
C -3.64035 -1.62586 10.33077
C -4.75779 -0.63071 9.98542
C -5.65013 -1.01648 8.82283
O -6.87144 -0.96234 8.81832
O -2.25162 -4.26068 1.40937
O -5.02635 -1.02329 7.61379
O -2.24558 -2.78343 8.76386
C -5.67686 -0.82713 6.40964
C -4.17838 -2.21677 11.64866
C -3.86747 -1.26144 12.79874
C -4.8066 -0.11633 12.47512
C -5.57548 -0.71696 11.29055
O -5.57684 -2.10094 11.54696
H -2.67946 -1.10199 10.5413
H -4.36441 0.38754 9.77173
H -3.78399 -3.23298 11.86843
H -4.2203 -1.75923 13.73063
H -2.79984 -0.9781 12.92003
H -5.47492 0.04543 13.34976
H -4.31223 0.83722 12.18859
H -6.57402 -0.23566 11.20239
O -2.89894 -4.23805 5.22281
C -1.97299 -2.9859 0.96269
C -4.66615 -6.66654 2.13023
C -4.45972 -8.16798 1.95581
C -4.3774 -8.60505 3.40168
C -4.72871 -7.28766 4.10898
O -5.5725 -6.62164 3.20537
H -2.50777 -6.55979 2.19968
H -2.6036 -6.83924 4.55192
H -1.72825 -2.32423 1.82103
H -5.02067 -6.21834 1.17576
H -5.40194 -8.5671 1.51533
H -3.60315 -8.4754 1.31817
H -5.15338 -9.38327 3.57555
H -3.38243 -8.97757 3.72869
H -5.15862 -7.5245 5.10598
H -2.84434 -2.57594 0.4085
H -1.09987 -3.02247 0.27945
H -4.94196 -0.89618 5.58136
H -6.13857 0.18306 6.38952
H -6.4686 -1.59227 6.26118
H -4.49702 -5.43143 8.49439
H -3.14844 -4.58689 7.71103
H -6.13423 -4.28236 7.08101
H -4.86996 -3.2832 6.30562
$end

$opt
CONSTRAINT
tors           1           2           3           4     -43.335
tors           3           4           5           6    +125.941
tors           4           5           6           7    +177.200
tors           5           6           7           8     -81.518
tors           6           7           8           9    -179.965
tors           7           8           9          10    -119.489
tors           8           9          10          11    -175.658
tors           9          10          11          12     -58.134
tors          11          12          13          14    +133.386
ENDCONSTRAINT
$end

$rem
JOBTYPE                   OPT
METHOD                    B3LYP
DFT_D                     d3_op
BASIS                     STO-3G
GEOM_OPT_MAX_CYCLES       100
GEOM_OPT_TOL_GRADIENT     300
GEOM_OPT_TOL_DISPLACEMENT 1200
GEOM_OPT_TOL_ENERGY       100
SYMMETRY                  False
THRESH                    12
SCF_CONVERGENCE           8
MAX_SUB_FILE_NUM          128
MEM_STATIC                400
MEM_TOTAL                 4000
$end
--------------------------------------------------------------

   15   -1510.1532344928      6.16E-09 Convergence criterion met
 Total energy in the final basis set = -1510.15323449
   13   -1510.2219158871      8.32E-09 Convergence criterion met
 Total energy in the final basis set = -1510.22191589
   15   -1510.2576055357      1.27E-09 Convergence criterion met
 Total energy in the final basis set = -1510.25760554
   14   -1510.2714707455      9.82E-09 Convergence criterion met
 Total energy in the final basis set = -1510.27147075
   14   -1510.2770210339      6.70E-09 Convergence criterion met
 Total energy in the final basis set = -1510.27702103
   13   -1510.2791349185      3.92E-09 Convergence criterion met
 Total energy in the final basis set = -1510.27913492
   13   -1510.2806409884      2.21E-09 Convergence criterion met
 Total energy in the final basis set = -1510.28064099
   12   -1510.2816704235      7.43E-09 Convergence criterion met
   11   -1510.2852187281      6.50E-09 Convergence criterion met
 Total energy in the final basis set = -1510.28521873
   12   -1510.2852910545      4.63E-09 Convergence criterion met
 Total energy in the final basis set = -1510.28529105
   11   -1510.2853255694      7.34E-09 Convergence criterion met
 Total energy in the final basis set = -1510.28532557
   10   -1510.2853499808      9.87E-09 Convergence criterion met
 Total energy in the final basis set = -1510.28534998
    9   -1510.2853543121      7.12E-09 Convergence criterion met
 Total energy in the final basis set = -1510.28535431
    9   -1510.2853564826      3.21E-09 Convergence criterion met
 Total energy in the final basis set = -1510.28535648

             Standard Nuclear Orientation (Angstroms)
    I     Atom           X                Y                Z
 ----------------------------------------------------------------
    1      O       3.1117422515    -1.4824885018     1.1290986848
    2      C       3.9658426126    -1.3790938003     0.2215725781
    3      C       4.6009964855    -0.0613399691    -0.3372266423
    4      C       3.5363594135     1.0950810942    -0.5601400040
    5      C       2.0565361878     0.6009713618    -0.3760151114
    6      O       1.3690578346     1.4161521544     0.5805194056
    7      C      -0.0395843751     0.9622373791     0.6760998364
    8      C      -0.9282939481     1.5485503916    -0.4795763917
    9      O      -2.3063607167     1.0380217667    -0.2919456749
   10      C      -2.7098989021     0.2675224174    -1.4396183160
   11      C      -4.2059374417    -0.1482228493    -1.2321959979
   12      C      -4.4166959025    -0.9832174737     0.1013412035
   13      C      -3.0687959366    -1.4063141430     0.7864316829
   14      O      -2.7461222703    -1.3212221941     1.9895285002
   15      O       4.5568702847    -2.4932850677    -0.4560147294
   16      O      -2.2545720005    -1.9865211284    -0.2438392051
   17      O      -1.9934747509     0.0717035289    -2.4451291209
   18      C      -0.9699930385    -2.4945939316     0.2914447542
   19      C      -5.1122225262     1.1184408877    -0.9103649085
   20      C      -6.6312519151     0.6788015806    -0.9540252773
   21      C      -6.7769111961    -0.0678950287     0.4249223319
   22      C      -5.2954647772     0.0121706771     0.9647999373
   23      O      -4.8547728659     1.3568852927     0.5275568906
   24      H      -4.5448215544    -0.6983811952    -2.1267265873
   25      H      -4.9773006862    -1.9119647861    -0.1155217359
   26      H      -4.8664887811     2.0211399895    -1.5028323463
   27      H      -7.2868802266     1.5621245764    -1.0080807731
   28      H      -6.8464865963     0.0254036377    -1.8146249260
   29      H      -7.4611569588     0.4682379983     1.1017941246
   30      H      -7.1295030025    -1.1056926081     0.3134510239
   31      H      -5.1695227137    -0.1026627725     2.0590959799
   32      O       1.5227849485    -0.3549940506    -0.9843517880
   33      C       3.9859427922    -3.7586043889     0.0620518008
   34      C       5.5265139569     0.6119754933     0.7679066653
   35      C       6.3765208492     1.7569996479     0.0872065689
   36      C       5.2953068466     2.8899409911    -0.0681815799
   37      C       4.0152236920     2.1662215299     0.5067149922
   38      O       4.5564923041     1.3422531310     1.6134454753
   39      H       5.1598067414    -0.2988479982    -1.2589593443
   40      H       3.6194283460     1.4941887168    -1.5883117170
   41      H       2.8937786081    -3.8168540117    -0.1228672336
   42      H       6.1089222575    -0.1070041975     1.3763139401
   43      H       7.1997556341     2.0702741876     0.7486782960
   44      H       6.8010576555     1.4381747551    -0.8782855888
   45      H       5.5448199429     3.7715522710     0.5435567930
   46      H       5.1605076675     3.2116457999    -1.1132706295
   47      H       3.2095388632     2.8292189862     0.8749182761
   48      H       4.1645342291    -3.8728503467     1.1508413621
   49      H       4.4974339841    -4.5717188790    -0.4850786173
   50      H      -0.1369872344    -2.0150906318    -0.2642362718
   51      H      -0.9284298056    -3.5911667097     0.1373756511
   52      H      -0.8949443477    -2.2669522782     1.3739755750
   53      H      -0.9513243267     2.6569451643    -0.4311978611
   54      H      -0.5560651596     1.2133014032    -1.4724881282
   55      H      -0.4082740658     1.3261116148     1.6560037595
   56      H      -0.0910660340    -0.1415158216     0.6529321042
 ----------------------------------------------------------------

    9   -1510.2853566247      1.68E-09 Convergence criterion met
 Total energy in the final basis set = -1510.28535662
 Final energy is   -1510.28535662468
 **  OPTIMIZATION CONVERGED  **

                    Orbital Energies (a.u.)
 --------------------------------------------------------------

 Alpha MOs
 -- Occupied --
-18.935 -18.934 -18.930 -18.926 -18.887 -18.886 -18.878 -18.873
-18.871 -18.871 -10.100 -10.100 -10.096 -10.096 -10.064 -10.063
-10.061 -10.060 -10.060 -10.057 -10.057 -10.053 -10.038 -10.037
-10.037 -10.036 -10.020 -10.020 -10.019 -10.019  -1.014  -1.012
 -1.007  -1.003  -0.969  -0.968  -0.937  -0.936  -0.933  -0.930
 -0.764  -0.762  -0.726  -0.722  -0.711  -0.704  -0.690  -0.662
 -0.657  -0.612  -0.596  -0.580  -0.546  -0.544  -0.537  -0.536
 -0.511  -0.509  -0.481  -0.478  -0.465  -0.461  -0.450  -0.440
 -0.433  -0.431  -0.427  -0.411  -0.410  -0.408  -0.404  -0.397
 -0.389  -0.375  -0.371  -0.371  -0.360  -0.358  -0.353  -0.348
 -0.345  -0.341  -0.332  -0.330  -0.329  -0.324  -0.321  -0.310
 -0.309  -0.304  -0.302  -0.296  -0.291  -0.288  -0.285  -0.276
 -0.273  -0.256  -0.249  -0.245  -0.241  -0.233  -0.232  -0.184
 -0.175  -0.173  -0.163  -0.160  -0.156  -0.150  -0.148  -0.143
 -0.141

          Ground-State Mulliken Net Atomic Charges

     Atom                 Charge (a.u.)
  ----------------------------------------
      1 O                    -0.213699
      2 C                     0.210107
      3 C                    -0.078961
      4 C                    -0.078891
      5 C                     0.212920
      6 O                    -0.166765
      7 C                    -0.051790
      8 C                    -0.059115
      9 O                    -0.171652
     10 C                     0.213396
     11 C                    -0.076909
     12 C                    -0.077225
     13 C                     0.214302
     14 O                    -0.211343
     15 O                    -0.168856
     16 O                    -0.173719
     17 O                    -0.211682
     18 C                    -0.140218
     19 C                     0.026197
     20 C                    -0.144493
     21 C                    -0.143152
     22 C                     0.024479
     23 O                    -0.184844
     24 H                     0.086527
     25 H                     0.084579
     26 H                     0.082303
     27 H                     0.077873
     28 H                     0.073590
     29 H                     0.078048
     30 H                     0.072912
     31 H                     0.090083
     32 O                    -0.220872
     33 C                    -0.128497
     34 C                     0.025748
     35 C                    -0.144170
     36 C                    -0.143866
     37 C                     0.023750
     38 O                    -0.186774
     39 H                     0.086925
     40 H                     0.084628
     41 H                     0.089931
     42 H                     0.082478
     43 H                     0.078124
     44 H                     0.073901
     45 H                     0.078119
     46 H                     0.072915
     47 H                     0.093256
     48 H                     0.088924
     49 H                     0.090218
     50 H                     0.100120
     51 H                     0.084490
     52 H                     0.099715
     53 H                     0.083719
     54 H                     0.102122
     55 H                     0.093914
     56 H                     0.097179
  ----------------------------------------
  Sum of atomic charges =     0.000000

                    Cartesian Multipole Moments
 -----------------------------------------------------------------
    Charge (ESU x 10^10)
                 0.0000
    Dipole Moment (Debye)
         X       0.3040      Y      -0.4030      Z      -1.6362
       Tot       1.7123
    Quadrupole Moments (Debye-Ang)
        XX    -133.4636     XY       3.9854     YY    -149.5022
        XZ      -0.4442     YZ      -5.2436     ZZ    -170.4885

 Total job time:  72.08s(wall), 3431.67s(cpu)
        *  Thank you very much for using Q-Chem.  Have a nice day.  *
