 Q-Chem 5.0, Q-Chem, Inc., Pleasanton, CA (2017)
 Q-Chem 5.0.1 for Intel X86 EM64T Linux

User input:
--------------------------------------------------------------
$molecule
0  1
O -3.1704716191 1.5222202846 1.2039927289
C -3.9790265357 1.3856820793 0.2604351247
C -4.6174539191 0.0544051178 -0.2664448866
C -3.5532528009 -1.0918911069 -0.5425127749
C -2.0702418261 -0.596807491 -0.3905646706
O -1.3241813374 -1.4907129263 0.4429229013
C 0.0777744703 -1.0128362268 0.5186873557
C 0.9051163167 -1.4167060932 -0.7544016697
O 2.3137772771 -1.0459010108 -0.4890975035
C 2.8056685668 -0.1861685963 -1.5335811862
C 4.293167931 0.1610652064 -1.1966632062
C 4.409203021 0.9987479395 0.1503665983
C 3.0121246404 1.3784574975 0.7630374307
O 2.5960924112 1.1781999997 1.9234031935
O -4.4999825729 2.4722943064 -0.5138477555
O 2.2698643084 2.0390398011 -0.2719222233
O 2.1502830396 0.1371825919 -2.5476163149
C 0.928028744 2.4598534781 0.1975558009
C 5.1288509461 -1.1304444288 -0.7991415576
C 6.6604424697 -0.7424903359 -0.753998924
C 6.7386194827 0.0449181307 0.6073593446
C 5.2287030983 0.0011041656 1.0673383945
O 4.7785763734 -1.3386891694 0.62374885
H 4.7280394529 0.700963448 -2.0554253833
H 4.9679432421 1.9371044097 -0.0238956787
H 4.8882873407 -2.0334500342 -1.3931108414
H 7.2848889369 -1.649646291 -0.7319854702
H 6.9597441348 -0.129567162 -1.6192089724
H 7.3780174377 -0.4762127534 1.3375237281
H 7.109528023 1.0749480539 0.483809493
H 5.0464440966 0.1310978317 2.1519248167
O -1.5804938054 0.4251327992 -0.9249690833
C -3.9075566852 3.748502169 -0.0504496329
C -5.490553684 -0.6363129106 0.8708117111
C -6.3673836787 -1.7741308934 0.2112036955
C -5.2906882172 -2.9002484121 -0.0102984599
C -3.9892053841 -2.1830389236 0.5224586384
O -4.4841707486 -1.377620127 1.6632670263
H -5.2161157382 0.2849717329 -1.1646820236
H -3.6656749525 -1.4754265348 -1.5740302861
H -2.8045493969 3.7489510854 -0.1673498415
H -6.0465253608 0.0719021728 1.5153585891
H -7.1590493099 -2.1011598223 0.9040161717
H -6.8359933347 -1.4424785444 -0.7291560524
H -5.511454662 -3.7934124282 0.5958275291
H -5.2000668549 -3.2032864189 -1.0656975132
H -3.1677945109 -2.8503938363 0.8450543315
H -4.1483046316 3.9486091121 1.0136934048
H -4.3479040816 4.5389558277 -0.685459134
H 0.1472663065 1.9141754917 -0.3752896583
H 0.8213842649 3.5470606979 0.0158013001
H 0.8233244645 2.246479911 1.2804406645
H 0.8439139844 -2.5130303108 -0.9197290324
H 0.5504887817 -0.8773026804 -1.6592442091
H 0.5129804445 -1.5063939814 1.4109704259
H 0.1105334828 0.0828251295 0.6600434702
$end

$rem
JOBTYPE                   OPT
METHOD                    B3LYP
DFT_D                     d3_op
BASIS                     STO-3G
GEOM_OPT_MAX_CYCLES       100
GEOM_OPT_TOL_GRADIENT     300
GEOM_OPT_TOL_DISPLACEMENT 1200
GEOM_OPT_TOL_ENERGY       100
SYMMETRY                  False
THRESH                    12
SCF_CONVERGENCE           8
MAX_SUB_FILE_NUM          128
MEM_STATIC                400
MEM_TOTAL                 4000
$end
--------------------------------------------------------------

   16   -1510.2861484104      7.06E-09 Convergence criterion met
 Total energy in the final basis set = -1510.28614841
   14   -1510.2821446929      4.91E-09 Convergence criterion met
 Total energy in the final basis set = -1510.28214469
   14   -1510.2846890739      3.05E-09 Convergence criterion met
 Total energy in the final basis set = -1510.28468907
   14   -1510.2873692262      3.58E-09 Convergence criterion met
 Total energy in the final basis set = -1510.28736923
   13   -1510.2884571961      6.54E-09 Convergence criterion met
 Total energy in the final basis set = -1510.28845720
   13   -1510.2894072178      5.42E-09 Convergence criterion met
 Total energy in the final basis set = -1510.28940722
   13   -1510.2892661880      6.98E-09 Convergence criterion met
 Total energy in the final basis set = -1510.28926619
   14   -1510.2900870916      2.05E-09 Convergence criterion met
   12   -1510.2937657475      6.24E-09 Convergence criterion met
 Total energy in the final basis set = -1510.29376575
   12   -1510.2938181060      6.43E-09 Convergence criterion met
 Total energy in the final basis set = -1510.29381811
   12   -1510.2938107879      3.43E-09 Convergence criterion met
 Total energy in the final basis set = -1510.29381079
   11   -1510.2938313437      6.97E-09 Convergence criterion met
 Total energy in the final basis set = -1510.29383134
   11   -1510.2938358153      4.28E-09 Convergence criterion met
 Total energy in the final basis set = -1510.29383582
   10   -1510.2938341329      7.91E-09 Convergence criterion met
 Total energy in the final basis set = -1510.29383413

             Standard Nuclear Orientation (Angstroms)
    I     Atom           X                Y                Z
 ----------------------------------------------------------------
    1      O      -2.0378017819     1.3515869008     0.3529640604
    2      C      -3.2898717134     1.3972242323     0.3581446025
    3      C      -4.2763857600     0.3474622904    -0.2543586858
    4      C      -3.5324326705    -0.8746788169    -0.9363884542
    5      C      -1.9622329160    -0.7576313472    -0.8883898674
    6      O      -1.4890000297    -1.3676976732     0.3132936871
    7      C      -0.0492895577    -1.0947011842     0.5410961449
    8      C       0.9065705314    -1.7893930449    -0.4970103298
    9      O       2.2577058101    -1.2573570604    -0.2042691225
   10      C       3.0368463559    -1.1135258810    -1.3984897989
   11      C       4.3681984170    -0.3953283516    -0.9925514863
   12      C       4.1130386283     0.9835543731    -0.2475559552
   13      C       2.5926538857     1.3732081126    -0.1500625349
   14      O       1.9242457375     1.6028319582     0.8820140123
   15      O      -4.0456502916     2.4538911838     0.9460140795
   16      O       2.0950701645     1.4739255426    -1.4858603862
   17      O       2.6828868549    -1.5041917632    -2.5308055749
   18      C       0.6727285125     1.8993123207    -1.5018210465
   19      C       5.1424762790    -1.1949079579     0.1433142709
   20      C       6.5999793726    -0.5961296070     0.2725914745
   21      C       6.3129899912     0.7458065148     1.0444498585
   22      C       4.7405820872     0.6874264290     1.1756863177
   23      O       4.4708548621    -0.7545743101     1.3858085533
   24      H       4.9794231714    -0.2649903977    -1.9026049423
   25      H       4.6426765711     1.8051620943    -0.7641450125
   26      H       5.0927246414    -2.2967270987     0.0447458676
   27      H       7.2433264854    -1.2710084000     0.8592888471
   28      H       7.0668473152    -0.4293803243    -0.7112881026
   29      H       6.7833247661     0.7463931133     2.0406794582
   30      H       6.6537895697     1.6359464899     0.4920750558
   31      H       4.2974305480     1.2855128639     1.9954999705
   32      O      -1.2459493467    -0.3181478441    -1.8206756794
   33      C      -3.1332739520     3.4518514520     1.5545820939
   34      C      -5.1217960825    -0.3991870928     0.8683520035
   35      C      -6.3301436906    -1.1351354996     0.1658803942
   36      C      -5.5916687973    -2.3478433078    -0.5129674585
   37      C      -4.0969939028    -2.0818877664    -0.0739551593
   38      O      -4.2320550103    -1.5052894799     1.2844306165
   39      H      -4.9407510661     0.8700071472    -0.9663170242
   40      H      -3.8221427782    -0.9588293089    -1.9987306283
   41      H      -2.4280734254     3.8676205065     0.8065007647
   42      H      -5.3903259275     0.2383110535     1.7331657056
   43      H      -7.0619127692    -1.4743250761     0.9164113990
   44      H      -6.8437287549    -0.4859804475    -0.5611595789
   45      H      -5.9452493047    -3.3113032811    -0.1126098548
   46      H      -5.7061688427    -2.3572353179    -1.6086369789
   47      H      -3.4434374254    -2.9745677062    -0.0516551632
   48      H      -2.5463315530     3.0097005973     2.3853417941
   49      H      -3.7815571778     4.2576586266     1.9448224597
   50      H       0.0050432004     1.0230703065    -1.6857288256
   51      H       0.5627868949     2.6326344092    -2.3226444902
   52      H       0.4000050680     2.3638814669    -0.5339254342
   53      H       0.8899596819    -2.8939289965    -0.3755755534
   54      H       0.6017672847    -1.5331188837    -1.5334677282
   55      H       0.1577256711    -1.4819446890     1.5586945673
   56      H       0.1441336660     0.0001004987     0.5380066278
 ----------------------------------------------------------------

    9   -1510.2938343304      5.23E-09 Convergence criterion met
 Total energy in the final basis set = -1510.29383433
 Final energy is   -1510.29383433045
 **  OPTIMIZATION CONVERGED  **

                    Orbital Energies (a.u.)
 --------------------------------------------------------------

 Alpha MOs
 -- Occupied --
-18.948 -18.930 -18.923 -18.918 -18.891 -18.890 -18.881 -18.870
-18.868 -18.862 -10.111 -10.103 -10.091 -10.089 -10.072 -10.064
-10.061 -10.060 -10.057 -10.055 -10.052 -10.044 -10.037 -10.031
-10.030 -10.029 -10.023 -10.021 -10.016 -10.015  -1.024  -1.008
 -1.003  -0.994  -0.973  -0.963  -0.948  -0.934  -0.928  -0.923
 -0.766  -0.757  -0.727  -0.721  -0.712  -0.701  -0.688  -0.669
 -0.643  -0.610  -0.594  -0.578  -0.549  -0.540  -0.539  -0.531
 -0.516  -0.504  -0.487  -0.470  -0.465  -0.456  -0.449  -0.439
 -0.436  -0.429  -0.425  -0.418  -0.413  -0.399  -0.397  -0.395
 -0.384  -0.380  -0.373  -0.363  -0.361  -0.356  -0.351  -0.342
 -0.339  -0.336  -0.334  -0.328  -0.326  -0.321  -0.319  -0.316
 -0.308  -0.305  -0.302  -0.299  -0.290  -0.284  -0.283  -0.275
 -0.267  -0.263  -0.248  -0.238  -0.236  -0.235  -0.228  -0.190
 -0.177  -0.168  -0.164  -0.157  -0.150  -0.148  -0.144  -0.141
 -0.137

          Ground-State Mulliken Net Atomic Charges

     Atom                 Charge (a.u.)
  ----------------------------------------
      1 O                    -0.206807
      2 C                     0.215575
      3 C                    -0.078436
      4 C                    -0.081302
      5 C                     0.223396
      6 O                    -0.168121
      7 C                    -0.050258
      8 C                    -0.056903
      9 O                    -0.172458
     10 C                     0.213002
     11 C                    -0.077908
     12 C                    -0.077519
     13 C                     0.212669
     14 O                    -0.219649
     15 O                    -0.167405
     16 O                    -0.177124
     17 O                    -0.210845
     18 C                    -0.152208
     19 C                     0.025945
     20 C                    -0.144142
     21 C                    -0.143875
     22 C                     0.024337
     23 O                    -0.185897
     24 H                     0.084692
     25 H                     0.083064
     26 H                     0.081751
     27 H                     0.076938
     28 H                     0.073180
     29 H                     0.076963
     30 H                     0.072409
     31 H                     0.088957
     32 O                    -0.224464
     33 C                    -0.128126
     34 C                     0.025374
     35 C                    -0.143512
     36 C                    -0.144295
     37 C                     0.026635
     38 O                    -0.186537
     39 H                     0.087665
     40 H                     0.084410
     41 H                     0.092320
     42 H                     0.086707
     43 H                     0.078812
     44 H                     0.073920
     45 H                     0.078557
     46 H                     0.073940
     47 H                     0.088213
     48 H                     0.093587
     49 H                     0.093174
     50 H                     0.109793
     51 H                     0.078014
     52 H                     0.090316
     53 H                     0.080246
     54 H                     0.105626
     55 H                     0.093013
     56 H                     0.104590
  ----------------------------------------
  Sum of atomic charges =    -0.000000

                    Cartesian Multipole Moments
 -----------------------------------------------------------------
    Charge (ESU x 10^10)
                 0.0000
    Dipole Moment (Debye)
         X      -1.8507      Y       1.3545      Z      -0.0573
       Tot       2.2941
    Quadrupole Moments (Debye-Ang)
        XX    -132.3570     XY       0.8970     YY    -150.8828
        XZ       3.1658     YZ       2.6598     ZZ    -169.1762

 Total job time:  100.35s(wall), 4780.83s(cpu)
        *  Thank you very much for using Q-Chem.  Have a nice day.  *
