 Q-Chem 5.0, Q-Chem, Inc., Pleasanton, CA (2017)
 Q-Chem 5.0.1 for Intel X86 EM64T Linux

User input:
--------------------------------------------------------------
$molecule
0  1
O -3.94934 -3.66094 2.70899
C -3.26408 -4.56952 2.26188
C -3.36658 -6.02376 2.66595
C -3.35185 -6.33753 4.171
C -3.41538 -5.1516 5.10781
O -4.3817 -5.3566 6.05101
C -4.4715 -4.29352 7.0055
C -3.37555 -4.43675 8.05645
O -3.57043 -3.47098 9.10153
C -2.51168 -2.66144 9.35223
C -2.77647 -1.67363 10.46343
C -3.88243 -0.6496 10.16932
C -4.78627 -0.97175 8.99629
O -6.00777 -1.00743 9.03154
O -2.28482 -4.26758 1.36908
O -4.18849 -0.92145 7.77588
O -1.41706 -2.74831 8.80937
C -4.86574 -0.68556 6.59463
C -3.30029 -2.30286 11.76824
C -2.96349 -1.38982 12.94515
C -3.8974 -0.22613 12.67592
C -4.68644 -0.77567 11.47994
O -4.69891 -2.16829 11.68819
H -1.80963 -1.16009 10.67267
H -3.4765 0.37122 9.99472
H -2.91367 -3.32996 11.94706
H -3.30562 -1.91555 13.86557
H -1.89137 -1.12009 13.05757
H -4.55461 -0.0929 13.56371
H -3.39887 0.73411 12.42074
H -5.68055 -0.28096 11.42008
O -2.58442 -4.2505 5.12467
C -2.02276 -2.9961 0.90341
C -4.72806 -6.63317 2.26771
C -4.57759 -8.13847 2.07173
C -4.3603 -8.5834 3.50132
C -4.59651 -7.25958 4.24345
O -5.51297 -6.56766 3.43397
H -2.56668 -6.5737 2.11801
H -2.41733 -6.87527 4.44455
H -1.74571 -2.32886 1.74752
H -5.16895 -6.17195 1.3565
H -5.5685 -8.51388 1.72798
H -3.79673 -8.4622 1.35043
H -5.13911 -9.33688 3.75401
H -3.34979 -8.98986 3.72341
H -4.92736 -7.49056 5.27852
H -2.91407 -2.58926 0.37954
H -1.17591 -3.0379 0.18815
H -4.15155 -0.73787 5.74736
H -5.31817 0.32867 6.61729
H -5.67294 -1.43224 6.44124
H -3.46875 -5.44595 8.51167
H -2.37943 -4.40286 7.56975
H -5.44865 -4.38443 7.52586
H -4.44478 -3.30601 6.51097
$end

$opt
CONSTRAINT
tors           1           2           3           4     -50.092
tors           3           4           5           6    +130.648
tors           4           5           6           7    +177.985
tors           5           6           7           8     -79.720
tors           6           7           8           9    -172.795
tors           7           8           9          10    -124.913
tors           8           9          10          11    -179.758
tors           9          10          11          12     -64.175
tors          11          12          13          14    +127.051
ENDCONSTRAINT
$end

$rem
JOBTYPE                   OPT
METHOD                    B3LYP
DFT_D                     d3_op
BASIS                     STO-3G
GEOM_OPT_MAX_CYCLES       100
GEOM_OPT_TOL_GRADIENT     300
GEOM_OPT_TOL_DISPLACEMENT 1200
GEOM_OPT_TOL_ENERGY       100
SYMMETRY                  False
THRESH                    12
SCF_CONVERGENCE           8
MAX_SUB_FILE_NUM          128
MEM_STATIC                400
MEM_TOTAL                 4000
$end
--------------------------------------------------------------

   15   -1510.1560524371      6.23E-09 Convergence criterion met
 Total energy in the final basis set = -1510.15605244
   13   -1510.2243703462      9.32E-09 Convergence criterion met
 Total energy in the final basis set = -1510.22437035
    3   -1510.2243703461      5.42E-10 Convergence criterion met
 Total energy in the final basis set = -1510.22437035
   14   -1510.2600169457      9.62E-09 Convergence criterion met
 Total energy in the final basis set = -1510.26001695
   14   -1510.2747727222      6.51E-09 Convergence criterion met
 Total energy in the final basis set = -1510.27477272
   14   -1510.2767764332      5.51E-09 Convergence criterion met
 Total energy in the final basis set = -1510.27677643
   13   -1510.2794701117      9.20E-09 Convergence criterion met
 Total energy in the final basis set = -1510.27947011
   12   -1510.2808350365      9.71E-09 Convergence criterion met
   12   -1510.2859557866      3.29E-09 Convergence criterion met
 Total energy in the final basis set = -1510.28595579
   11   -1510.2860096594      7.70E-09 Convergence criterion met
 Total energy in the final basis set = -1510.28600966
   11   -1510.2860560889      8.27E-09 Convergence criterion met
 Total energy in the final basis set = -1510.28605609
   11   -1510.2860807082      6.91E-09 Convergence criterion met
 Total energy in the final basis set = -1510.28608071
   10   -1510.2860872831      9.52E-09 Convergence criterion met
 Total energy in the final basis set = -1510.28608728
    9   -1510.2860902700      5.82E-09 Convergence criterion met
 Total energy in the final basis set = -1510.28609027

             Standard Nuclear Orientation (Angstroms)
    I     Atom           X                Y                Z
 ----------------------------------------------------------------
    1      O      -3.1704716191     1.5222202846     1.2039927289
    2      C      -3.9790265357     1.3856820793     0.2604351247
    3      C      -4.6174539191     0.0544051178    -0.2664448866
    4      C      -3.5532528009    -1.0918911069    -0.5425127749
    5      C      -2.0702418261    -0.5968074910    -0.3905646706
    6      O      -1.3241813374    -1.4907129263     0.4429229013
    7      C       0.0777744703    -1.0128362268     0.5186873557
    8      C       0.9051163167    -1.4167060932    -0.7544016697
    9      O       2.3137772771    -1.0459010108    -0.4890975035
   10      C       2.8056685668    -0.1861685963    -1.5335811862
   11      C       4.2931679310     0.1610652064    -1.1966632062
   12      C       4.4092030210     0.9987479395     0.1503665983
   13      C       3.0121246404     1.3784574975     0.7630374307
   14      O       2.5960924112     1.1781999997     1.9234031935
   15      O      -4.4999825729     2.4722943064    -0.5138477555
   16      O       2.2698643084     2.0390398011    -0.2719222233
   17      O       2.1502830396     0.1371825919    -2.5476163149
   18      C       0.9280287440     2.4598534781     0.1975558009
   19      C       5.1288509461    -1.1304444288    -0.7991415576
   20      C       6.6604424697    -0.7424903359    -0.7539989240
   21      C       6.7386194827     0.0449181307     0.6073593446
   22      C       5.2287030983     0.0011041656     1.0673383945
   23      O       4.7785763734    -1.3386891694     0.6237488500
   24      H       4.7280394529     0.7009634480    -2.0554253833
   25      H       4.9679432421     1.9371044097    -0.0238956787
   26      H       4.8882873407    -2.0334500342    -1.3931108414
   27      H       7.2848889369    -1.6496462910    -0.7319854702
   28      H       6.9597441348    -0.1295671620    -1.6192089724
   29      H       7.3780174377    -0.4762127534     1.3375237281
   30      H       7.1095280230     1.0749480539     0.4838094930
   31      H       5.0464440966     0.1310978317     2.1519248167
   32      O      -1.5804938054     0.4251327992    -0.9249690833
   33      C      -3.9075566852     3.7485021690    -0.0504496329
   34      C      -5.4905536840    -0.6363129106     0.8708117111
   35      C      -6.3673836787    -1.7741308934     0.2112036955
   36      C      -5.2906882172    -2.9002484121    -0.0102984599
   37      C      -3.9892053841    -2.1830389236     0.5224586384
   38      O      -4.4841707486    -1.3776201270     1.6632670263
   39      H      -5.2161157382     0.2849717329    -1.1646820236
   40      H      -3.6656749525    -1.4754265348    -1.5740302861
   41      H      -2.8045493969     3.7489510854    -0.1673498415
   42      H      -6.0465253608     0.0719021728     1.5153585891
   43      H      -7.1590493099    -2.1011598223     0.9040161717
   44      H      -6.8359933347    -1.4424785444    -0.7291560524
   45      H      -5.5114546620    -3.7934124282     0.5958275291
   46      H      -5.2000668549    -3.2032864189    -1.0656975132
   47      H      -3.1677945109    -2.8503938363     0.8450543315
   48      H      -4.1483046316     3.9486091121     1.0136934048
   49      H      -4.3479040816     4.5389558277    -0.6854591340
   50      H       0.1472663065     1.9141754917    -0.3752896583
   51      H       0.8213842649     3.5470606979     0.0158013001
   52      H       0.8233244645     2.2464799110     1.2804406645
   53      H       0.8439139844    -2.5130303108    -0.9197290324
   54      H       0.5504887817    -0.8773026804    -1.6592442091
   55      H       0.5129804445    -1.5063939814     1.4109704259
   56      H       0.1105334828     0.0828251295     0.6600434702
 ----------------------------------------------------------------

    9   -1510.2860895860      3.42E-09 Convergence criterion met
 Total energy in the final basis set = -1510.28608959
 Final energy is   -1510.28608958599
 **  OPTIMIZATION CONVERGED  **

                    Orbital Energies (a.u.)
 --------------------------------------------------------------

 Alpha MOs
 -- Occupied --
-18.939 -18.932 -18.930 -18.928 -18.887 -18.886 -18.878 -18.874
-18.874 -18.869 -10.102 -10.100 -10.097 -10.095 -10.066 -10.062
-10.062 -10.060 -10.060 -10.057 -10.057 -10.052 -10.039 -10.038
-10.036 -10.036 -10.020 -10.020 -10.019 -10.019  -1.016  -1.012
 -1.007  -1.004  -0.969  -0.968  -0.940  -0.936  -0.933  -0.931
 -0.764  -0.762  -0.727  -0.722  -0.712  -0.705  -0.691  -0.661
 -0.657  -0.613  -0.596  -0.580  -0.546  -0.545  -0.537  -0.536
 -0.512  -0.510  -0.481  -0.479  -0.465  -0.460  -0.450  -0.440
 -0.433  -0.431  -0.428  -0.411  -0.410  -0.408  -0.403  -0.397
 -0.389  -0.376  -0.373  -0.371  -0.361  -0.357  -0.354  -0.348
 -0.345  -0.341  -0.332  -0.330  -0.329  -0.326  -0.321  -0.310
 -0.309  -0.305  -0.303  -0.296  -0.290  -0.288  -0.286  -0.276
 -0.273  -0.257  -0.250  -0.245  -0.243  -0.233  -0.233  -0.185
 -0.175  -0.173  -0.164  -0.160  -0.157  -0.151  -0.148  -0.143
 -0.142

          Ground-State Mulliken Net Atomic Charges

     Atom                 Charge (a.u.)
  ----------------------------------------
      1 O                    -0.214152
      2 C                     0.209801
      3 C                    -0.079248
      4 C                    -0.078581
      5 C                     0.213287
      6 O                    -0.166192
      7 C                    -0.051277
      8 C                    -0.059229
      9 O                    -0.171505
     10 C                     0.212526
     11 C                    -0.077717
     12 C                    -0.077000
     13 C                     0.212448
     14 O                    -0.211333
     15 O                    -0.169020
     16 O                    -0.173556
     17 O                    -0.211331
     18 C                    -0.141646
     19 C                     0.026610
     20 C                    -0.144303
     21 C                    -0.143585
     22 C                     0.024268
     23 O                    -0.184866
     24 H                     0.086318
     25 H                     0.084921
     26 H                     0.082935
     27 H                     0.077863
     28 H                     0.073593
     29 H                     0.078107
     30 H                     0.072947
     31 H                     0.090030
     32 O                    -0.220576
     33 C                    -0.128469
     34 C                     0.025718
     35 C                    -0.144175
     36 C                    -0.143926
     37 C                     0.023537
     38 O                    -0.186586
     39 H                     0.086555
     40 H                     0.084855
     41 H                     0.090290
     42 H                     0.082750
     43 H                     0.078088
     44 H                     0.073774
     45 H                     0.078244
     46 H                     0.072805
     47 H                     0.093521
     48 H                     0.088258
     49 H                     0.089840
     50 H                     0.100614
     51 H                     0.085100
     52 H                     0.098855
     53 H                     0.083135
     54 H                     0.103055
     55 H                     0.095908
     56 H                     0.097715
  ----------------------------------------
  Sum of atomic charges =     0.000000

                    Cartesian Multipole Moments
 -----------------------------------------------------------------
    Charge (ESU x 10^10)
                 0.0000
    Dipole Moment (Debye)
         X      -0.2234      Y       0.2571      Z      -1.6905
       Tot       1.7245
    Quadrupole Moments (Debye-Ang)
        XX    -132.9019     XY       4.2147     YY    -150.4571
        XZ       1.6851     YZ       5.8908     ZZ    -170.6256

 Total job time:  71.01s(wall), 3378.83s(cpu)
        *  Thank you very much for using Q-Chem.  Have a nice day.  *
