 Q-Chem 5.0, Q-Chem, Inc., Pleasanton, CA (2017)
 Q-Chem 5.0.1 for Intel X86 EM64T Linux

User input:
--------------------------------------------------------------
$molecule
0  1
O -3.94934 -3.66094 2.70899
C -3.26408 -4.56952 2.26188
C -3.36658 -6.02376 2.66595
C -3.35185 -6.33753 4.171
C -3.41538 -5.1516 5.10781
O -4.46758 -5.29467 5.96679
C -4.55966 -4.23582 6.92575
C -3.56608 -4.46584 8.05977
O -3.7769 -3.49726 9.09915
C -2.6876 -2.76771 9.44602
C -2.97176 -1.77269 10.54595
C -3.90587 -0.61975 10.15041
C -4.68814 -0.81372 8.867
O -5.90033 -0.70414 8.75232
O -2.28441 -4.2674 1.36957
O -3.94227 -0.83985 7.73012
O -1.55455 -2.95482 9.01975
C -4.43654 -0.54512 6.47406
C -3.71643 -2.34967 11.76433
C -3.42079 -1.49461 12.99468
C -4.17731 -0.22743 12.64671
C -4.87299 -0.66676 11.35143
O -5.07035 -2.05088 11.52167
H -1.98474 -1.37521 10.87789
H -3.3638 0.34685 10.05429
H -3.47471 -3.41679 11.96217
H -3.92753 -1.98674 13.85583
H -2.34581 -1.35253 13.2377
H -4.91861 -0.0306 13.45269
H -3.54608 0.67209 12.47908
H -5.78895 -0.05836 11.18594
O -2.56532 -4.26975 5.15769
C -2.02226 -2.99584 0.90415
C -4.7266 -6.6356 2.26642
C -4.57307 -8.14068 2.07015
C -4.35619 -8.58577 3.49987
C -4.59467 -7.26231 4.24179
O -5.51237 -6.57214 3.43209
H -2.56526 -6.57266 2.11911
H -2.42222 -6.8807 4.45026
H -1.74572 -2.32864 1.74845
H -5.16763 -6.17477 1.35509
H -5.56283 -8.51809 1.72531
H -3.79081 -8.46248 1.3495
H -5.13447 -9.33988 3.75221
H -3.34543 -8.99129 3.72247
H -4.92231 -7.49083 5.27882
H -2.91338 -2.58906 0.37988
H -1.17507 -3.03749 0.18929
H -3.63245 -0.68587 5.7229
H -4.77355 0.51282 6.44207
H -5.29575 -1.1997 6.21899
H -3.76368 -5.47053 8.49102
H -2.53545 -4.4935 7.649
H -5.57901 -4.26524 7.3661
H -4.43177 -3.2455 6.45208
$end

$opt
CONSTRAINT
tors           1           2           3           4     -50.092
tors           3           4           5           6    +124.610
tors           4           5           6           7    +177.462
tors           5           6           7           8     -79.720
tors           6           7           8           9    -172.795
tors           7           8           9          10    -124.913
tors           8           9          10          11    -179.758
tors           9          10          11          12     -67.856
tors          11          12          13          14    +127.051
ENDCONSTRAINT
$end

$rem
JOBTYPE                   OPT
METHOD                    B3LYP
DFT_D                     d3_op
BASIS                     STO-3G
GEOM_OPT_MAX_CYCLES       100
GEOM_OPT_TOL_GRADIENT     300
GEOM_OPT_TOL_DISPLACEMENT 1200
GEOM_OPT_TOL_ENERGY       100
SYMMETRY                  False
THRESH                    12
SCF_CONVERGENCE           8
MAX_SUB_FILE_NUM          128
MEM_STATIC                400
MEM_TOTAL                 4000
$end
--------------------------------------------------------------

   15   -1510.1569954829      6.29E-09 Convergence criterion met
 Total energy in the final basis set = -1510.15699548
   14   -1510.2252200279      6.76E-09 Convergence criterion met
 Total energy in the final basis set = -1510.22522003
   14   -1510.2609740442      9.33E-09 Convergence criterion met
 Total energy in the final basis set = -1510.26097404
   13   -1510.2757974343      9.09E-09 Convergence criterion met
 Total energy in the final basis set = -1510.27579743
   13   -1510.2785340534      9.07E-09 Convergence criterion met
 Total energy in the final basis set = -1510.27853405
   13   -1510.2799839699      8.51E-09 Convergence criterion met
 Total energy in the final basis set = -1510.27998397
   12   -1510.2814735050      9.25E-09 Convergence criterion met
 Total energy in the final basis set = -1510.28147351
   12   -1510.2822769491      8.54E-09 Convergence criterion met
   12   -1510.2859512664      2.87E-09 Convergence criterion met
 Total energy in the final basis set = -1510.28595127
   12   -1510.2860782737      2.53E-09 Convergence criterion met
 Total energy in the final basis set = -1510.28607827
   11   -1510.2861451757      8.59E-09 Convergence criterion met
 Total energy in the final basis set = -1510.28614518
   11   -1510.2861921188      6.69E-09 Convergence criterion met
 Total energy in the final basis set = -1510.28619212
   10   -1510.2862279303      8.37E-09 Convergence criterion met
 Total energy in the final basis set = -1510.28622793
   10   -1510.2862267307      7.90E-09 Convergence criterion met
 Total energy in the final basis set = -1510.28622673

             Standard Nuclear Orientation (Angstroms)
    I     Atom           X                Y                Z
 ----------------------------------------------------------------
    1      O      -3.1123984928     1.5343769369     1.1621536888
    2      C      -3.9561163087     1.3961012320     0.2498654165
    3      C      -4.6159858028     0.0632061852    -0.2428999987
    4      C      -3.5600960095    -1.0841358816    -0.5490177587
    5      C      -2.0740400005    -0.5925962514    -0.4083752379
    6      O      -1.3557090576    -1.4191060813     0.5139332458
    7      C       0.0527758644    -0.9585801708     0.5686963820
    8      C       0.8904570025    -1.4893933993    -0.6499143828
    9      O       2.3004181078    -1.1177204362    -0.3950582543
   10      C       2.8215542450    -0.3636589358    -1.5043597793
   11      C       4.3095254688    -0.0082677266    -1.1779851713
   12      C       4.4148906196     1.0212615815     0.0304163292
   13      C       3.0145013090     1.4943036087     0.5662969427
   14      O       2.5914275232     1.4694423409     1.7414316583
   15      O      -4.5020257938     2.4798732533    -0.5103040575
   16      O       2.2780861827     1.9947491076    -0.5574938423
   17      O       2.1887616696    -0.1303100759    -2.5569087100
   18      C       0.9287425010     2.4661999333    -0.1624189008
   19      C       5.1088215002    -1.2400091011    -0.5719478877
   20      C       6.6477330993    -0.8764676647    -0.5589631681
   21      C       6.7204368957     0.1107057111     0.6660857178
   22      C       5.2047134451     0.1633322878     1.1011008693
   23      O       4.7329151512    -1.2204704181     0.8598658117
   24      H       4.7778545690     0.3911032201    -2.0943035735
   25      H       4.9862285227     1.9180116318    -0.2724586012
   26      H       4.8583461573    -2.2184074248    -1.0255607242
   27      H       7.2543910803    -1.7799837726    -0.3879124601
   28      H       6.9701019555    -0.4080734511    -1.5026383120
   29      H       7.3400529997    -0.3012981943     1.4784311895
   30      H       7.1113562961     1.1035851782     0.3917018431
   31      H       5.0078693019     0.4613192741     2.1492951734
   32      O      -1.5617742662     0.3752597870    -1.0177939628
   33      C      -3.8899609463     3.7572174726    -0.0759585602
   34      C      -5.4552196573    -0.6231298143     0.9224707669
   35      C      -6.3650490190    -1.7474870893     0.2845576741
   36      C      -5.3054037195    -2.8786553705     0.0128477852
   37      C      -3.9807800649    -2.1814706284     0.5146334759
   38      O      -4.4321719188    -1.3809239619     1.6767632694
   39      H      -5.2430937181     0.2879587749    -1.1230842822
   40      H      -3.6874328549    -1.4548971037    -1.5832103800
   41      H      -2.7927302263     3.7563865470    -0.2383971078
   42      H      -5.9816304456     0.0872949851     1.5890121816
   43      H      -7.1329216107    -2.0759853782     1.0031350375
   44      H      -6.8654874079    -1.4029837838    -0.6344375119
   45      H      -5.5150327049    -3.7788837877     0.6124465652
   46      H      -5.2503342786    -3.1666625733    -1.0491965027
   47      H      -3.1599837463    -2.8627601184     0.8078700509
   48      H      -4.0864872927     3.9607167953     0.9965604885
   49      H      -4.3556558087     4.5459099312    -0.6948751350
   50      H       0.1562794197     1.8363811288    -0.6555625108
   51      H       0.8152948308     3.5149968884    -0.4989376563
   52      H       0.8187993876     2.4083319926     0.9392769468
   53      H       0.8126093439    -2.5951014324    -0.7165876699
   54      H       0.5580817242    -1.0291362945    -1.6055507504
   55      H       0.4662374361    -1.3766354686     1.5085255336
   56      H       0.1023028169     0.1450109775     0.6114344253
 ----------------------------------------------------------------

   10   -1510.2862268632      6.52E-09 Convergence criterion met
 Total energy in the final basis set = -1510.28622686
 Final energy is   -1510.28622686320
 **  OPTIMIZATION CONVERGED  **

                    Orbital Energies (a.u.)
 --------------------------------------------------------------

 Alpha MOs
 -- Occupied --
-18.939 -18.934 -18.931 -18.927 -18.887 -18.886 -18.877 -18.874
-18.873 -18.871 -10.102 -10.099 -10.096 -10.096 -10.066 -10.063
-10.062 -10.061 -10.060 -10.058 -10.056 -10.050 -10.039 -10.037
-10.037 -10.036 -10.021 -10.020 -10.019 -10.018  -1.016  -1.012
 -1.008  -1.003  -0.970  -0.968  -0.939  -0.936  -0.933  -0.931
 -0.763  -0.762  -0.727  -0.722  -0.712  -0.705  -0.690  -0.662
 -0.656  -0.613  -0.596  -0.580  -0.546  -0.544  -0.537  -0.536
 -0.512  -0.509  -0.482  -0.479  -0.465  -0.460  -0.450  -0.440
 -0.434  -0.431  -0.428  -0.411  -0.410  -0.409  -0.403  -0.397
 -0.389  -0.376  -0.373  -0.371  -0.361  -0.358  -0.354  -0.348
 -0.344  -0.342  -0.332  -0.330  -0.329  -0.326  -0.321  -0.310
 -0.309  -0.304  -0.303  -0.296  -0.291  -0.288  -0.286  -0.277
 -0.273  -0.257  -0.250  -0.245  -0.243  -0.233  -0.232  -0.185
 -0.175  -0.174  -0.164  -0.160  -0.157  -0.151  -0.148  -0.143
 -0.141

          Ground-State Mulliken Net Atomic Charges

     Atom                 Charge (a.u.)
  ----------------------------------------
      1 O                    -0.213658
      2 C                     0.209203
      3 C                    -0.079281
      4 C                    -0.078563
      5 C                     0.213348
      6 O                    -0.165101
      7 C                    -0.051031
      8 C                    -0.059242
      9 O                    -0.171729
     10 C                     0.212513
     11 C                    -0.077871
     12 C                    -0.077129
     13 C                     0.211759
     14 O                    -0.211344
     15 O                    -0.168700
     16 O                    -0.172933
     17 O                    -0.211547
     18 C                    -0.142612
     19 C                     0.026546
     20 C                    -0.144169
     21 C                    -0.143672
     22 C                     0.024061
     23 O                    -0.185020
     24 H                     0.085963
     25 H                     0.085043
     26 H                     0.083301
     27 H                     0.077782
     28 H                     0.073428
     29 H                     0.078130
     30 H                     0.072931
     31 H                     0.090187
     32 O                    -0.221501
     33 C                    -0.128505
     34 C                     0.025725
     35 C                    -0.143984
     36 C                    -0.144117
     37 C                     0.023867
     38 O                    -0.186207
     39 H                     0.086581
     40 H                     0.084965
     41 H                     0.090262
     42 H                     0.082918
     43 H                     0.078110
     44 H                     0.073813
     45 H                     0.078250
     46 H                     0.072858
     47 H                     0.093076
     48 H                     0.088750
     49 H                     0.090126
     50 H                     0.101694
     51 H                     0.084683
     52 H                     0.098501
     53 H                     0.082895
     54 H                     0.102926
     55 H                     0.095987
     56 H                     0.097735
  ----------------------------------------
  Sum of atomic charges =    -0.000000

                    Cartesian Multipole Moments
 -----------------------------------------------------------------
    Charge (ESU x 10^10)
                 0.0000
    Dipole Moment (Debye)
         X      -0.3553      Y       0.1647      Z      -1.7069
       Tot       1.7513
    Quadrupole Moments (Debye-Ang)
        XX    -132.3621     XY       3.3090     YY    -149.5987
        XZ       1.2302     YZ       4.7597     ZZ    -171.5527

 Total job time:  67.78s(wall), 3226.85s(cpu)
        *  Thank you very much for using Q-Chem.  Have a nice day.  *
