 Q-Chem 5.0, Q-Chem, Inc., Pleasanton, CA (2017)
 Q-Chem 5.0.1 for Intel X86 EM64T Linux

User input:
--------------------------------------------------------------
$molecule
0  1
O -3.1123984928 1.5343769369 1.1621536888
C -3.9561163087 1.396101232 0.2498654165
C -4.6159858028 0.0632061852 -0.2428999987
C -3.5600960095 -1.0841358816 -0.5490177587
C -2.0740400005 -0.5925962514 -0.4083752379
O -1.3557090576 -1.4191060813 0.5139332458
C 0.0527758644 -0.9585801708 0.568696382
C 0.8904570025 -1.4893933993 -0.6499143828
O 2.3004181078 -1.1177204362 -0.3950582543
C 2.821554245 -0.3636589358 -1.5043597793
C 4.3095254688 -0.0082677266 -1.1779851713
C 4.4148906196 1.0212615815 0.0304163292
C 3.014501309 1.4943036087 0.5662969427
O 2.5914275232 1.4694423409 1.7414316583
O -4.5020257938 2.4798732533 -0.5103040575
O 2.2780861827 1.9947491076 -0.5574938423
O 2.1887616696 -0.1303100759 -2.55690871
C 0.928742501 2.4661999333 -0.1624189008
C 5.1088215002 -1.2400091011 -0.5719478877
C 6.6477330993 -0.8764676647 -0.5589631681
C 6.7204368957 0.1107057111 0.6660857178
C 5.2047134451 0.1633322878 1.1011008693
O 4.7329151512 -1.2204704181 0.8598658117
H 4.777854569 0.3911032201 -2.0943035735
H 4.9862285227 1.9180116318 -0.2724586012
H 4.8583461573 -2.2184074248 -1.0255607242
H 7.2543910803 -1.7799837726 -0.3879124601
H 6.9701019555 -0.4080734511 -1.502638312
H 7.3400529997 -0.3012981943 1.4784311895
H 7.1113562961 1.1035851782 0.3917018431
H 5.0078693019 0.4613192741 2.1492951734
O -1.5617742662 0.375259787 -1.0177939628
C -3.8899609463 3.7572174726 -0.0759585602
C -5.4552196573 -0.6231298143 0.9224707669
C -6.365049019 -1.7474870893 0.2845576741
C -5.3054037195 -2.8786553705 0.0128477852
C -3.9807800649 -2.1814706284 0.5146334759
O -4.4321719188 -1.3809239619 1.6767632694
H -5.2430937181 0.2879587749 -1.1230842822
H -3.6874328549 -1.4548971037 -1.58321038
H -2.7927302263 3.756386547 -0.2383971078
H -5.9816304456 0.0872949851 1.5890121816
H -7.1329216107 -2.0759853782 1.0031350375
H -6.8654874079 -1.4029837838 -0.6344375119
H -5.5150327049 -3.7788837877 0.6124465652
H -5.2503342786 -3.1666625733 -1.0491965027
H -3.1599837463 -2.8627601184 0.8078700509
H -4.0864872927 3.9607167953 0.9965604885
H -4.3556558087 4.5459099312 -0.694875135
H 0.1562794197 1.8363811288 -0.6555625108
H 0.8152948308 3.5149968884 -0.4989376563
H 0.8187993876 2.4083319926 0.9392769468
H 0.8126093439 -2.5951014324 -0.7165876699
H 0.5580817242 -1.0291362945 -1.6055507504
H 0.4662374361 -1.3766354686 1.5085255336
H 0.1023028169 0.1450109775 0.6114344253
$end

$rem
JOBTYPE                   OPT
METHOD                    B3LYP
DFT_D                     d3_op
BASIS                     STO-3G
GEOM_OPT_MAX_CYCLES       100
GEOM_OPT_TOL_GRADIENT     300
GEOM_OPT_TOL_DISPLACEMENT 1200
GEOM_OPT_TOL_ENERGY       100
SYMMETRY                  False
THRESH                    12
SCF_CONVERGENCE           8
MAX_SUB_FILE_NUM          128
MEM_STATIC                400
MEM_TOTAL                 4000
$end
--------------------------------------------------------------

   16   -1510.2862681255      6.97E-09 Convergence criterion met
 Total energy in the final basis set = -1510.28626813
   14   -1510.2768057478      5.93E-09 Convergence criterion met
 Total energy in the final basis set = -1510.27680575
   14   -1510.2859073335      3.44E-09 Convergence criterion met
 Total energy in the final basis set = -1510.28590733
   14   -1510.2871535544      4.02E-09 Convergence criterion met
 Total energy in the final basis set = -1510.28715355
   14   -1510.2884296989      1.44E-09 Convergence criterion met
 Total energy in the final basis set = -1510.28842970
   14   -1510.2889841129      2.00E-09 Convergence criterion met
 Total energy in the final basis set = -1510.28898411
   13   -1510.2900084715      3.96E-09 Convergence criterion met
 Total energy in the final basis set = -1510.29000847
   13   -1510.2900093152      9.39E-09 Convergence criterion met
   11   -1510.2937762815      8.33E-09 Convergence criterion met
 Total energy in the final basis set = -1510.29377628
   10   -1510.2937874936      7.11E-09 Convergence criterion met
 Total energy in the final basis set = -1510.29378749
   11   -1510.2937780770      4.91E-09 Convergence criterion met
 Total energy in the final basis set = -1510.29377808
   10   -1510.2937761270      6.75E-09 Convergence criterion met
 Total energy in the final basis set = -1510.29377613
    9   -1510.2937737998      6.74E-09 Convergence criterion met
 Total energy in the final basis set = -1510.29377380
    9   -1510.2937702861      7.97E-09 Convergence criterion met
 Total energy in the final basis set = -1510.29377029

             Standard Nuclear Orientation (Angstroms)
    I     Atom           X                Y                Z
 ----------------------------------------------------------------
    1      O      -2.0245027658     1.3773283530     0.2962421238
    2      C      -3.2764929346     1.4224031863     0.3129689040
    3      C      -4.2678804022     0.3683131048    -0.2844328936
    4      C      -3.5295608778    -0.8723167261    -0.9384797815
    5      C      -1.9588437137    -0.7680472324    -0.8834266031
    6      O      -1.4999693811    -1.3425421917     0.3409853125
    7      C      -0.0583393982    -1.0795700396     0.5685411944
    8      C       0.8956627231    -1.8161845562    -0.4424227785
    9      O       2.2504831587    -1.2899155988    -0.1564315459
   10      C       3.0353535715    -1.1752445560    -1.3497804623
   11      C       4.3655774357    -0.4493008633    -0.9534220824
   12      C       4.1062972339     0.9523934291    -0.2526317974
   13      C       2.5855025909     1.3463507867    -0.1833096472
   14      O       1.8995237033     1.5870987269     0.8346944818
   15      O      -4.0273543936     2.4828053121     0.9003474903
   16      O       2.1103817299     1.4313938620    -1.5279598474
   17      O       2.6848985312    -1.5884839588    -2.4751588671
   18      C       0.6880722038     1.8551064013    -1.5728040278
   19      C       5.1275892211    -1.2154649130     0.2129249485
   20      C       6.5847475707    -0.6149945221     0.3387027798
   21      C       6.2924037533     0.7494778700     1.0680140846
   22      C       4.7187847342     0.6973536958     1.1851867619
   23      O       4.4443751746    -0.7373900198     1.4350296687
   24      H       4.9850442411    -0.3473260984    -1.8614820609
   25      H       4.6430294820     1.7568573168    -0.7883528350
   26      H       5.0770235685    -2.3196422169     0.1466809010
   27      H       7.2213929193    -1.2732577586     0.9510728787
   28      H       7.0613932363    -0.4776849863    -0.6450381059
   29      H       6.7524299145     0.7785662413     2.0686566624
   30      H       6.6405467571     1.6227077084     0.4937047249
   31      H       4.2688962119     1.3198676502     1.9828079674
   32      O      -1.2317606497    -0.3667809855    -1.8245923821
   33      C      -3.1099107667     3.4849228893     1.4941018280
   34      C      -5.1266208532    -0.3497699457     0.8462000507
   35      C      -6.3360920397    -1.0898894982     0.1498249945
   36      C      -5.6026941560    -2.3212923709    -0.5001088115
   37      C      -4.1089329157    -2.0583812879    -0.0563838513
   38      O      -4.2484608285    -1.4547514190     1.2896568269
   39      H      -4.9234718811     0.8819988560    -1.0108911949
   40      H      -3.8135168848    -0.9748876934    -2.0007289075
   41      H      -2.4124419826     3.8970424927     0.7368044473
   42      H      -5.3956039576     0.3064716463     1.6967097051
   43      H      -7.0756388099    -1.4084470609     0.9017905319
   44      H      -6.8395480131    -0.4510020200    -0.5932269358
   45      H      -5.9663828785    -3.2739984396    -0.0834752747
   46      H      -5.7101380174    -2.3511066537    -1.5961433680
   47      H      -3.4627276674    -2.9556382870    -0.0126386228
   48      H      -2.5144598118     3.0479853254     2.3215595325
   49      H      -3.7550464995     4.2924260577     1.8860522300
   50      H       0.0205855029     0.9723371556    -1.7236825485
   51      H       0.5863526385     2.5510925385    -2.4264202555
   52      H       0.4065216245     2.3625709850    -0.6293004351
   53      H       0.8665188321    -2.9162966515    -0.2879081147
   54      H       0.6004264737    -1.5876171101    -1.4880282779
   55      H       0.1384901532    -1.4387109224     1.5983641118
   56      H       0.1497556664     0.0123811364     0.5342138859
 ----------------------------------------------------------------

    9   -1510.2937690626      3.43E-09 Convergence criterion met
 Total energy in the final basis set = -1510.29376906
 Final energy is   -1510.29376906263
 **  OPTIMIZATION CONVERGED  **

                    Orbital Energies (a.u.)
 --------------------------------------------------------------

 Alpha MOs
 -- Occupied --
-18.948 -18.930 -18.923 -18.918 -18.891 -18.890 -18.881 -18.870
-18.868 -18.862 -10.111 -10.103 -10.091 -10.089 -10.072 -10.064
-10.061 -10.060 -10.057 -10.055 -10.052 -10.044 -10.037 -10.031
-10.030 -10.029 -10.023 -10.021 -10.016 -10.015  -1.024  -1.008
 -1.003  -0.995  -0.972  -0.963  -0.947  -0.934  -0.928  -0.923
 -0.766  -0.757  -0.727  -0.721  -0.712  -0.701  -0.688  -0.669
 -0.644  -0.610  -0.594  -0.578  -0.548  -0.540  -0.539  -0.531
 -0.515  -0.504  -0.487  -0.470  -0.465  -0.456  -0.449  -0.439
 -0.436  -0.429  -0.425  -0.418  -0.413  -0.399  -0.397  -0.395
 -0.383  -0.380  -0.373  -0.363  -0.360  -0.356  -0.351  -0.341
 -0.338  -0.336  -0.334  -0.328  -0.326  -0.321  -0.319  -0.316
 -0.308  -0.304  -0.302  -0.299  -0.290  -0.284  -0.283  -0.274
 -0.267  -0.263  -0.248  -0.238  -0.236  -0.235  -0.228  -0.189
 -0.177  -0.168  -0.164  -0.157  -0.150  -0.148  -0.144  -0.141
 -0.137

          Ground-State Mulliken Net Atomic Charges

     Atom                 Charge (a.u.)
  ----------------------------------------
      1 O                    -0.206696
      2 C                     0.215653
      3 C                    -0.078416
      4 C                    -0.081322
      5 C                     0.223402
      6 O                    -0.168187
      7 C                    -0.050671
      8 C                    -0.057051
      9 O                    -0.172377
     10 C                     0.212626
     11 C                    -0.077848
     12 C                    -0.077526
     13 C                     0.212460
     14 O                    -0.219567
     15 O                    -0.167430
     16 O                    -0.176923
     17 O                    -0.210678
     18 C                    -0.151923
     19 C                     0.025960
     20 C                    -0.144142
     21 C                    -0.143869
     22 C                     0.024365
     23 O                    -0.185788
     24 H                     0.084699
     25 H                     0.083104
     26 H                     0.081805
     27 H                     0.076942
     28 H                     0.073181
     29 H                     0.076935
     30 H                     0.072413
     31 H                     0.088828
     32 O                    -0.224469
     33 C                    -0.128092
     34 C                     0.025293
     35 C                    -0.143528
     36 C                    -0.144288
     37 C                     0.026670
     38 O                    -0.186519
     39 H                     0.087599
     40 H                     0.084379
     41 H                     0.092242
     42 H                     0.086901
     43 H                     0.078792
     44 H                     0.073869
     45 H                     0.078543
     46 H                     0.073925
     47 H                     0.088043
     48 H                     0.093708
     49 H                     0.093149
     50 H                     0.109944
     51 H                     0.078301
     52 H                     0.089898
     53 H                     0.080203
     54 H                     0.105640
     55 H                     0.092849
     56 H                     0.104991
  ----------------------------------------
  Sum of atomic charges =    -0.000000

                    Cartesian Multipole Moments
 -----------------------------------------------------------------
    Charge (ESU x 10^10)
                 0.0000
    Dipole Moment (Debye)
         X      -1.8257      Y       1.3903      Z      -0.0804
       Tot       2.2963
    Quadrupole Moments (Debye-Ang)
        XX    -132.4569     XY       0.8547     YY    -150.7878
        XZ       3.4726     YZ       2.2614     ZZ    -169.1698

 Total job time:  92.54s(wall), 4408.16s(cpu)
        *  Thank you very much for using Q-Chem.  Have a nice day.  *
