 Q-Chem 5.0, Q-Chem, Inc., Pleasanton, CA (2017)
 Q-Chem 5.0.1 for Intel X86 EM64T Linux

User input:
--------------------------------------------------------------
$molecule
0  1
O -3.1335438324 1.5417781725 1.1563543072
C -4.0029557225 1.4070427734 0.2678900359
C -4.63408767 0.0699674008 -0.2494402265
C -3.5562962694 -1.0532881047 -0.5653721773
C -2.0774280474 -0.5442994785 -0.4067543106
O -1.3577437553 -1.3782548036 0.5073633515
C 0.04743277 -0.9111405689 0.5781872477
C 0.9073560865 -1.4937675954 -0.59929644
O 2.3107778902 -1.1106008072 -0.3302975215
C 2.8880494542 -0.4923145029 -1.4945446625
C 4.3678368008 -0.1262820065 -1.143966467
C 4.4496353903 1.0266906202 -0.0522277236
C 3.0459449825 1.5723997092 0.4016261084
O 2.6396215244 1.7508982414 1.5694796852
O -4.6138865032 2.4964079558 -0.4319228319
O 2.293646662 1.8770362709 -0.7797893455
O 2.3052579811 -0.3758632608 -2.5940385016
C 0.9524594941 2.4191601575 -0.4492976663
C 5.1151773636 -1.3003653287 -0.3764461567
C 6.6619215098 -0.9756271535 -0.3538681389
C 6.7227178022 0.1523434114 0.7430503028
C 5.197376302 0.2815516937 1.1282414173
O 4.6998046717 -1.1110397531 1.0311693627
H 4.8840817025 0.1598713097 -2.076484136
H 5.0411572744 1.8809395954 -0.4304704778
H 4.8516278938 -2.3175309061 -0.7254240817
H 7.2352862455 -1.8655999787 -0.0495752283
H 7.0297973255 -0.6366597504 -1.3355765597
H 7.3145977336 -0.1666564702 1.6156192561
H 7.1380478094 1.0982662856 0.3602931459
H 4.9810046001 0.7007562 2.1301670162
O -1.5678134403 0.4279823704 -1.0119193902
C -4.0413218232 3.780334912 0.0355498291
C -5.4680430796 -0.6474574453 0.9021475776
C -6.3560309634 -1.7771411787 0.2437720145
C -5.275681012 -2.8848160967 -0.0427182354
C -3.9655447951 -2.1741630805 0.4778412608
O -4.4359387932 -1.399278813 1.6498567916
H -5.2615236191 0.2958024876 -1.1291264058
H -3.669656478 -1.4102520157 -1.6060296152
H -2.9496927845 3.8306946423 -0.1542123296
H -6.0091410726 0.0446785052 1.5761853925
H -7.1196009171 -2.1301549594 0.9552899245
H -6.8607217956 -1.4271736984 -0.670856175
H -5.4724513343 -3.7993033774 0.5393958435
H -5.2107921428 -3.1522485821 -1.1095412268
H -3.1357115697 -2.8468490353 0.7652372412
H -4.2172513802 3.9356373902 1.1196682442
H -4.5545840009 4.5719085841 -0.5406445282
H 0.1650143296 1.734985965 -0.8366366646
H 0.8493585945 3.4090160199 -0.9347991769
H 0.8552416507 2.5257456796 0.6499881308
H 0.8259699613 -2.601454735 -0.6194273206
H 0.5944508376 -1.0810756026 -1.5828760112
H 0.4411432589 -1.2917949628 1.5422528193
H 0.0956257982 0.1933758693 0.5782406395
$end

$rem
JOBTYPE                   OPT
METHOD                    B3LYP
DFT_D                     d3_op
BASIS                     STO-3G
GEOM_OPT_MAX_CYCLES       100
GEOM_OPT_TOL_GRADIENT     300
GEOM_OPT_TOL_DISPLACEMENT 1200
GEOM_OPT_TOL_ENERGY       100
SYMMETRY                  False
THRESH                    12
SCF_CONVERGENCE           8
MAX_SUB_FILE_NUM          128
MEM_STATIC                400
MEM_TOTAL                 4000
$end
--------------------------------------------------------------

   16   -1510.2869792820      7.07E-09 Convergence criterion met
 Total energy in the final basis set = -1510.28697928
   14   -1510.2687910699      5.88E-09 Convergence criterion met
 Total energy in the final basis set = -1510.26879107
   14   -1510.2873652638      3.09E-09 Convergence criterion met
 Total energy in the final basis set = -1510.28736526
   14   -1510.2856439888      3.54E-09 Convergence criterion met
 Total energy in the final basis set = -1510.28564399
   14   -1510.2884779271      1.51E-09 Convergence criterion met
 Total energy in the final basis set = -1510.28847793
   14   -1510.2879417068      2.58E-09 Convergence criterion met
 Total energy in the final basis set = -1510.28794171
   13   -1510.2893090125      6.90E-09 Convergence criterion met
 Total energy in the final basis set = -1510.28930901
   13   -1510.2892174684      9.95E-09 Convergence criterion met
   11   -1510.2937259857      8.82E-09 Convergence criterion met
 Total energy in the final basis set = -1510.29372599
   11   -1510.2937308341      9.63E-09 Convergence criterion met
 Total energy in the final basis set = -1510.29373083
   11   -1510.2937132111      6.56E-09 Convergence criterion met
 Total energy in the final basis set = -1510.29371321
   12   -1510.2937082980      2.77E-09 Convergence criterion met
 Total energy in the final basis set = -1510.29370830
   10   -1510.2937102391      7.71E-09 Convergence criterion met
 Total energy in the final basis set = -1510.29371024
   11   -1510.2937078449      2.66E-09 Convergence criterion met
 Total energy in the final basis set = -1510.29370784

             Standard Nuclear Orientation (Angstroms)
    I     Atom           X                Y                Z
 ----------------------------------------------------------------
    1      O      -2.0253868341     1.3764044483     0.2348040691
    2      C      -3.2775708287     1.4130982060     0.2561488576
    3      C      -4.2636016504     0.3450488249    -0.3256177345
    4      C      -3.5187557971    -0.9121439812    -0.9394364998
    5      C      -1.9486368068    -0.8053973239    -0.8752627014
    6      O      -1.4999439162    -1.3375263188     0.3716870251
    7      C      -0.0596723041    -1.0688304319     0.6011414452
    8      C       0.9016458897    -1.8362711600    -0.3797451575
    9      O       2.2538226749    -1.3004884768    -0.0986708226
   10      C       3.0476238399    -1.2160161849    -1.2884076180
   11      C       4.3694301891    -0.4689946408    -0.9030136051
   12      C       4.0931780936     0.9538006589    -0.2515130481
   13      C       2.5690645963     1.3385039555    -0.2117370974
   14      O       1.8655575109     1.5926538734     0.7910257218
   15      O      -4.0333138633     2.4752568127     0.8339189160
   16      O       2.1138190112     1.3939270714    -1.5644743988
   17      O       2.7081849697    -1.6624855241    -2.4044262968
   18      C       0.6886179125     1.8038466340    -1.6383262074
   19      C       5.1256058638    -1.1900952279     0.2952438085
   20      C       6.5767632239    -0.5741306331     0.4158072174
   21      C       6.2662721894     0.8111808117     1.0969156629
   22      C       4.6922913458     0.7502492929     1.2001438310
   23      O       4.4262639043    -0.6776326073     1.4941669137
   24      H       4.9969693219    -0.3921893147    -1.8079666799
   25      H       4.6304473653     1.7436373625    -0.8079336865
   26      H       5.0842157749    -2.2962118379     0.2648703482
   27      H       7.2120117559    -1.2070198940     1.0557785920
   28      H       7.0626900059    -0.4653610887    -0.5669748361
   29      H       6.7156046659     0.8765373611     2.1007179511
   30      H       6.6137462455     1.6681761349     0.4983167153
   31      H       4.2297646498     1.3947923419     1.9726286239
   32      O      -1.2140121910    -0.4371654208    -1.8240858677
   33      C      -3.1204250650     3.4897054744     1.4134980821
   34      C      -5.1353001723    -0.3433424174     0.8128014375
   35      C      -6.3353619706    -1.1047329581     0.1229086924
   36      C      -5.5930646091    -2.3537497242    -0.4815848079
   37      C      -4.1047614623    -2.0744738028    -0.0300542569
   38      O      -4.2602731158    -1.4339327183     1.2969324979
   39      H      -4.9102248930     0.8405163054    -1.0725390936
   40      H      -3.7939474904    -1.0441414885    -2.0007195373
   41      H      -2.4304433181     3.9005295188     0.6486641113
   42      H      -5.4151859730     0.3356641611     1.6416391939
   43      H      -7.0841472904    -1.4019952532     0.8744316387
   44      H      -6.8298672627    -0.4883997003    -0.6447883718
   45      H      -5.9592524714    -3.2940640713    -0.0398070488
   46      H      -5.6891543920    -2.4171808039    -1.5772907163
   47      H      -3.4571376102    -2.9686157044     0.0455492517
   48      H      -2.5169337020     3.0648204084     2.2414065794
   49      H      -3.7696629228     4.2956427334     1.8018910434
   50      H       0.0286653299     0.9108262481    -1.7594337615
   51      H       0.5902631443     2.4637820314    -2.5203990501
   52      H       0.3937029208     2.3468677518    -0.7190228780
   53      H       0.8716088563    -2.9311801667    -0.1921142851
   54      H       0.6144516526    -1.6393945255    -1.4339748598
   55      H       0.1293940077    -1.3966597565     1.6427737501
   56      H       0.1508923401     0.0215712787     0.5353877927
 ----------------------------------------------------------------

    9   -1510.2937079476      5.73E-09 Convergence criterion met
 Total energy in the final basis set = -1510.29370795
 Final energy is   -1510.29370794755
 **  OPTIMIZATION CONVERGED  **

                    Orbital Energies (a.u.)
 --------------------------------------------------------------

 Alpha MOs
 -- Occupied --
-18.948 -18.930 -18.923 -18.918 -18.891 -18.890 -18.881 -18.870
-18.868 -18.863 -10.111 -10.103 -10.091 -10.089 -10.072 -10.064
-10.061 -10.059 -10.057 -10.055 -10.052 -10.044 -10.037 -10.031
-10.029 -10.029 -10.023 -10.021 -10.016 -10.015  -1.024  -1.008
 -1.003  -0.995  -0.972  -0.963  -0.947  -0.934  -0.928  -0.923
 -0.766  -0.757  -0.727  -0.721  -0.712  -0.701  -0.688  -0.669
 -0.644  -0.610  -0.594  -0.577  -0.548  -0.540  -0.539  -0.531
 -0.515  -0.504  -0.486  -0.470  -0.466  -0.456  -0.449  -0.439
 -0.436  -0.429  -0.425  -0.418  -0.413  -0.399  -0.397  -0.394
 -0.383  -0.380  -0.373  -0.363  -0.360  -0.356  -0.351  -0.341
 -0.338  -0.336  -0.334  -0.328  -0.326  -0.321  -0.319  -0.316
 -0.308  -0.304  -0.302  -0.299  -0.290  -0.284  -0.283  -0.274
 -0.268  -0.263  -0.248  -0.238  -0.236  -0.235  -0.228  -0.189
 -0.177  -0.168  -0.164  -0.157  -0.150  -0.148  -0.144  -0.141
 -0.137

          Ground-State Mulliken Net Atomic Charges

     Atom                 Charge (a.u.)
  ----------------------------------------
      1 O                    -0.206619
      2 C                     0.215775
      3 C                    -0.078362
      4 C                    -0.081367
      5 C                     0.223433
      6 O                    -0.168285
      7 C                    -0.050997
      8 C                    -0.057150
      9 O                    -0.172309
     10 C                     0.212348
     11 C                    -0.077815
     12 C                    -0.077539
     13 C                     0.212360
     14 O                    -0.219535
     15 O                    -0.167429
     16 O                    -0.176761
     17 O                    -0.210559
     18 C                    -0.151733
     19 C                     0.025951
     20 C                    -0.144135
     21 C                    -0.143874
     22 C                     0.024399
     23 O                    -0.185718
     24 H                     0.084710
     25 H                     0.083131
     26 H                     0.081841
     27 H                     0.076954
     28 H                     0.073188
     29 H                     0.076909
     30 H                     0.072424
     31 H                     0.088729
     32 O                    -0.224508
     33 C                    -0.128057
     34 C                     0.025183
     35 C                    -0.143584
     36 C                    -0.144254
     37 C                     0.026679
     38 O                    -0.186599
     39 H                     0.087558
     40 H                     0.084346
     41 H                     0.092165
     42 H                     0.087087
     43 H                     0.078777
     44 H                     0.073834
     45 H                     0.078533
     46 H                     0.073915
     47 H                     0.087947
     48 H                     0.093852
     49 H                     0.093142
     50 H                     0.110019
     51 H                     0.078479
     52 H                     0.089669
     53 H                     0.080171
     54 H                     0.105680
     55 H                     0.092695
     56 H                     0.105305
  ----------------------------------------
  Sum of atomic charges =    -0.000000

                    Cartesian Multipole Moments
 -----------------------------------------------------------------
    Charge (ESU x 10^10)
                 0.0000
    Dipole Moment (Debye)
         X      -1.8143      Y       1.4026      Z      -0.1179
       Tot       2.2963
    Quadrupole Moments (Debye-Ang)
        XX    -132.6022     XY       1.0244     YY    -150.7064
        XZ       3.8021     YZ       1.7998     ZZ    -169.1636

 Total job time:  87.97s(wall), 4188.34s(cpu)
        *  Thank you very much for using Q-Chem.  Have a nice day.  *
