 Q-Chem 5.0, Q-Chem, Inc., Pleasanton, CA (2017)
 Q-Chem 5.0.1 for Intel X86 EM64T Linux

User input:
--------------------------------------------------------------
$molecule
0  1
O -3.94934 -3.66094 2.70899
C -3.26408 -4.56952 2.26188
C -3.36658 -6.02376 2.66595
C -3.41708 -6.33288 4.17119
C -3.53867 -5.14511 5.0999
O -4.62734 -5.29915 5.91013
C -4.77257 -4.24266 6.86511
C -3.89092 -4.50829 8.08096
O -4.1642 -3.53882 9.10484
C -3.07766 -2.90853 9.61602
C -3.42908 -1.91131 10.69431
C -4.20514 -0.67863 10.20799
C -4.81756 -0.78625 8.82594
O -5.9698 -0.49761 8.53682
O -2.27019 -4.26442 1.38649
O -3.9247 -0.90739 7.8066
O -1.91594 -3.18739 9.34553
C -4.18936 -0.55611 6.4969
C -4.3786 -2.44427 11.78362
C -4.18778 -1.6372 13.06601
C -4.78486 -0.3058 12.65363
C -5.32889 -0.66436 11.26434
O -5.65794 -2.02991 11.36766
H -2.46854 -1.60344 11.16863
H -3.57553 0.23841 10.20965
H -4.25283 -3.53092 11.98292
H -4.84642 -2.09956 13.83606
H -3.14877 -1.58922 13.45716
H -5.61148 -0.06077 13.35685
H -4.06618 0.54043 12.59772
H -6.16186 0.02052 10.99326
O -2.6945 -4.26159 5.19846
C -2.00073 -2.99137 0.92938
C -4.7041 -6.64769 2.21033
C -4.52951 -8.15155 2.02237
C -4.36753 -8.59298 3.46031
C -4.65149 -7.27133 4.18941
O -5.54009 -6.5908 3.34061
H -2.54122 -6.56781 2.15102
H -2.49562 -6.865 4.4951
H -1.73762 -2.32682 1.78005
H -5.11026 -6.19212 1.28029
H -5.50127 -8.53745 1.63795
H -3.71603 -8.4681 1.33473
H -5.14657 -9.35625 3.6807
H -3.36209 -8.98584 3.72564
H -5.02119 -7.5024 5.21166
H -2.88347 -2.58296 0.39236
H -1.14231 -3.03072 0.22791
H -3.30852 -0.80016 5.86826
H -4.38213 0.53592 6.43281
H -5.07757 -1.09704 6.10989
H -4.16033 -5.50883 8.4822
H -2.82966 -4.56091 7.75699
H -5.82712 -4.24716 7.21412
H -4.58614 -3.24995 6.41616
$end

$opt
CONSTRAINT
tors           1           2           3           4     -47.352
tors           3           4           5           6    +124.610
tors           4           5           6           7    +177.128
tors           5           6           7           8     -83.093
tors           6           7           8           9    -172.795
tors           7           8           9          10    -129.174
tors           8           9          10          11    -179.526
tors           9          10          11          12     -67.811
tors          11          12          13          14    +131.716
ENDCONSTRAINT
$end

$rem
JOBTYPE                   OPT
METHOD                    B3LYP
DFT_D                     d3_op
BASIS                     STO-3G
GEOM_OPT_MAX_CYCLES       100
GEOM_OPT_TOL_GRADIENT     300
GEOM_OPT_TOL_DISPLACEMENT 1200
GEOM_OPT_TOL_ENERGY       100
SYMMETRY                  False
THRESH                    12
SCF_CONVERGENCE           8
MAX_SUB_FILE_NUM          128
MEM_STATIC                400
MEM_TOTAL                 4000
$end
--------------------------------------------------------------

   15   -1510.1560374610      6.31E-09 Convergence criterion met
 Total energy in the final basis set = -1510.15603746
   13   -1510.2243737907      8.74E-09 Convergence criterion met
 Total energy in the final basis set = -1510.22437379
   14   -1510.2603230757      6.31E-09 Convergence criterion met
 Total energy in the final basis set = -1510.26032308
   13   -1510.2755109638      7.44E-09 Convergence criterion met
 Total energy in the final basis set = -1510.27551096
   13   -1510.2789231615      8.31E-09 Convergence criterion met
 Total energy in the final basis set = -1510.27892316
   13   -1510.2803100176      8.55E-09 Convergence criterion met
 Total energy in the final basis set = -1510.28031002
   12   -1510.2817645238      9.68E-09 Convergence criterion met
 Total energy in the final basis set = -1510.28176452
   13   -1510.2826472071      4.02E-09 Convergence criterion met
   12   -1510.2868780740      2.67E-09 Convergence criterion met
 Total energy in the final basis set = -1510.28687807
   11   -1510.2869367395      7.07E-09 Convergence criterion met
 Total energy in the final basis set = -1510.28693674
   10   -1510.2869784046      9.90E-09 Convergence criterion met
 Total energy in the final basis set = -1510.28697840
   10   -1510.2870019460      5.91E-09 Convergence criterion met
 Total energy in the final basis set = -1510.28700195
   10   -1510.2870093324      6.14E-09 Convergence criterion met
 Total energy in the final basis set = -1510.28700933
    9   -1510.2870110316      6.81E-09 Convergence criterion met
 Total energy in the final basis set = -1510.28701103

             Standard Nuclear Orientation (Angstroms)
    I     Atom           X                Y                Z
 ----------------------------------------------------------------
    1      O      -3.1335438324     1.5417781725     1.1563543072
    2      C      -4.0029557225     1.4070427734     0.2678900359
    3      C      -4.6340876700     0.0699674008    -0.2494402265
    4      C      -3.5562962694    -1.0532881047    -0.5653721773
    5      C      -2.0774280474    -0.5442994785    -0.4067543106
    6      O      -1.3577437553    -1.3782548036     0.5073633515
    7      C       0.0474327700    -0.9111405689     0.5781872477
    8      C       0.9073560865    -1.4937675954    -0.5992964400
    9      O       2.3107778902    -1.1106008072    -0.3302975215
   10      C       2.8880494542    -0.4923145029    -1.4945446625
   11      C       4.3678368008    -0.1262820065    -1.1439664670
   12      C       4.4496353903     1.0266906202    -0.0522277236
   13      C       3.0459449825     1.5723997092     0.4016261084
   14      O       2.6396215244     1.7508982414     1.5694796852
   15      O      -4.6138865032     2.4964079558    -0.4319228319
   16      O       2.2936466620     1.8770362709    -0.7797893455
   17      O       2.3052579811    -0.3758632608    -2.5940385016
   18      C       0.9524594941     2.4191601575    -0.4492976663
   19      C       5.1151773636    -1.3003653287    -0.3764461567
   20      C       6.6619215098    -0.9756271535    -0.3538681389
   21      C       6.7227178022     0.1523434114     0.7430503028
   22      C       5.1973763020     0.2815516937     1.1282414173
   23      O       4.6998046717    -1.1110397531     1.0311693627
   24      H       4.8840817025     0.1598713097    -2.0764841360
   25      H       5.0411572744     1.8809395954    -0.4304704778
   26      H       4.8516278938    -2.3175309061    -0.7254240817
   27      H       7.2352862455    -1.8655999787    -0.0495752283
   28      H       7.0297973255    -0.6366597504    -1.3355765597
   29      H       7.3145977336    -0.1666564702     1.6156192561
   30      H       7.1380478094     1.0982662856     0.3602931459
   31      H       4.9810046001     0.7007562000     2.1301670162
   32      O      -1.5678134403     0.4279823704    -1.0119193902
   33      C      -4.0413218232     3.7803349120     0.0355498291
   34      C      -5.4680430796    -0.6474574453     0.9021475776
   35      C      -6.3560309634    -1.7771411787     0.2437720145
   36      C      -5.2756810120    -2.8848160967    -0.0427182354
   37      C      -3.9655447951    -2.1741630805     0.4778412608
   38      O      -4.4359387932    -1.3992788130     1.6498567916
   39      H      -5.2615236191     0.2958024876    -1.1291264058
   40      H      -3.6696564780    -1.4102520157    -1.6060296152
   41      H      -2.9496927845     3.8306946423    -0.1542123296
   42      H      -6.0091410726     0.0446785052     1.5761853925
   43      H      -7.1196009171    -2.1301549594     0.9552899245
   44      H      -6.8607217956    -1.4271736984    -0.6708561750
   45      H      -5.4724513343    -3.7993033774     0.5393958435
   46      H      -5.2107921428    -3.1522485821    -1.1095412268
   47      H      -3.1357115697    -2.8468490353     0.7652372412
   48      H      -4.2172513802     3.9356373902     1.1196682442
   49      H      -4.5545840009     4.5719085841    -0.5406445282
   50      H       0.1650143296     1.7349859650    -0.8366366646
   51      H       0.8493585945     3.4090160199    -0.9347991769
   52      H       0.8552416507     2.5257456796     0.6499881308
   53      H       0.8259699613    -2.6014547350    -0.6194273206
   54      H       0.5944508376    -1.0810756026    -1.5828760112
   55      H       0.4411432589    -1.2917949628     1.5422528193
   56      H       0.0956257982     0.1933758693     0.5782406395
 ----------------------------------------------------------------

    9   -1510.2870112454      2.99E-09 Convergence criterion met
 Total energy in the final basis set = -1510.28701125
 Final energy is   -1510.28701124544
 **  OPTIMIZATION CONVERGED  **

                    Orbital Energies (a.u.)
 --------------------------------------------------------------

 Alpha MOs
 -- Occupied --
-18.939 -18.934 -18.931 -18.926 -18.888 -18.885 -18.877 -18.875
-18.872 -18.871 -10.103 -10.099 -10.097 -10.096 -10.066 -10.063
-10.062 -10.061 -10.059 -10.058 -10.056 -10.048 -10.040 -10.037
-10.037 -10.036 -10.021 -10.020 -10.019 -10.018  -1.017  -1.012
 -1.008  -1.003  -0.970  -0.967  -0.940  -0.935  -0.933  -0.931
 -0.764  -0.762  -0.727  -0.722  -0.712  -0.705  -0.691  -0.663
 -0.655  -0.613  -0.596  -0.580  -0.546  -0.544  -0.538  -0.535
 -0.513  -0.509  -0.483  -0.478  -0.465  -0.461  -0.450  -0.440
 -0.434  -0.431  -0.428  -0.412  -0.409  -0.408  -0.403  -0.397
 -0.390  -0.376  -0.373  -0.371  -0.361  -0.358  -0.355  -0.347
 -0.343  -0.341  -0.331  -0.331  -0.328  -0.326  -0.322  -0.310
 -0.309  -0.304  -0.303  -0.295  -0.292  -0.289  -0.286  -0.277
 -0.273  -0.257  -0.251  -0.244  -0.243  -0.234  -0.232  -0.185
 -0.175  -0.174  -0.164  -0.159  -0.158  -0.150  -0.149  -0.144
 -0.141

          Ground-State Mulliken Net Atomic Charges

     Atom                 Charge (a.u.)
  ----------------------------------------
      1 O                    -0.212973
      2 C                     0.209345
      3 C                    -0.079294
      4 C                    -0.078517
      5 C                     0.214848
      6 O                    -0.165078
      7 C                    -0.051007
      8 C                    -0.058093
      9 O                    -0.172998
     10 C                     0.214272
     11 C                    -0.078399
     12 C                    -0.077148
     13 C                     0.212488
     14 O                    -0.211884
     15 O                    -0.168834
     16 O                    -0.172806
     17 O                    -0.212970
     18 C                    -0.144490
     19 C                     0.026805
     20 C                    -0.144156
     21 C                    -0.143861
     22 C                     0.023916
     23 O                    -0.185444
     24 H                     0.085513
     25 H                     0.084901
     26 H                     0.083137
     27 H                     0.077754
     28 H                     0.073379
     29 H                     0.078056
     30 H                     0.072900
     31 H                     0.090343
     32 O                    -0.221478
     33 C                    -0.128556
     34 C                     0.025765
     35 C                    -0.143943
     36 C                    -0.144162
     37 C                     0.023887
     38 O                    -0.186337
     39 H                     0.086683
     40 H                     0.085147
     41 H                     0.090569
     42 H                     0.082946
     43 H                     0.078208
     44 H                     0.073923
     45 H                     0.078327
     46 H                     0.072951
     47 H                     0.093215
     48 H                     0.088929
     49 H                     0.090225
     50 H                     0.103743
     51 H                     0.084088
     52 H                     0.097627
     53 H                     0.082467
     54 H                     0.101326
     55 H                     0.095860
     56 H                     0.098881
  ----------------------------------------
  Sum of atomic charges =    -0.000000

                    Cartesian Multipole Moments
 -----------------------------------------------------------------
    Charge (ESU x 10^10)
                -0.0000
    Dipole Moment (Debye)
         X      -0.5023      Y       0.0453      Z      -1.6759
       Tot       1.7501
    Quadrupole Moments (Debye-Ang)
        XX    -131.9446     XY       2.3691     YY    -149.5573
        XZ       1.4011     YZ       3.5854     ZZ    -171.9394

 Total job time:  68.73s(wall), 3271.57s(cpu)
        *  Thank you very much for using Q-Chem.  Have a nice day.  *
