 Q-Chem 5.0, Q-Chem, Inc., Pleasanton, CA (2017)
 Q-Chem 5.0.1 for Intel X86 EM64T Linux

User input:
--------------------------------------------------------------
$molecule
0  1
O -3.94934 -3.66094 2.70899
C -3.26408 -4.56952 2.26188
C -3.36658 -6.02376 2.66595
C -3.41708 -6.33288 4.17119
C -3.53867 -5.14511 5.0999
O -4.70626 -5.22431 5.80408
C -4.80898 -4.23838 6.83686
C -3.98825 -4.66132 8.0508
O -4.22695 -3.75813 9.14174
C -3.11853 -3.20715 9.6958
C -3.43437 -2.27727 10.84307
C -4.12996 -0.96807 10.44253
C -4.7201 -0.93345 9.0471
O -5.8497 -0.56119 8.76426
O -2.26967 -4.26429 1.3871
O -3.81645 -1.02769 8.03458
O -1.96774 -3.51825 9.41392
C -4.04032 -0.57189 6.74974
C -4.43109 -2.83539 11.876
C -4.21831 -2.13908 13.21846
C -4.73345 -0.74878 12.90077
C -5.2708 -0.96983 11.48058
O -5.67744 -2.31837 11.47493
H -2.4665 -2.06016 11.35154
H -3.4497 -0.09178 10.52482
H -4.36979 -3.93933 11.9938
H -4.91475 -2.61993 13.94257
H -3.18508 -2.17958 13.62544
H -5.55843 -0.51165 13.60862
H -3.96846 0.05752 12.92052
H -6.05907 -0.22002 11.25082
O -2.67633 -4.28438 5.23465
C -2.00002 -2.99123 0.93014
C -4.70227 -6.64822 2.20699
C -4.5282 -8.1529 2.02332
C -4.37479 -8.59152 3.46304
C -4.65574 -7.26664 4.18685
O -5.54127 -6.58685 3.33412
H -2.53955 -6.56667 2.15267
H -2.50657 -6.87773 4.5046
H -1.73745 -2.32665 1.78094
H -5.1046 -6.19442 1.27442
H -5.49769 -8.53956 1.63401
H -3.71054 -8.47051 1.34112
H -5.15971 -9.34895 3.68268
H -3.37306 -8.99012 3.73368
H -5.02579 -7.48918 5.21131
H -2.88248 -2.58289 0.39259
H -1.14119 -3.03054 0.22918
H -3.16111 -0.81398 6.1181
H -4.17921 0.53011 6.76102
H -4.9463 -1.04048 6.3125
H -4.33546 -5.66912 8.36438
H -2.9232 -4.7644 7.75328
H -5.87184 -4.19468 7.15669
H -4.53584 -3.23181 6.47138
$end

$opt
CONSTRAINT
tors           1           2           3           4     -47.352
tors           3           4           5           6    +117.831
tors           4           5           6           7    +171.815
tors           5           6           7           8     -78.697
tors           6           7           8           9    -172.795
tors           7           8           9          10    -126.579
tors           8           9          10          11    -179.526
tors           9          10          11          12     -69.342
tors          11          12          13          14    +131.480
ENDCONSTRAINT
$end

$rem
JOBTYPE                   OPT
METHOD                    B3LYP
DFT_D                     d3_op
BASIS                     STO-3G
GEOM_OPT_MAX_CYCLES       100
GEOM_OPT_TOL_GRADIENT     300
GEOM_OPT_TOL_DISPLACEMENT 1200
GEOM_OPT_TOL_ENERGY       100
SYMMETRY                  False
THRESH                    12
SCF_CONVERGENCE           8
MAX_SUB_FILE_NUM          128
MEM_STATIC                400
MEM_TOTAL                 4000
$end
--------------------------------------------------------------

   15   -1510.1562225179      6.32E-09 Convergence criterion met
 Total energy in the final basis set = -1510.15622252
   13   -1510.2246254866      9.70E-09 Convergence criterion met
 Total energy in the final basis set = -1510.22462549
   14   -1510.2605458588      8.29E-09 Convergence criterion met
 Total energy in the final basis set = -1510.26054586
   13   -1510.2756910053      8.10E-09 Convergence criterion met
 Total energy in the final basis set = -1510.27569101
   13   -1510.2788832273      8.87E-09 Convergence criterion met
 Total energy in the final basis set = -1510.27888323
   13   -1510.2802275708      8.77E-09 Convergence criterion met
 Total energy in the final basis set = -1510.28022757
   13   -1510.2816649184      4.36E-09 Convergence criterion met
 Total energy in the final basis set = -1510.28166492
   13   -1510.2824034265      4.44E-09 Convergence criterion met
   12   -1510.2859884246      2.59E-09 Convergence criterion met
 Total energy in the final basis set = -1510.28598842
   12   -1510.2860640467      3.05E-09 Convergence criterion met
 Total energy in the final basis set = -1510.28606405
   10   -1510.2861171959      8.15E-09 Convergence criterion met
 Total energy in the final basis set = -1510.28611720
   10   -1510.2861527859      9.79E-09 Convergence criterion met
 Total energy in the final basis set = -1510.28615279
   10   -1510.2861700621      4.54E-09 Convergence criterion met
 Total energy in the final basis set = -1510.28617006
   10   -1510.2861756011      4.63E-09 Convergence criterion met
 Total energy in the final basis set = -1510.28617560

             Standard Nuclear Orientation (Angstroms)
    I     Atom           X                Y                Z
 ----------------------------------------------------------------
    1      O      -3.2000009235     1.5815732704     1.1161376385
    2      C      -4.0740971309     1.3993993728     0.2405113556
    3      C      -4.6451958480     0.0303426636    -0.2600012463
    4      C      -3.5145611267    -1.0380732642    -0.5837669694
    5      C      -2.0604396204    -0.4719088195    -0.3835829463
    6      O      -1.3769491962    -1.2058130030     0.6390840986
    7      C       0.0435522276    -0.7834682046     0.6659693726
    8      C       0.8701421848    -1.4583276286    -0.4870881786
    9      O       2.2894766717    -1.1090030440    -0.2585275211
   10      C       2.8524324880    -0.5205686617    -1.4450772908
   11      C       4.3501515907    -0.1884141437    -1.1390190819
   12      C       4.4909670306     1.0029487500    -0.0942099961
   13      C       3.1141340872     1.6095989972     0.3643792954
   14      O       2.7328741601     1.8426996892     1.5310116793
   15      O      -4.7467594874     2.4538493771    -0.4559928485
   16      O       2.3531919916     1.8958522021    -0.8159509653
   17      O       2.2456455287    -0.4073014902    -2.5320524337
   18      C       1.0306915227     2.4826078034    -0.4879672791
   19      C       5.0802246709    -1.3537513429    -0.3431659292
   20      C       6.6358987984    -1.0730225123    -0.3665868910
   21      C       6.7538673716     0.0915623400     0.6863179575
   22      C       5.2415133602     0.2801517762     1.0982887101
   23      O       4.7022018623    -1.0996371913     1.0647056078
   24      H       4.8533361843     0.0475462297    -2.0925450640
   25      H       5.0994921152     1.8233558780    -0.5176602307
   26      H       4.7805241300    -2.3753201362    -0.6473884100
   27      H       7.1908756034    -1.9677121524    -0.0426272298
   28      H       6.9903013064    -0.7806835425    -1.3680751611
   29      H       7.3552350001    -0.2134353959     1.5574121013
   30      H       7.1878411357     1.0102651180     0.2603328987
   31      H       5.0593843991     0.7431419248     2.0877097386
   32      O      -1.5366604764     0.4561726679    -1.0431901005
   33      C      -4.2347059077     3.7671731132     0.0004160148
   34      C      -5.4390050232    -0.7267812650     0.8957922428
   35      C      -6.2959151183    -1.8760736615     0.2312958910
   36      C      -5.1784440501    -2.9334524837    -0.0992900544
   37      C      -3.8886776805    -2.1933954219     0.4330779345
   38      O      -4.3764436230    -1.4557788986     1.6220870737
   39      H      -5.2898792144     0.2204764209    -1.1357613322
   40      H      -3.5928011964    -1.3757749922    -1.6337401988
   41      H      -3.1478822258     3.8694182342    -0.1958046812
   42      H      -5.9944876306    -0.0610465665     1.5846157171
   43      H      -7.0297793140    -2.2732149114     0.9507334070
   44      H      -6.8330244080    -1.5281188547    -0.6654205135
   45      H      -5.3369504083    -3.8733964503     0.4530726906
   46      H      -5.1133713785    -3.1623783594    -1.1750255081
   47      H      -3.0395516722    -2.8479454474     0.7052385242
   48      H      -4.4122480639     3.9204910962     1.0845553478
   49      H      -4.7891754871     4.5291229800    -0.5775086215
   50      H       0.2253397045     1.8156523305    -0.8673858629
   51      H       0.9536908142     3.4693089013    -0.9848523830
   52      H       0.9393561331     2.6056054826     0.6101201208
   53      H       0.7540989931    -2.5620608565    -0.4448895708
   54      H       0.5579887707    -1.0873152104    -1.4874397115
   55      H       0.4362815870    -1.1203971531     1.6463647950
   56      H       0.1288399495     0.3170997208     0.6017695689
 ----------------------------------------------------------------

    9   -1510.2861760216      5.63E-09 Convergence criterion met
 Total energy in the final basis set = -1510.28617602
 Final energy is   -1510.28617602156
 **  OPTIMIZATION CONVERGED  **

                    Orbital Energies (a.u.)
 --------------------------------------------------------------

 Alpha MOs
 -- Occupied --
-18.937 -18.935 -18.931 -18.926 -18.888 -18.885 -18.877 -18.873
-18.873 -18.871 -10.102 -10.099 -10.098 -10.096 -10.066 -10.064
-10.062 -10.061 -10.059 -10.058 -10.056 -10.049 -10.039 -10.037
-10.037 -10.036 -10.021 -10.020 -10.019 -10.018  -1.016  -1.012
 -1.008  -1.003  -0.970  -0.967  -0.939  -0.936  -0.934  -0.931
 -0.763  -0.762  -0.726  -0.722  -0.712  -0.705  -0.690  -0.663
 -0.656  -0.613  -0.596  -0.580  -0.546  -0.544  -0.538  -0.535
 -0.512  -0.509  -0.483  -0.478  -0.465  -0.461  -0.450  -0.439
 -0.434  -0.431  -0.428  -0.412  -0.409  -0.409  -0.403  -0.397
 -0.389  -0.376  -0.373  -0.371  -0.360  -0.358  -0.354  -0.347
 -0.343  -0.341  -0.332  -0.331  -0.328  -0.326  -0.322  -0.309
 -0.309  -0.305  -0.303  -0.296  -0.292  -0.288  -0.285  -0.277
 -0.274  -0.257  -0.250  -0.244  -0.243  -0.233  -0.232  -0.183
 -0.176  -0.174  -0.164  -0.159  -0.157  -0.150  -0.149  -0.143
 -0.141

          Ground-State Mulliken Net Atomic Charges

     Atom                 Charge (a.u.)
  ----------------------------------------
      1 O                    -0.212243
      2 C                     0.208752
      3 C                    -0.079446
      4 C                    -0.078631
      5 C                     0.213793
      6 O                    -0.164340
      7 C                    -0.051026
      8 C                    -0.058989
      9 O                    -0.172828
     10 C                     0.213914
     11 C                    -0.078301
     12 C                    -0.077123
     13 C                     0.212232
     14 O                    -0.211629
     15 O                    -0.168647
     16 O                    -0.172389
     17 O                    -0.212693
     18 C                    -0.143387
     19 C                     0.026887
     20 C                    -0.144188
     21 C                    -0.143829
     22 C                     0.023913
     23 O                    -0.185402
     24 H                     0.085580
     25 H                     0.085019
     26 H                     0.083324
     27 H                     0.077727
     28 H                     0.073347
     29 H                     0.078068
     30 H                     0.072900
     31 H                     0.090270
     32 O                    -0.221778
     33 C                    -0.128635
     34 C                     0.025874
     35 C                    -0.143716
     36 C                    -0.144453
     37 C                     0.024386
     38 O                    -0.185873
     39 H                     0.086541
     40 H                     0.085140
     41 H                     0.090780
     42 H                     0.083008
     43 H                     0.078203
     44 H                     0.073934
     45 H                     0.078238
     46 H                     0.072945
     47 H                     0.092195
     48 H                     0.089011
     49 H                     0.090432
     50 H                     0.103388
     51 H                     0.084698
     52 H                     0.097847
     53 H                     0.082274
     54 H                     0.101830
     55 H                     0.095799
     56 H                     0.097301
  ----------------------------------------
  Sum of atomic charges =     0.000000

                    Cartesian Multipole Moments
 -----------------------------------------------------------------
    Charge (ESU x 10^10)
                 0.0000
    Dipole Moment (Debye)
         X      -0.5018      Y      -0.0151      Z      -1.7211
       Tot       1.7928
    Quadrupole Moments (Debye-Ang)
        XX    -131.7849     XY       1.7601     YY    -149.2681
        XZ       0.8969     YZ       3.3256     ZZ    -171.9527

 Total job time:  66.63s(wall), 3170.46s(cpu)
        *  Thank you very much for using Q-Chem.  Have a nice day.  *
