 Q-Chem 5.0, Q-Chem, Inc., Pleasanton, CA (2017)
 Q-Chem 5.0.1 for Intel X86 EM64T Linux

User input:
--------------------------------------------------------------
$molecule
0  1
O -3.2000009235 1.5815732704 1.1161376385
C -4.0740971309 1.3993993728 0.2405113556
C -4.645195848 0.0303426636 -0.2600012463
C -3.5145611267 -1.0380732642 -0.5837669694
C -2.0604396204 -0.4719088195 -0.3835829463
O -1.3769491962 -1.205813003 0.6390840986
C 0.0435522276 -0.7834682046 0.6659693726
C 0.8701421848 -1.4583276286 -0.4870881786
O 2.2894766717 -1.109003044 -0.2585275211
C 2.852432488 -0.5205686617 -1.4450772908
C 4.3501515907 -0.1884141437 -1.1390190819
C 4.4909670306 1.00294875 -0.0942099961
C 3.1141340872 1.6095989972 0.3643792954
O 2.7328741601 1.8426996892 1.5310116793
O -4.7467594874 2.4538493771 -0.4559928485
O 2.3531919916 1.8958522021 -0.8159509653
O 2.2456455287 -0.4073014902 -2.5320524337
C 1.0306915227 2.4826078034 -0.4879672791
C 5.0802246709 -1.3537513429 -0.3431659292
C 6.6358987984 -1.0730225123 -0.366586891
C 6.7538673716 0.09156234 0.6863179575
C 5.2415133602 0.2801517762 1.0982887101
O 4.7022018623 -1.0996371913 1.0647056078
H 4.8533361843 0.0475462297 -2.092545064
H 5.0994921152 1.823355878 -0.5176602307
H 4.78052413 -2.3753201362 -0.64738841
H 7.1908756034 -1.9677121524 -0.0426272298
H 6.9903013064 -0.7806835425 -1.3680751611
H 7.3552350001 -0.2134353959 1.5574121013
H 7.1878411357 1.010265118 0.2603328987
H 5.0593843991 0.7431419248 2.0877097386
O -1.5366604764 0.4561726679 -1.0431901005
C -4.2347059077 3.7671731132 0.0004160148
C -5.4390050232 -0.726781265 0.8957922428
C -6.2959151183 -1.8760736615 0.231295891
C -5.1784440501 -2.9334524837 -0.0992900544
C -3.8886776805 -2.1933954219 0.4330779345
O -4.376443623 -1.4557788986 1.6220870737
H -5.2898792144 0.2204764209 -1.1357613322
H -3.5928011964 -1.3757749922 -1.6337401988
H -3.1478822258 3.8694182342 -0.1958046812
H -5.9944876306 -0.0610465665 1.5846157171
H -7.029779314 -2.2732149114 0.950733407
H -6.833024408 -1.5281188547 -0.6654205135
H -5.3369504083 -3.8733964503 0.4530726906
H -5.1133713785 -3.1623783594 -1.1750255081
H -3.0395516722 -2.8479454474 0.7052385242
H -4.4122480639 3.9204910962 1.0845553478
H -4.7891754871 4.52912298 -0.5775086215
H 0.2253397045 1.8156523305 -0.8673858629
H 0.9536908142 3.4693089013 -0.984852383
H 0.9393561331 2.6056054826 0.6101201208
H 0.7540989931 -2.5620608565 -0.4448895708
H 0.5579887707 -1.0873152104 -1.4874397115
H 0.436281587 -1.1203971531 1.646364795
H 0.1288399495 0.3170997208 0.6017695689
$end

$rem
JOBTYPE                   OPT
METHOD                    B3LYP
DFT_D                     d3_op
BASIS                     STO-3G
GEOM_OPT_MAX_CYCLES       100
GEOM_OPT_TOL_GRADIENT     300
GEOM_OPT_TOL_DISPLACEMENT 1200
GEOM_OPT_TOL_ENERGY       100
SYMMETRY                  False
THRESH                    12
SCF_CONVERGENCE           8
MAX_SUB_FILE_NUM          128
MEM_STATIC                400
MEM_TOTAL                 4000
$end
--------------------------------------------------------------

   16   -1510.2860923241      6.58E-09 Convergence criterion met
 Total energy in the final basis set = -1510.28609232
   14   -1510.2750610930      6.04E-09 Convergence criterion met
 Total energy in the final basis set = -1510.27506109
   14   -1510.2865863661      2.98E-09 Convergence criterion met
 Total energy in the final basis set = -1510.28658637
   14   -1510.2865844788      3.61E-09 Convergence criterion met
 Total energy in the final basis set = -1510.28658448
   14   -1510.2886132488      1.79E-09 Convergence criterion met
 Total energy in the final basis set = -1510.28861325
   13   -1510.2892254424      7.51E-09 Convergence criterion met
 Total energy in the final basis set = -1510.28922544
   13   -1510.2901703634      3.74E-09 Convergence criterion met
 Total energy in the final basis set = -1510.29017036
   13   -1510.2910562220      7.13E-09 Convergence criterion met
   12   -1510.2937008825      3.97E-09 Convergence criterion met
 Total energy in the final basis set = -1510.29370088
   11   -1510.2937255940      7.12E-09 Convergence criterion met
 Total energy in the final basis set = -1510.29372559
   10   -1510.2937147445      6.54E-09 Convergence criterion met
 Total energy in the final basis set = -1510.29371474
   12   -1510.2937064081      1.49E-09 Convergence criterion met
 Total energy in the final basis set = -1510.29370641
   11   -1510.2936998713      5.79E-09 Convergence criterion met
 Total energy in the final basis set = -1510.29369987
    9   -1510.2937015013      6.91E-09 Convergence criterion met
 Total energy in the final basis set = -1510.29370150

             Standard Nuclear Orientation (Angstroms)
    I     Atom           X                Y                Z
 ----------------------------------------------------------------
    1      O      -2.0304366657     1.3567126554     0.2430445424
    2      C      -3.2826896253     1.3875543953     0.2685944679
    3      C      -4.2657719073     0.3162949429    -0.3123235364
    4      C      -3.5171879867    -0.9350795763    -0.9334797031
    5      C      -1.9473589693    -0.8206033701    -0.8757496475
    6      O      -1.4903849913    -1.3551738143     0.3671638515
    7      C      -0.0505088530    -1.0798187986     0.5913911123
    8      C       0.9105192111    -1.8388320844    -0.3963116054
    9      O       2.2613293623    -1.2979720670    -0.1183829106
   10      C       3.0495900966    -1.2037734912    -1.3111117410
   11      C       4.3689988277    -0.4514439521    -0.9278898105
   12      C       4.0877817246     0.9671240513    -0.2693166275
   13      C       2.5618728362     1.3437684627    -0.2221833994
   14      O       1.8612456148     1.5911648154     0.7842897576
   15      O      -4.0414480293     2.4450583513     0.8509789220
   16      O       2.1007183392     1.4009095818    -1.5728750706
   17      O       2.7079144619    -1.6471020405    -2.4277071409
   18      C       0.6734267615     1.8047975542    -1.6399642484
   19      C       5.1336884178    -1.1735019788     0.2643700728
   20      C       6.5818645430    -0.5500631809     0.3820942950
   21      C       6.2664904721     0.8304044905     1.0707267633
   22      C       4.6932573401     0.7606091169     1.1792565274
   23      O       4.4359714674    -0.6699835114     1.4680212967
   24      H       4.9925134212    -0.3675069779    -1.8350028300
   25      H       4.6187801233     1.7621597335    -0.8243679869
   26      H       5.0982223672    -2.2796905254     0.2294241225
   27      H       7.2230687285    -1.1823323294     1.0167121051
   28      H       7.0633814426    -0.4341776920    -0.6020474557
   29      H       6.7190630019     0.8934953148     2.0732210034
   30      H       6.6073298589     1.6919945215     0.4749072635
   31      H       4.2299953449     1.3993123076     1.9561366546
   32      O      -1.2187980045    -0.4446878233    -1.8262260661
   33      C      -3.1314278144     3.4625929548     1.4296843067
   34      C      -5.1288194733    -0.3802024456     0.8277710952
   35      C      -6.3281603845    -1.1456606474     0.1412294630
   36      C      -5.5822646233    -2.3887523912    -0.4710268319
   37      C      -4.0933141696    -2.1033300893    -0.0254697477
   38      O      -4.2460128440    -1.4678748901     1.3043130141
   39      H      -4.9179955538     0.8109916890    -1.0548741695
   40      H      -3.7962848228    -1.0650113618    -1.9939927307
   41      H      -2.4447891428     3.8769862640     0.6637841387
   42      H      -5.4083366738     0.2946759872     1.6601010677
   43      H      -7.0715380920    -1.4493839689     0.8955414573
   44      H      -6.8299977338    -0.5295957695    -0.6219322309
   45      H      -5.9414601033    -3.3324029629    -0.0306403245
   46      H      -5.6832104872    -2.4490730978    -1.5664665649
   47      H      -3.4407457839    -2.9943355698     0.0442844667
   48      H      -2.5243956076     3.0392974683     2.2558143738
   49      H      -3.7830671402     4.2654899131     1.8203467831
   50      H       0.0171006756     0.9092690761    -1.7623074862
   51      H       0.5688503628     2.4678912231    -2.5189474797
   52      H       0.3795862322     2.3426900023    -0.7173078847
   53      H       0.8862849996    -2.9345839821    -0.2128393067
   54      H       0.6184935381    -1.6391459000    -1.4486760179
   55      H       0.1447866936    -1.4102970411     1.6310382930
   56      H       0.1540286410     0.0118627509     0.5285736138
 ----------------------------------------------------------------

   10   -1510.2937012497      2.06E-09 Convergence criterion met
 Total energy in the final basis set = -1510.29370125
 Final energy is   -1510.29370124974
 **  OPTIMIZATION CONVERGED  **

                    Orbital Energies (a.u.)
 --------------------------------------------------------------

 Alpha MOs
 -- Occupied --
-18.948 -18.930 -18.923 -18.918 -18.891 -18.890 -18.881 -18.870
-18.868 -18.863 -10.111 -10.103 -10.091 -10.089 -10.072 -10.064
-10.061 -10.059 -10.057 -10.055 -10.052 -10.044 -10.037 -10.031
-10.030 -10.029 -10.023 -10.021 -10.016 -10.015  -1.024  -1.008
 -1.003  -0.995  -0.972  -0.963  -0.947  -0.934  -0.928  -0.923
 -0.766  -0.757  -0.727  -0.721  -0.712  -0.701  -0.688  -0.669
 -0.644  -0.610  -0.594  -0.577  -0.548  -0.540  -0.539  -0.531
 -0.515  -0.504  -0.486  -0.470  -0.466  -0.456  -0.449  -0.439
 -0.436  -0.429  -0.425  -0.418  -0.413  -0.399  -0.397  -0.394
 -0.383  -0.380  -0.373  -0.363  -0.360  -0.356  -0.351  -0.341
 -0.338  -0.336  -0.334  -0.328  -0.326  -0.321  -0.319  -0.316
 -0.308  -0.304  -0.302  -0.299  -0.290  -0.284  -0.283  -0.274
 -0.268  -0.263  -0.248  -0.238  -0.236  -0.235  -0.228  -0.189
 -0.177  -0.168  -0.164  -0.157  -0.150  -0.148  -0.144  -0.141
 -0.137

          Ground-State Mulliken Net Atomic Charges

     Atom                 Charge (a.u.)
  ----------------------------------------
      1 O                    -0.206620
      2 C                     0.215763
      3 C                    -0.078361
      4 C                    -0.081363
      5 C                     0.223433
      6 O                    -0.168273
      7 C                    -0.050999
      8 C                    -0.057148
      9 O                    -0.172318
     10 C                     0.212359
     11 C                    -0.077807
     12 C                    -0.077536
     13 C                     0.212347
     14 O                    -0.219528
     15 O                    -0.167438
     16 O                    -0.176766
     17 O                    -0.210558
     18 C                    -0.151749
     19 C                     0.025951
     20 C                    -0.144140
     21 C                    -0.143868
     22 C                     0.024389
     23 O                    -0.185716
     24 H                     0.084706
     25 H                     0.083128
     26 H                     0.081847
     27 H                     0.076952
     28 H                     0.073189
     29 H                     0.076914
     30 H                     0.072424
     31 H                     0.088743
     32 O                    -0.224512
     33 C                    -0.128064
     34 C                     0.025192
     35 C                    -0.143579
     36 C                    -0.144256
     37 C                     0.026669
     38 O                    -0.186606
     39 H                     0.087564
     40 H                     0.084346
     41 H                     0.092182
     42 H                     0.087074
     43 H                     0.078778
     44 H                     0.073840
     45 H                     0.078537
     46 H                     0.073918
     47 H                     0.087955
     48 H                     0.093826
     49 H                     0.093139
     50 H                     0.110043
     51 H                     0.078477
     52 H                     0.089671
     53 H                     0.080174
     54 H                     0.105671
     55 H                     0.092709
     56 H                     0.105297
  ----------------------------------------
  Sum of atomic charges =    -0.000000

                    Cartesian Multipole Moments
 -----------------------------------------------------------------
    Charge (ESU x 10^10)
                 0.0000
    Dipole Moment (Debye)
         X      -1.8214      Y       1.3948      Z      -0.1062
       Tot       2.2966
    Quadrupole Moments (Debye-Ang)
        XX    -132.5804     XY       1.1360     YY    -150.7239
        XZ       3.6587     YZ       1.8720     ZZ    -169.1859

 Total job time:  87.67s(wall), 4176.42s(cpu)
        *  Thank you very much for using Q-Chem.  Have a nice day.  *
