 Q-Chem 5.0, Q-Chem, Inc., Pleasanton, CA (2017)
 Q-Chem 5.0.1 for Intel X86 EM64T Linux

User input:
--------------------------------------------------------------
$molecule
0  1
O -3.94934 -3.66094 2.70899
C -3.26408 -4.56952 2.26188
C -3.36658 -6.02376 2.66595
C -3.53137 -6.32676 4.16425
C -3.75368 -5.13762 5.07233
O -4.92294 -5.29197 5.76112
C -5.14473 -4.26338 6.73172
C -4.43527 -4.61013 8.03654
O -4.84046 -3.69969 9.07085
C -3.83637 -3.19629 9.83081
C -4.32687 -2.25607 10.90601
C -4.91375 -0.93368 10.39111
C -5.25119 -0.89112 8.91429
O -6.31417 -0.51658 8.44061
O -2.24787 -4.25988 1.41413
O -4.18926 -1.00768 8.07194
O -2.66559 -3.54996 9.76228
C -4.18611 -0.57532 6.76022
C -5.50238 -2.78997 11.74611
C -5.51268 -2.09698 13.10698
C -5.93079 -0.69525 12.70737
C -6.21736 -0.90638 11.21471
O -6.64743 -2.24518 11.13479
H -3.45943 -2.06103 11.57824
H -4.23837 -0.07258 10.59038
H -5.48799 -3.89487 11.86987
H -6.33706 -2.56024 13.69552
H -4.56882 -2.16133 13.68991
H -6.86017 -0.43647 13.26158
H -5.16134 0.09216 12.86119
H -6.9358 -0.13896 10.85234
O -2.92725 -4.25124 5.25779
C -1.96734 -2.9847 0.96973
C -4.65662 -6.67092 2.11277
C -4.44359 -8.17207 1.94295
C -4.38104 -8.60738 3.39029
C -4.74469 -7.28969 4.09059
O -5.5779 -6.62709 3.1748
H -2.50035 -6.55725 2.21072
H -2.63133 -6.84131 4.56697
H -1.72638 -2.32372 1.82967
H -4.9989 -6.22483 1.15285
H -5.37809 -8.57447 1.48922
H -3.57687 -8.4775 1.3182
H -5.15845 -9.38631 3.55429
H -3.39032 -8.97816 3.73179
H -5.18639 -7.52433 5.08319
H -2.83628 -2.57433 0.41208
H -1.09125 -3.02068 0.29027
H -3.21459 -0.83559 6.29235
H -4.3139 0.52761 6.72829
H -5.00843 -1.04479 6.18296
H -4.77004 -5.6265 8.33653
H -3.3395 -4.65722 7.85475
H -6.23431 -4.24515 6.94758
H -4.88073 -3.25784 6.35355
$end

$opt
CONSTRAINT
tors           1           2           3           4     -42.546
tors           3           4           5           6    +122.636
tors           4           5           6           7    +174.717
tors           5           6           7           8     -84.904
tors           6           7           8           9    -170.327
tors           7           8           9          10    -134.310
tors           8           9          10          11    -179.526
tors           9          10          11          12     -67.811
tors          11          12          13          14    +130.194
ENDCONSTRAINT
$end

$rem
JOBTYPE                   OPT
METHOD                    B3LYP
DFT_D                     d3_op
BASIS                     STO-3G
GEOM_OPT_MAX_CYCLES       100
GEOM_OPT_TOL_GRADIENT     300
GEOM_OPT_TOL_DISPLACEMENT 1200
GEOM_OPT_TOL_ENERGY       100
SYMMETRY                  False
THRESH                    12
SCF_CONVERGENCE           8
MAX_SUB_FILE_NUM          128
MEM_STATIC                400
MEM_TOTAL                 4000
$end
--------------------------------------------------------------

   15   -1510.1559786058      6.33E-09 Convergence criterion met
 Total energy in the final basis set = -1510.15597861
   13   -1510.2243551768      8.15E-09 Convergence criterion met
 Total energy in the final basis set = -1510.22435518
   14   -1510.2603046065      3.10E-09 Convergence criterion met
 Total energy in the final basis set = -1510.26030461
   13   -1510.2754533845      6.58E-09 Convergence criterion met
 Total energy in the final basis set = -1510.27545338
    2   -1510.2754533845      6.28E-09 Convergence criterion met
 Total energy in the final basis set = -1510.27545338
   13   -1510.2790441036      7.82E-09 Convergence criterion met
 Total energy in the final basis set = -1510.27904410
   13   -1510.2803482077      8.20E-09 Convergence criterion met
 Total energy in the final basis set = -1510.28034821
   13   -1510.2817669053      3.75E-09 Convergence criterion met
   11   -1510.2866482023      7.70E-09 Convergence criterion met
 Total energy in the final basis set = -1510.28664820
   11   -1510.2867059703      5.72E-09 Convergence criterion met
 Total energy in the final basis set = -1510.28670597
   10   -1510.2867511463      8.67E-09 Convergence criterion met
 Total energy in the final basis set = -1510.28675115
   10   -1510.2867706397      5.27E-09 Convergence criterion met
 Total energy in the final basis set = -1510.28677064
    9   -1510.2867770655      6.53E-09 Convergence criterion met
 Total energy in the final basis set = -1510.28677707
    9   -1510.2867784637      2.48E-09 Convergence criterion met
 Total energy in the final basis set = -1510.28677846

             Standard Nuclear Orientation (Angstroms)
    I     Atom           X                Y                Z
 ----------------------------------------------------------------
    1      O       3.2404118739    -1.5190875281     1.1562184820
    2      C       4.1405505864    -1.3821714765     0.2988243445
    3      C       4.6981438255    -0.0390217315    -0.2788007818
    4      C       3.5578999735     1.0175015680    -0.5996994291
    5      C       2.1077200641     0.4413420103    -0.4043092467
    6      O       1.3817164412     1.2384475158     0.5393386834
    7      C      -0.0169457760     0.7528978116     0.6091869471
    8      C      -0.8905415795     1.4023300797    -0.5212709180
    9      O      -2.3001812665     1.0534008249    -0.2361863032
   10      C      -2.9524700118     0.6117088988    -1.4390281545
   11      C      -4.4355406659     0.2706803666    -1.0772670519
   12      C      -4.5476348672    -1.0039690638    -0.1342987538
   13      C      -3.1591913795    -1.6334017863     0.2519055532
   14      O      -2.7538207209    -1.9373453844     1.3940363904
   15      O       4.8576394029    -2.4686087063    -0.2963938814
   16      O      -2.4209865662    -1.8462313396    -0.9584349040
   17      O      -2.4179010448     0.5957168578    -2.5687123232
   18      C      -1.1015879494    -2.4664709554    -0.6845399869
   19      C      -5.1170541538     1.3720734673    -0.1564819415
   20      C      -6.6777327187     1.1212017472    -0.1617347984
   21      C      -6.7875106002    -0.1408055957     0.7729971707
   22      C      -5.2694361732    -0.3855097650     1.1326209919
   23      O      -4.7080299381     0.9834363897     1.2116899254
   24      H      -4.9876023351     0.1193608005    -2.0212844327
   25      H      -5.1603842186    -1.7916559378    -0.6105779001
   26      H      -4.8042247297     2.4114470153    -0.3746315749
   27      H      -7.2068337849     1.9878318954     0.2657447069
   28      H      -7.0660987850     0.9354896536    -1.1759132524
   29      H      -7.3681981564     0.0792097815     1.6829237516
   30      H      -7.2397399803    -1.0078344720     0.2651706648
   31      H      -5.0753335278    -0.9381216642     2.0726194399
   32      O       1.6116120527    -0.5297334831    -1.0216161669
   33      C       4.3587564109    -3.7571320697     0.2388512182
   34      C       5.5192602487     0.7509796501     0.8346905012
   35      C       6.3311321558     1.9081946891     0.1296061025
   36      C       5.1867810178     2.9485745818    -0.1615837716
   37      C       3.9277830766     2.1835404531     0.4069673865
   38      O       4.4638464028     1.4646698457     1.5867319985
   39      H       5.3177688301    -0.2630795781    -1.1644648955
   40      H       3.6332730754     1.3538418093    -1.6505248008
   41      H       3.2753469140    -3.8871749397     0.0403871726
   42      H       6.1108485431     0.1046129706     1.5119399771
   43      H       7.0884756176     2.3191414182     0.8160093586
   44      H       6.8359756215     1.5618293998    -0.7863969252
   45      H       5.3465530027     3.8884278964     0.3905841930
   46      H       5.0846452712     3.1810642531    -1.2336630057
   47      H       3.0695366222     2.8182390022     0.6971488361
   48      H       4.5281689698    -3.8390879408     1.3320775167
   49      H       4.9292059602    -4.5466451309    -0.2840188770
   50      H      -0.2908437424    -1.7880920029    -1.0274416846
   51      H      -1.0408947903    -3.4206944612    -1.2432881145
   52      H      -1.0015539420    -2.6586538678     0.4028622820
   53      H      -0.7730271907     2.5072899391    -0.5006584003
   54      H      -0.6104812680     1.0258701343    -1.5287042581
   55      H      -0.4004653498     1.0722281745     1.5993564099
   56      H      -0.0554293737    -0.3506075880     0.5405996389
 ----------------------------------------------------------------

    9   -1510.2867784999      1.36E-09 Convergence criterion met
 Total energy in the final basis set = -1510.28677850
 Final energy is   -1510.28677849988
 **  OPTIMIZATION CONVERGED  **

                    Orbital Energies (a.u.)
 --------------------------------------------------------------

 Alpha MOs
 -- Occupied --
-18.937 -18.935 -18.931 -18.927 -18.888 -18.885 -18.877 -18.873
-18.873 -18.871 -10.102 -10.099 -10.098 -10.096 -10.066 -10.064
-10.063 -10.061 -10.059 -10.058 -10.056 -10.050 -10.039 -10.037
-10.037 -10.036 -10.021 -10.020 -10.019 -10.018  -1.015  -1.012
 -1.008  -1.003  -0.970  -0.968  -0.939  -0.935  -0.934  -0.931
 -0.764  -0.762  -0.726  -0.722  -0.712  -0.705  -0.691  -0.663
 -0.656  -0.613  -0.596  -0.580  -0.546  -0.544  -0.538  -0.535
 -0.513  -0.509  -0.482  -0.478  -0.465  -0.461  -0.450  -0.439
 -0.434  -0.431  -0.428  -0.412  -0.409  -0.409  -0.403  -0.397
 -0.391  -0.376  -0.373  -0.371  -0.360  -0.358  -0.354  -0.347
 -0.344  -0.341  -0.331  -0.331  -0.329  -0.327  -0.321  -0.310
 -0.309  -0.304  -0.303  -0.295  -0.292  -0.289  -0.285  -0.276
 -0.273  -0.257  -0.250  -0.244  -0.244  -0.233  -0.232  -0.183
 -0.176  -0.173  -0.166  -0.159  -0.157  -0.150  -0.149  -0.144
 -0.141

          Ground-State Mulliken Net Atomic Charges

     Atom                 Charge (a.u.)
  ----------------------------------------
      1 O                    -0.211908
      2 C                     0.209640
      3 C                    -0.079240
      4 C                    -0.078730
      5 C                     0.214450
      6 O                    -0.165835
      7 C                    -0.050741
      8 C                    -0.057212
      9 O                    -0.173086
     10 C                     0.214139
     11 C                    -0.078701
     12 C                    -0.077085
     13 C                     0.213208
     14 O                    -0.211570
     15 O                    -0.168925
     16 O                    -0.172956
     17 O                    -0.213337
     18 C                    -0.142700
     19 C                     0.026609
     20 C                    -0.143959
     21 C                    -0.143979
     22 C                     0.024165
     23 O                    -0.185746
     24 H                     0.085229
     25 H                     0.085051
     26 H                     0.083338
     27 H                     0.077738
     28 H                     0.073436
     29 H                     0.078097
     30 H                     0.072863
     31 H                     0.090335
     32 O                    -0.222664
     33 C                    -0.128603
     34 C                     0.025853
     35 C                    -0.143963
     36 C                    -0.144159
     37 C                     0.023985
     38 O                    -0.186442
     39 H                     0.086768
     40 H                     0.084857
     41 H                     0.091249
     42 H                     0.082819
     43 H                     0.078273
     44 H                     0.074007
     45 H                     0.078269
     46 H                     0.072953
     47 H                     0.093180
     48 H                     0.088770
     49 H                     0.090368
     50 H                     0.101586
     51 H                     0.084765
     52 H                     0.098402
     53 H                     0.082084
     54 H                     0.100097
     55 H                     0.096043
     56 H                     0.098915
  ----------------------------------------
  Sum of atomic charges =    -0.000000

                    Cartesian Multipole Moments
 -----------------------------------------------------------------
    Charge (ESU x 10^10)
                 0.0000
    Dipole Moment (Debye)
         X       0.5213      Y       0.0062      Z      -1.6656
       Tot       1.7453
    Quadrupole Moments (Debye-Ang)
        XX    -131.4513     XY       1.3657     YY    -149.4632
        XZ      -1.4828     YZ      -2.9866     ZZ    -171.9424

 Total job time:  73.28s(wall), 3487.96s(cpu)
        *  Thank you very much for using Q-Chem.  Have a nice day.  *
