 Q-Chem 5.0, Q-Chem, Inc., Pleasanton, CA (2017)
 Q-Chem 5.0.1 for Intel X86 EM64T Linux

User input:
--------------------------------------------------------------
$molecule
0  1
O 3.2404118739 -1.5190875281 1.156218482
C 4.1405505864 -1.3821714765 0.2988243445
C 4.6981438255 -0.0390217315 -0.2788007818
C 3.5578999735 1.017501568 -0.5996994291
C 2.1077200641 0.4413420103 -0.4043092467
O 1.3817164412 1.2384475158 0.5393386834
C -0.016945776 0.7528978116 0.6091869471
C -0.8905415795 1.4023300797 -0.521270918
O -2.3001812665 1.0534008249 -0.2361863032
C -2.9524700118 0.6117088988 -1.4390281545
C -4.4355406659 0.2706803666 -1.0772670519
C -4.5476348672 -1.0039690638 -0.1342987538
C -3.1591913795 -1.6334017863 0.2519055532
O -2.7538207209 -1.9373453844 1.3940363904
O 4.8576394029 -2.4686087063 -0.2963938814
O -2.4209865662 -1.8462313396 -0.958434904
O -2.4179010448 0.5957168578 -2.5687123232
C -1.1015879494 -2.4664709554 -0.6845399869
C -5.1170541538 1.3720734673 -0.1564819415
C -6.6777327187 1.1212017472 -0.1617347984
C -6.7875106002 -0.1408055957 0.7729971707
C -5.2694361732 -0.385509765 1.1326209919
O -4.7080299381 0.9834363897 1.2116899254
H -4.9876023351 0.1193608005 -2.0212844327
H -5.1603842186 -1.7916559378 -0.6105779001
H -4.8042247297 2.4114470153 -0.3746315749
H -7.2068337849 1.9878318954 0.2657447069
H -7.066098785 0.9354896536 -1.1759132524
H -7.3681981564 0.0792097815 1.6829237516
H -7.2397399803 -1.007834472 0.2651706648
H -5.0753335278 -0.9381216642 2.0726194399
O 1.6116120527 -0.5297334831 -1.0216161669
C 4.3587564109 -3.7571320697 0.2388512182
C 5.5192602487 0.7509796501 0.8346905012
C 6.3311321558 1.9081946891 0.1296061025
C 5.1867810178 2.9485745818 -0.1615837716
C 3.9277830766 2.1835404531 0.4069673865
O 4.4638464028 1.4646698457 1.5867319985
H 5.3177688301 -0.2630795781 -1.1644648955
H 3.6332730754 1.3538418093 -1.6505248008
H 3.275346914 -3.8871749397 0.0403871726
H 6.1108485431 0.1046129706 1.5119399771
H 7.0884756176 2.3191414182 0.8160093586
H 6.8359756215 1.5618293998 -0.7863969252
H 5.3465530027 3.8884278964 0.390584193
H 5.0846452712 3.1810642531 -1.2336630057
H 3.0695366222 2.8182390022 0.6971488361
H 4.5281689698 -3.8390879408 1.3320775167
H 4.9292059602 -4.5466451309 -0.284018877
H -0.2908437424 -1.7880920029 -1.0274416846
H -1.0408947903 -3.4206944612 -1.2432881145
H -1.001553942 -2.6586538678 0.402862282
H -0.7730271907 2.5072899391 -0.5006584003
H -0.610481268 1.0258701343 -1.5287042581
H -0.4004653498 1.0722281745 1.5993564099
H -0.0554293737 -0.350607588 0.5405996389
$end

$rem
JOBTYPE                   OPT
METHOD                    B3LYP
DFT_D                     d3_op
BASIS                     STO-3G
GEOM_OPT_MAX_CYCLES       100
GEOM_OPT_TOL_GRADIENT     300
GEOM_OPT_TOL_DISPLACEMENT 1200
GEOM_OPT_TOL_ENERGY       100
SYMMETRY                  False
THRESH                    12
SCF_CONVERGENCE           8
MAX_SUB_FILE_NUM          128
MEM_STATIC                400
MEM_TOTAL                 4000
$end
--------------------------------------------------------------

   16   -1510.2866881583      5.87E-09 Convergence criterion met
 Total energy in the final basis set = -1510.28668816
   14   -1510.2753311163      5.47E-09 Convergence criterion met
 Total energy in the final basis set = -1510.27533112
   14   -1510.2873694652      2.88E-09 Convergence criterion met
 Total energy in the final basis set = -1510.28736947
   14   -1510.2864110255      2.74E-09 Convergence criterion met
 Total energy in the final basis set = -1510.28641103
   14   -1510.2887332334      1.36E-09 Convergence criterion met
 Total energy in the final basis set = -1510.28873323
   14   -1510.2894676001      1.61E-09 Convergence criterion met
 Total energy in the final basis set = -1510.28946760
   13   -1510.2904772635      4.16E-09 Convergence criterion met
 Total energy in the final basis set = -1510.29047726
   13   -1510.2914656971      5.35E-09 Convergence criterion met
   12   -1510.2936890829      3.77E-09 Convergence criterion met
 Total energy in the final basis set = -1510.29368908
   12   -1510.2936784152      4.17E-09 Convergence criterion met
 Total energy in the final basis set = -1510.29367842
   10   -1510.2936873830      6.96E-09 Convergence criterion met
 Total energy in the final basis set = -1510.29368738
   12   -1510.2936722426      1.93E-09 Convergence criterion met
 Total energy in the final basis set = -1510.29367224
   11   -1510.2936747726      4.94E-09 Convergence criterion met
 Total energy in the final basis set = -1510.29367477
   10   -1510.2936726373      6.13E-09 Convergence criterion met
 Total energy in the final basis set = -1510.29367264

             Standard Nuclear Orientation (Angstroms)
    I     Atom           X                Y                Z
 ----------------------------------------------------------------
    1      O      -2.0245909649     1.3605965841     0.1710224296
    2      C      -3.2768620134     1.3888143538     0.1984540636
    3      C      -4.2579336862     0.3091481814    -0.3706478680
    4      C      -3.5073738440    -0.9607102466    -0.9507815557
    5      C      -1.9378564937    -0.8511791638    -0.8787230375
    6      O      -1.4976270722    -1.3460172668     0.3864711028
    7      C      -0.0605572119    -1.0648987233     0.6215966217
    8      C       0.9146832326    -1.8505550625    -0.3307986994
    9      O       2.2597577627    -1.2975329553    -0.0482515697
   10      C       3.0727103449    -1.2526245641    -1.2269846040
   11      C       4.3813449712    -0.4788637817    -0.8499486539
   12      C       4.0815976701     0.9604840744    -0.2459144538
   13      C       2.5534928472     1.3305289972    -0.2376446825
   14      O       1.8330473552     1.6040496149     0.7479274181
   15      O      -4.0369608952     2.4502649245     0.7716955344
   16      O       2.1181821918     1.3478868640    -1.5979080790
   17      O       2.7558837117    -1.7453262611    -2.3300885019
   18      C       0.6912309767     1.7446898142    -1.7032206341
   19      C       5.1328018432    -1.1531926675     0.3783505563
   20      C       6.5747047091    -0.5153720553     0.4959384609
   21      C       6.2390593191     0.8861105444     1.1305636701
   22      C       4.6652127533     0.8081783172     1.2181669107
   23      O       4.4133772311    -0.6132719369     1.5531003770
   24      H       5.0184094595    -0.4226613403    -1.7497177652
   25      H       4.6181621183     1.7382313696    -0.8197159294
   26      H       5.1055033614    -2.2601750291     0.3815576719
   27      H       7.2102189396    -1.1203646996     1.1620605081
   28      H       7.0707060885    -0.4307708416    -0.4841989274
   29      H       6.6760842486     0.9874657465     2.1367823249
   30      H       6.5826608566     1.7289976343     0.5101210878
   31      H       4.1858604856     1.4701581033     1.9652389656
   32      O      -1.1971586783    -0.5112107552    -1.8333717150
   33      C      -3.1282072861     3.4749604102     1.3396234725
   34      C      -5.1403595960    -0.3549843171     0.7732644064
   35      C      -6.3324203870    -1.1338355808     0.0890797522
   36      C      -5.5828674774    -2.3960590716    -0.4777868070
   37      C      -4.0992670818    -2.1030564942    -0.0196879443
   38      O      -4.2681380092    -1.4326211234     1.2906915175
   39      H      -4.8968286715     0.7890924234    -1.1342552490
   40      H      -3.7750682943    -1.1169645190    -2.0106716266
   41      H      -2.4474296495     3.8879225759     0.5677272480
   42      H      -5.4292545351     0.3423986046     1.5835496999
   43      H      -7.0888068498    -1.4140215615     0.8395014457
   44      H      -6.8193020437    -0.5366228832    -0.6983493801
   45      H      -5.9513644746    -3.3257557167    -0.0159278319
   46      H      -5.6692547744    -2.4869170138    -1.5724013572
   47      H      -3.4506221898    -2.9938785762     0.0822645939
   48      H      -2.5149685324     3.0590059051     2.1648946261
   49      H      -3.7811933243     4.2773386094     1.7291035869
   50      H       0.0384329691     0.8434198563    -1.7998070511
   51      H       0.5994859889     2.3717345142    -2.6096166655
   52      H       0.3812282230     2.3181823620    -0.8077432972
   53      H       0.8898296835    -2.9408059745    -0.1170130778
   54      H       0.6363325953    -1.6810692962    -1.3921268824
   55      H       0.1206467315    -1.3658582671     1.6726811189
   56      H       0.1458717901     0.0247400595     0.5308516912
 ----------------------------------------------------------------

    9   -1510.2936725613      7.09E-09 Convergence criterion met
 Total energy in the final basis set = -1510.29367256
 Final energy is   -1510.29367256128
 **  OPTIMIZATION CONVERGED  **

                    Orbital Energies (a.u.)
 --------------------------------------------------------------

 Alpha MOs
 -- Occupied --
-18.948 -18.930 -18.923 -18.918 -18.891 -18.890 -18.882 -18.870
-18.869 -18.862 -10.111 -10.103 -10.092 -10.089 -10.072 -10.063
-10.061 -10.059 -10.057 -10.055 -10.052 -10.044 -10.037 -10.031
-10.029 -10.029 -10.023 -10.021 -10.016 -10.015  -1.024  -1.008
 -1.003  -0.995  -0.972  -0.963  -0.947  -0.934  -0.928  -0.923
 -0.766  -0.757  -0.727  -0.721  -0.712  -0.701  -0.688  -0.669
 -0.644  -0.609  -0.594  -0.578  -0.548  -0.540  -0.539  -0.531
 -0.515  -0.505  -0.486  -0.470  -0.466  -0.455  -0.449  -0.439
 -0.436  -0.429  -0.425  -0.418  -0.413  -0.399  -0.397  -0.394
 -0.383  -0.380  -0.373  -0.363  -0.360  -0.356  -0.351  -0.341
 -0.338  -0.336  -0.334  -0.328  -0.326  -0.321  -0.319  -0.316
 -0.308  -0.304  -0.302  -0.299  -0.290  -0.284  -0.283  -0.274
 -0.268  -0.263  -0.248  -0.238  -0.236  -0.235  -0.228  -0.189
 -0.177  -0.168  -0.164  -0.157  -0.150  -0.148  -0.144  -0.141
 -0.137

          Ground-State Mulliken Net Atomic Charges

     Atom                 Charge (a.u.)
  ----------------------------------------
      1 O                    -0.206640
      2 C                     0.215891
      3 C                    -0.078312
      4 C                    -0.081388
      5 C                     0.223456
      6 O                    -0.168425
      7 C                    -0.051222
      8 C                    -0.057024
      9 O                    -0.172252
     10 C                     0.212310
     11 C                    -0.077829
     12 C                    -0.077561
     13 C                     0.212511
     14 O                    -0.219685
     15 O                    -0.167416
     16 O                    -0.176864
     17 O                    -0.210524
     18 C                    -0.151623
     19 C                     0.025912
     20 C                    -0.144128
     21 C                    -0.143875
     22 C                     0.024411
     23 O                    -0.185736
     24 H                     0.084727
     25 H                     0.083101
     26 H                     0.081829
     27 H                     0.076974
     28 H                     0.073213
     29 H                     0.076896
     30 H                     0.072441
     31 H                     0.088681
     32 O                    -0.224447
     33 C                    -0.128029
     34 C                     0.025100
     35 C                    -0.143638
     36 C                    -0.144224
     37 C                     0.026679
     38 O                    -0.186663
     39 H                     0.087521
     40 H                     0.084318
     41 H                     0.092104
     42 H                     0.087275
     43 H                     0.078777
     44 H                     0.073809
     45 H                     0.078527
     46 H                     0.073917
     47 H                     0.087861
     48 H                     0.094021
     49 H                     0.093144
     50 H                     0.109938
     51 H                     0.078547
     52 H                     0.089569
     53 H                     0.080229
     54 H                     0.105606
     55 H                     0.092595
     56 H                     0.105614
  ----------------------------------------
  Sum of atomic charges =    -0.000000

                    Cartesian Multipole Moments
 -----------------------------------------------------------------
    Charge (ESU x 10^10)
                 0.0000
    Dipole Moment (Debye)
         X      -1.8174      Y       1.4205      Z      -0.1495
       Tot       2.3115
    Quadrupole Moments (Debye-Ang)
        XX    -132.7807     XY       1.2981     YY    -150.7818
        XZ       4.1764     YZ       1.3276     ZZ    -169.0768

 Total job time:  85.76s(wall), 4083.47s(cpu)
        *  Thank you very much for using Q-Chem.  Have a nice day.  *
