 Q-Chem 5.0, Q-Chem, Inc., Pleasanton, CA (2017)
 Q-Chem 5.0.1 for Intel X86 EM64T Linux

User input:
--------------------------------------------------------------
$molecule
0  1
O -3.94934 -3.66094 2.70899
C -3.26408 -4.56952 2.26188
C -3.36658 -6.02376 2.66595
C -3.44721 -6.33102 4.17026
C -3.59547 -5.14266 5.09433
O -4.70018 -5.30197 5.88151
C -4.85515 -4.26091 6.85178
C -3.85721 -4.45 7.98954
O -4.07032 -3.45041 8.99864
C -2.96317 -2.7726 9.39099
C -3.25025 -1.74533 10.46008
C -4.16529 -0.59276 10.02128
C -4.93256 -0.81199 8.73289
O -6.14267 -0.69932 8.60063
O -2.26409 -4.26316 1.39391
O -4.17159 -0.86319 7.60681
O -1.82364 -3.00623 9.00702
C -4.64165 -0.56751 6.34162
C -4.02462 -2.28568 11.67722
C -3.73863 -1.40779 12.89367
C -4.46987 -0.13808 12.50373
C -5.1511 -0.59803 11.20785
O -5.37018 -1.97491 11.40577
H -2.26388 -1.35601 10.8033
H -3.61145 0.36532 9.90875
H -3.80095 -3.35126 11.90278
H -4.26853 -1.87361 13.75555
H -2.66652 -1.27552 13.15429
H -5.22017 0.08952 13.2931
H -3.82212 0.74729 12.32415
H -6.0559 0.01856 11.01362
O -2.77137 -4.23969 5.18718
C -1.99157 -2.98948 0.94036
C -4.69282 -6.65467 2.18599
C -4.50689 -8.15765 2.00156
C -4.36762 -8.59791 3.44231
C -4.67438 -7.27827 4.16583
O -5.55064 -6.60308 3.30021
H -2.53061 -6.56545 2.16587
H -2.52693 -6.85362 4.5124
H -1.7344 -2.326 1.79367
H -5.08421 -6.20157 1.24845
H -5.46997 -8.54842 1.60053
H -3.68025 -8.47074 1.32817
H -5.14427 -9.36751 3.64854
H -3.36393 -8.98238 3.72593
H -5.06166 -7.51111 5.18114
H -2.87064 -2.58045 0.3978
H -1.12834 -3.02785 0.24477
H -3.83127 -0.73446 5.60267
H -4.95158 0.49819 6.2966
H -5.51408 -1.20108 6.07939
H -4.05365 -5.44395 8.4456
H -2.82259 -4.48565 7.5937
H -5.87735 -4.33066 7.28069
H -4.75766 -3.26722 6.37988
$end

$opt
CONSTRAINT
tors           1           2           3           4     -46.086
tors           3           4           5           6    +124.610
tors           4           5           6           7    +175.791
tors           5           6           7           8     -75.205
tors           6           7           8           9    -176.557
tors           7           8           9          10    -129.641
tors           8           9          10          11    -179.526
tors           9          10          11          12     -64.601
tors          11          12          13          14    +126.593
ENDCONSTRAINT
$end

$rem
JOBTYPE                   OPT
METHOD                    B3LYP
DFT_D                     d3_op
BASIS                     STO-3G
GEOM_OPT_MAX_CYCLES       100
GEOM_OPT_TOL_GRADIENT     300
GEOM_OPT_TOL_DISPLACEMENT 1200
GEOM_OPT_TOL_ENERGY       100
SYMMETRY                  False
THRESH                    12
SCF_CONVERGENCE           8
MAX_SUB_FILE_NUM          128
MEM_STATIC                400
MEM_TOTAL                 4000
$end
--------------------------------------------------------------

   15   -1510.1563102418      6.21E-09 Convergence criterion met
 Total energy in the final basis set = -1510.15631024
   14   -1510.2245486811      6.68E-09 Convergence criterion met
 Total energy in the final basis set = -1510.22454868
   14   -1510.2603117023      9.20E-09 Convergence criterion met
 Total energy in the final basis set = -1510.26031170
   13   -1510.2751955915      8.79E-09 Convergence criterion met
 Total energy in the final basis set = -1510.27519559
   13   -1510.2781868031      9.18E-09 Convergence criterion met
 Total energy in the final basis set = -1510.27818680
   13   -1510.2796024642      8.57E-09 Convergence criterion met
 Total energy in the final basis set = -1510.27960246
   13   -1510.2811933978      4.47E-09 Convergence criterion met
 Total energy in the final basis set = -1510.28119340
   12   -1510.2821766802      9.72E-09 Convergence criterion met
   12   -1510.2872918095      3.79E-09 Convergence criterion met
 Total energy in the final basis set = -1510.28729181
   11   -1510.2873803105      9.25E-09 Convergence criterion met
 Total energy in the final basis set = -1510.28738031
   11   -1510.2874441588      7.60E-09 Convergence criterion met
 Total energy in the final basis set = -1510.28744416
   11   -1510.2874811925      7.61E-09 Convergence criterion met
 Total energy in the final basis set = -1510.28748119
   10   -1510.2874871307      9.74E-09 Convergence criterion met
 Total energy in the final basis set = -1510.28748713
    9   -1510.2874891935      5.83E-09 Convergence criterion met
 Total energy in the final basis set = -1510.28748919

             Standard Nuclear Orientation (Angstroms)
    I     Atom           X                Y                Z
 ----------------------------------------------------------------
    1      O      -3.0523655180     1.5271089174     1.1504223993
    2      C      -3.9026955718     1.4144029034     0.2405127539
    3      C      -4.5647069957     0.0939402623    -0.2818433496
    4      C      -3.5175302115    -1.0752023446    -0.5285289134
    5      C      -2.0298448197    -0.6028620788    -0.3473839876
    6      O      -1.3526591343    -1.4174364610     0.6141284313
    7      C       0.0701548516    -1.0013072355     0.6763181407
    8      C       0.8890953084    -1.5048321812    -0.5665097726
    9      O       2.2935402377    -1.0984546195    -0.3386648553
   10      C       2.8051307536    -0.4189001878    -1.5003392586
   11      C       4.2892455836    -0.0291262691    -1.1997913905
   12      C       4.3807580015     1.0206711176    -0.0084257337
   13      C       2.9699197439     1.4730855954     0.5213613853
   14      O       2.5445750935     1.4508033799     1.6956862668
   15      O      -4.4594292915     2.5183749418    -0.4809147131
   16      O       2.2248817014     1.9391794276    -0.6113437318
   17      O       2.1660930874    -0.2595951866    -2.5625727984
   18      C       0.8601117774     2.3800400772    -0.2309943291
   19      C       5.1169122757    -1.2355009556    -0.5801820736
   20      C       6.6481427963    -0.8406002150    -0.5795996778
   21      C       6.7056528725     0.1658414592     0.6307079485
   22      C       5.1906166614     0.1940716414     1.0716856668
   23      O       4.7470956342    -1.2026810719     0.8528506373
   24      H       4.7405939525     0.3629849914    -2.1275865330
   25      H       4.9349990530     1.9230201238    -0.3258257639
   26      H       4.8845004296    -2.2254414232    -1.0182566594
   27      H       7.2740934120    -1.7288616403    -0.3986320743
   28      H       6.9566183095    -0.3792247613    -1.5313576211
   29      H       7.3372104087    -0.2211695799     1.4461390490
   30      H       7.0749293800     1.1622192288     0.3395440217
   31      H       4.9927296380     0.5028002258     2.1165511266
   32      O      -1.4855556732     0.3388080902    -0.9717045272
   33      C      -3.8542442104     3.7849234611    -0.0067902568
   34      C      -5.4702553872    -0.5664106786     0.8478131613
   35      C      -6.3627049435    -1.6887083827     0.1828879159
   36      C      -5.3073668137    -2.8385161564    -0.0177110609
   37      C      -3.9987702300    -2.1490170429     0.5345682300
   38      O      -4.4946219083    -1.3248471897     1.6617275828
   39      H      -5.1455160193     0.3272657255    -1.1910556621
   40      H      -3.6132528607    -1.4620168201    -1.5602702460
   41      H      -2.7581375597     3.7986352017    -0.1762079647
   42      H      -6.0198488152     0.1599088212     1.4775400442
   43      H      -7.1696157562    -1.9950219128     0.8674829146
   44      H      -6.8122662161    -1.3527774508    -0.7652188490
   45      H      -5.5572397493    -3.7245042209     0.5875351621
   46      H      -5.2062178357    -3.1473385860    -1.0704901079
   47      H      -3.2013443342    -2.8352417263     0.8773307237
   48      H      -4.0450433802     3.9497101665     1.0733864419
   49      H      -4.3304593773     4.5905963085    -0.5950719138
   50      H       0.1023607343     1.6717986817    -0.6383630506
   51      H       0.6951184406     3.3843248187    -0.6661601706
   52      H       0.7735447302     2.4267609396     0.8730514779
   53      H       0.8324680719    -2.6115483347    -0.6413235040
   54      H       0.5249305422    -1.0477874979    -1.5116542664
   55      H       0.4729923111    -1.4700050256     1.5965274809
   56      H       0.1574143124     0.0973603743     0.7704221155
 ----------------------------------------------------------------

    9   -1510.2874898727      5.05E-09 Convergence criterion met
 Total energy in the final basis set = -1510.28748987
 Final energy is   -1510.28748987267
 **  OPTIMIZATION CONVERGED  **

                    Orbital Energies (a.u.)
 --------------------------------------------------------------

 Alpha MOs
 -- Occupied --
-18.941 -18.935 -18.928 -18.927 -18.888 -18.885 -18.876 -18.875
-18.873 -18.872 -10.104 -10.097 -10.097 -10.096 -10.067 -10.063
-10.062 -10.062 -10.059 -10.058 -10.056 -10.046 -10.040 -10.038
-10.036 -10.035 -10.021 -10.020 -10.019 -10.018  -1.017  -1.011
 -1.008  -1.002  -0.970  -0.967  -0.941  -0.934  -0.933  -0.931
 -0.764  -0.762  -0.727  -0.722  -0.712  -0.704  -0.691  -0.663
 -0.654  -0.613  -0.595  -0.581  -0.547  -0.544  -0.538  -0.535
 -0.513  -0.509  -0.482  -0.477  -0.465  -0.460  -0.451  -0.440
 -0.435  -0.430  -0.428  -0.412  -0.410  -0.407  -0.403  -0.397
 -0.389  -0.376  -0.373  -0.369  -0.361  -0.358  -0.355  -0.347
 -0.344  -0.341  -0.331  -0.331  -0.328  -0.325  -0.322  -0.310
 -0.308  -0.304  -0.303  -0.296  -0.291  -0.288  -0.286  -0.278
 -0.273  -0.258  -0.251  -0.244  -0.242  -0.234  -0.232  -0.185
 -0.175  -0.173  -0.164  -0.158  -0.158  -0.150  -0.149  -0.144
 -0.141

          Ground-State Mulliken Net Atomic Charges

     Atom                 Charge (a.u.)
  ----------------------------------------
      1 O                    -0.213153
      2 C                     0.209504
      3 C                    -0.079088
      4 C                    -0.078606
      5 C                     0.215519
      6 O                    -0.163937
      7 C                    -0.050535
      8 C                    -0.059188
      9 O                    -0.171952
     10 C                     0.213237
     11 C                    -0.077947
     12 C                    -0.077107
     13 C                     0.211967
     14 O                    -0.212477
     15 O                    -0.168643
     16 O                    -0.174076
     17 O                    -0.211702
     18 C                    -0.145754
     19 C                     0.026402
     20 C                    -0.144130
     21 C                    -0.143653
     22 C                     0.024161
     23 O                    -0.185096
     24 H                     0.085922
     25 H                     0.084570
     26 H                     0.082841
     27 H                     0.077691
     28 H                     0.073426
     29 H                     0.077953
     30 H                     0.072860
     31 H                     0.090065
     32 O                    -0.221312
     33 C                    -0.128515
     34 C                     0.025776
     35 C                    -0.144039
     36 C                    -0.144025
     37 C                     0.023933
     38 O                    -0.186275
     39 H                     0.086896
     40 H                     0.085251
     41 H                     0.090356
     42 H                     0.082926
     43 H                     0.078318
     44 H                     0.073995
     45 H                     0.078381
     46 H                     0.072989
     47 H                     0.092973
     48 H                     0.089101
     49 H                     0.090351
     50 H                     0.104606
     51 H                     0.083326
     52 H                     0.095568
     53 H                     0.082133
     54 H                     0.103402
     55 H                     0.096028
     56 H                     0.098782
  ----------------------------------------
  Sum of atomic charges =    -0.000000

                    Cartesian Multipole Moments
 -----------------------------------------------------------------
    Charge (ESU x 10^10)
                 0.0000
    Dipole Moment (Debye)
         X      -0.5146      Y       0.1290      Z      -1.6986
       Tot       1.7795
    Quadrupole Moments (Debye-Ang)
        XX    -132.7754     XY       3.0600     YY    -149.4160
        XZ       1.3623     YZ       4.3746     ZZ    -171.5816

 Total job time:  72.69s(wall), 3462.00s(cpu)
        *  Thank you very much for using Q-Chem.  Have a nice day.  *
