 Q-Chem 5.0, Q-Chem, Inc., Pleasanton, CA (2017)
 Q-Chem 5.0.1 for Intel X86 EM64T Linux

User input:
--------------------------------------------------------------
$molecule
0  1
O -3.052365518 1.5271089174 1.1504223993
C -3.9026955718 1.4144029034 0.2405127539
C -4.5647069957 0.0939402623 -0.2818433496
C -3.5175302115 -1.0752023446 -0.5285289134
C -2.0298448197 -0.6028620788 -0.3473839876
O -1.3526591343 -1.417436461 0.6141284313
C 0.0701548516 -1.0013072355 0.6763181407
C 0.8890953084 -1.5048321812 -0.5665097726
O 2.2935402377 -1.0984546195 -0.3386648553
C 2.8051307536 -0.4189001878 -1.5003392586
C 4.2892455836 -0.0291262691 -1.1997913905
C 4.3807580015 1.0206711176 -0.0084257337
C 2.9699197439 1.4730855954 0.5213613853
O 2.5445750935 1.4508033799 1.6956862668
O -4.4594292915 2.5183749418 -0.4809147131
O 2.2248817014 1.9391794276 -0.6113437318
O 2.1660930874 -0.2595951866 -2.5625727984
C 0.8601117774 2.3800400772 -0.2309943291
C 5.1169122757 -1.2355009556 -0.5801820736
C 6.6481427963 -0.840600215 -0.5795996778
C 6.7056528725 0.1658414592 0.6307079485
C 5.1906166614 0.1940716414 1.0716856668
O 4.7470956342 -1.2026810719 0.8528506373
H 4.7405939525 0.3629849914 -2.127586533
H 4.934999053 1.9230201238 -0.3258257639
H 4.8845004296 -2.2254414232 -1.0182566594
H 7.274093412 -1.7288616403 -0.3986320743
H 6.9566183095 -0.3792247613 -1.5313576211
H 7.3372104087 -0.2211695799 1.446139049
H 7.07492938 1.1622192288 0.3395440217
H 4.992729638 0.5028002258 2.1165511266
O -1.4855556732 0.3388080902 -0.9717045272
C -3.8542442104 3.7849234611 -0.0067902568
C -5.4702553872 -0.5664106786 0.8478131613
C -6.3627049435 -1.6887083827 0.1828879159
C -5.3073668137 -2.8385161564 -0.0177110609
C -3.99877023 -2.1490170429 0.53456823
O -4.4946219083 -1.3248471897 1.6617275828
H -5.1455160193 0.3272657255 -1.1910556621
H -3.6132528607 -1.4620168201 -1.560270246
H -2.7581375597 3.7986352017 -0.1762079647
H -6.0198488152 0.1599088212 1.4775400442
H -7.1696157562 -1.9950219128 0.8674829146
H -6.8122662161 -1.3527774508 -0.765218849
H -5.5572397493 -3.7245042209 0.5875351621
H -5.2062178357 -3.147338586 -1.0704901079
H -3.2013443342 -2.8352417263 0.8773307237
H -4.0450433802 3.9497101665 1.0733864419
H -4.3304593773 4.5905963085 -0.5950719138
H 0.1023607343 1.6717986817 -0.6383630506
H 0.6951184406 3.3843248187 -0.6661601706
H 0.7735447302 2.4267609396 0.8730514779
H 0.8324680719 -2.6115483347 -0.641323504
H 0.5249305422 -1.0477874979 -1.5116542664
H 0.4729923111 -1.4700050256 1.5965274809
H 0.1574143124 0.0973603743 0.7704221155
$end

$rem
JOBTYPE                   OPT
METHOD                    B3LYP
DFT_D                     d3_op
BASIS                     STO-3G
GEOM_OPT_MAX_CYCLES       100
GEOM_OPT_TOL_GRADIENT     300
GEOM_OPT_TOL_DISPLACEMENT 1200
GEOM_OPT_TOL_ENERGY       100
SYMMETRY                  False
THRESH                    12
SCF_CONVERGENCE           8
MAX_SUB_FILE_NUM          128
MEM_STATIC                400
MEM_TOTAL                 4000
$end
--------------------------------------------------------------

   16   -1510.2875824013      7.16E-09 Convergence criterion met
 Total energy in the final basis set = -1510.28758240
   14   -1510.2668128032      7.01E-09 Convergence criterion met
 Total energy in the final basis set = -1510.26681280
   14   -1510.2870290280      3.21E-09 Convergence criterion met
 Total energy in the final basis set = -1510.28702903
   14   -1510.2877860488      3.94E-09 Convergence criterion met
 Total energy in the final basis set = -1510.28778605
   14   -1510.2889271141      1.75E-09 Convergence criterion met
 Total energy in the final basis set = -1510.28892711
   14   -1510.2881831010      3.12E-09 Convergence criterion met
 Total energy in the final basis set = -1510.28818310
   13   -1510.2896454877      5.72E-09 Convergence criterion met
 Total energy in the final basis set = -1510.28964549
   14   -1510.2893726486      1.85E-09 Convergence criterion met
   11   -1510.2937617848      8.70E-09 Convergence criterion met
 Total energy in the final basis set = -1510.29376178
   11   -1510.2937469137      4.75E-09 Convergence criterion met
 Total energy in the final basis set = -1510.29374691
   10   -1510.2937488577      5.04E-09 Convergence criterion met
 Total energy in the final basis set = -1510.29374886
   10   -1510.2937573538      5.13E-09 Convergence criterion met
 Total energy in the final basis set = -1510.29375735
   10   -1510.2937400335      9.08E-09 Convergence criterion met
 Total energy in the final basis set = -1510.29374003
    9   -1510.2937379423      8.09E-09 Convergence criterion met
 Total energy in the final basis set = -1510.29373794

             Standard Nuclear Orientation (Angstroms)
    I     Atom           X                Y                Z
 ----------------------------------------------------------------
    1      O      -2.0243182320     1.3823396361     0.2632318884
    2      C      -3.2764169256     1.4224061748     0.2835443655
    3      C      -4.2650982077     0.3617480786    -0.3069292301
    4      C      -3.5234724577    -0.8857615249    -0.9439434446
    5      C      -1.9530376565    -0.7801545866    -0.8847725379
    6      O      -1.4987996321    -1.3345569339     0.3505034748
    7      C      -0.0577643558    -1.0689094013     0.5788407995
    8      C       0.8996529164    -1.8201804242    -0.4181650506
    9      O       2.2533173961    -1.2897790072    -0.1342746431
   10      C       3.0420811042    -1.1876016171    -1.3260939188
   11      C       4.3679378574    -0.4512187285    -0.9341807671
   12      C       4.0996933248     0.9604766481    -0.2565030521
   13      C       2.5770596141     1.3493667186    -0.2018326646
   14      O       1.8818929066     1.5951160981     0.8087671168
   15      O      -4.0297960050     2.4823420378     0.8685094467
   16      O       2.1122068057     1.4211833140    -1.5506926036
   17      O       2.6969013841    -1.6156008652    -2.4475810416
   18      C       0.6883498374     1.8379945804    -1.6102634191
   19      C       5.1269938883    -1.1960930797     0.2476425541
   20      C       6.5810282711    -0.5877078736     0.3718415659
   21      C       6.2791933266     0.7865872159     1.0785985511
   22      C       4.7053508311     0.7297641958     1.1883530880
   23      O       4.4353741822    -0.7020851855     1.4586781132
   24      H       4.9915223725    -0.3606981990    -1.8406173603
   25      H       4.6364737106     1.7584436296    -0.8017440116
   26      H       5.0812498796    -2.3013495576     0.1981371708
   27      H       7.2170499999    -1.2339544021     0.9975318784
   28      H       7.0624327919    -0.4635097090    -0.6113283323
   29      H       6.7336174315     0.8328215879     2.0811674582
   30      H       6.6269852371     1.6524917295     0.4931175049
   31      H       4.2488657793     1.3624839069     1.9740996754
   32      O      -1.2224649919    -0.3942149409    -1.8296543108
   33      C      -3.1146678583     3.4902844665     1.4559023789
   34      C      -5.1289654527    -0.3440118646     0.8271881601
   35      C      -6.3342930562    -1.0935072612     0.1335639791
   36      C      -5.5967378130    -2.3322718433    -0.4973242831
   37      C      -4.1053189675    -2.0620785941    -0.0502835357
   38      O      -4.2517282795    -1.4428252690     1.2878488412
   39      H      -4.9171782827     0.8673747703    -1.0421798982
   40      H      -3.8035136505    -1.0009311669    -2.0059265878
   41      H      -2.4209293166     3.9023098712     0.6951394006
   42      H      -5.4026847579     0.3218688727     1.6686395605
   43      H      -7.0775735054    -1.4032892314     0.8855148294
   44      H      -6.8343007517    -0.4642085872    -0.6199255157
   45      H      -5.9611644281    -3.2799603484    -0.0700617796
   46      H      -5.6994417434    -2.3762493345    -1.5933581778
   47      H      -3.4582419491    -2.9579631230     0.0069018197
   48      H      -2.5151957815     3.0587761771     2.2833059013
   49      H      -3.7618811885     4.2967077128     1.8466596591
   50      H       0.0247019067     0.9498674567    -1.7460827279
   51      H       0.5882878069     2.5157465123    -2.4785640792
   52      H       0.4000575791     2.3637423615    -0.6788920722
   53      H       0.8699123085    -2.9179736251    -0.2481445236
   54      H       0.6084645723    -1.6062737398    -1.4679783505
   55      H       0.1355311682    -1.4133676264     1.6143213578
   56      H       0.1515689875     0.0224172075     0.5297080119
 ----------------------------------------------------------------

    8   -1510.2937379155      9.27E-09 Convergence criterion met
 Total energy in the final basis set = -1510.29373792
 Final energy is   -1510.29373791551
 **  OPTIMIZATION CONVERGED  **

                    Orbital Energies (a.u.)
 --------------------------------------------------------------

 Alpha MOs
 -- Occupied --
-18.948 -18.930 -18.923 -18.918 -18.891 -18.890 -18.881 -18.870
-18.868 -18.863 -10.111 -10.103 -10.091 -10.089 -10.072 -10.064
-10.061 -10.060 -10.057 -10.055 -10.052 -10.044 -10.037 -10.031
-10.030 -10.029 -10.023 -10.021 -10.016 -10.015  -1.024  -1.008
 -1.003  -0.995  -0.972  -0.963  -0.947  -0.934  -0.928  -0.923
 -0.766  -0.757  -0.727  -0.721  -0.712  -0.701  -0.688  -0.669
 -0.644  -0.610  -0.594  -0.578  -0.548  -0.540  -0.539  -0.531
 -0.515  -0.504  -0.486  -0.470  -0.466  -0.456  -0.449  -0.439
 -0.436  -0.429  -0.425  -0.418  -0.413  -0.399  -0.397  -0.395
 -0.383  -0.380  -0.373  -0.363  -0.360  -0.356  -0.351  -0.341
 -0.338  -0.336  -0.334  -0.328  -0.326  -0.321  -0.319  -0.316
 -0.308  -0.304  -0.302  -0.299  -0.290  -0.284  -0.283  -0.274
 -0.268  -0.263  -0.248  -0.238  -0.236  -0.235  -0.228  -0.189
 -0.177  -0.168  -0.164  -0.157  -0.150  -0.148  -0.144  -0.141
 -0.137

          Ground-State Mulliken Net Atomic Charges

     Atom                 Charge (a.u.)
  ----------------------------------------
      1 O                    -0.206658
      2 C                     0.215702
      3 C                    -0.078392
      4 C                    -0.081339
      5 C                     0.223411
      6 O                    -0.168229
      7 C                    -0.050849
      8 C                    -0.057105
      9 O                    -0.172355
     10 C                     0.212474
     11 C                    -0.077825
     12 C                    -0.077531
     13 C                     0.212388
     14 O                    -0.219530
     15 O                    -0.167440
     16 O                    -0.176834
     17 O                    -0.210613
     18 C                    -0.151795
     19 C                     0.025959
     20 C                    -0.144138
     21 C                    -0.143870
     22 C                     0.024382
     23 O                    -0.185749
     24 H                     0.084702
     25 H                     0.083118
     26 H                     0.081831
     27 H                     0.076947
     28 H                     0.073183
     29 H                     0.076921
     30 H                     0.072417
     31 H                     0.088777
     32 O                    -0.224483
     33 C                    -0.128077
     34 C                     0.025240
     35 C                    -0.143550
     36 C                    -0.144275
     37 C                     0.026679
     38 O                    -0.186544
     39 H                     0.087575
     40 H                     0.084360
     41 H                     0.092218
     42 H                     0.086995
     43 H                     0.078781
     44 H                     0.073850
     45 H                     0.078539
     46 H                     0.073920
     47 H                     0.087982
     48 H                     0.093762
     49 H                     0.093140
     50 H                     0.109992
     51 H                     0.078421
     52 H                     0.089748
     53 H                     0.080184
     54 H                     0.105654
     55 H                     0.092773
     56 H                     0.105154
  ----------------------------------------
  Sum of atomic charges =    -0.000000

                    Cartesian Multipole Moments
 -----------------------------------------------------------------
    Charge (ESU x 10^10)
                 0.0000
    Dipole Moment (Debye)
         X      -1.8197      Y       1.3975      Z      -0.0956
       Tot       2.2965
    Quadrupole Moments (Debye-Ang)
        XX    -132.5275     XY       0.9302     YY    -150.7325
        XZ       3.6401     YZ       2.0500     ZZ    -169.1611

 Total job time:  86.71s(wall), 4132.42s(cpu)
        *  Thank you very much for using Q-Chem.  Have a nice day.  *
