 Q-Chem 5.0, Q-Chem, Inc., Pleasanton, CA (2017)
 Q-Chem 5.0.1 for Intel X86 EM64T Linux

User input:
--------------------------------------------------------------
$molecule
0  1
O -3.94934 -3.66094 2.70899
C -3.26408 -4.56952 2.26188
C -3.36658 -6.02376 2.66595
C -3.59927 -6.32435 4.1557
C -3.88083 -5.13552 5.04761
O -5.06921 -5.31364 5.6968
C -5.33886 -4.29623 6.66708
C -4.4796 -4.51277 7.90842
O -4.81141 -3.53776 8.90948
C -3.75497 -2.93188 9.50614
C -4.16832 -1.92786 10.55578
C -4.95951 -0.72393 10.02394
C -5.52213 -0.86912 8.62427
O -6.69134 -0.70079 8.30934
O -2.23676 -4.25763 1.42845
O -4.59608 -0.9233 7.62949
O -2.57957 -3.21026 9.30239
C -4.84818 -0.57495 6.31659
C -5.14595 -2.47386 11.61396
C -5.02325 -1.64986 12.89389
C -5.63423 -0.33708 12.44414
C -6.11946 -0.72436 11.04073
O -6.41903 -2.09608 11.14772
H -3.23509 -1.59394 11.06554
H -4.35883 0.2122 10.03527
H -5.00136 -3.55502 11.82976
H -5.70078 -2.12012 13.64252
H -4.00199 -1.57345 13.32519
H -6.49014 -0.10199 13.11495
H -4.93243 0.52399 12.40224
H -6.95817 -0.06289 10.73152
O -3.08745 -4.22099 5.24181
C -1.95072 -2.98137 0.99071
C -4.62425 -6.68669 2.05767
C -4.38615 -8.18536 1.89943
C -4.37963 -8.61814 3.3489
C -4.79307 -7.30521 4.03038
O -5.59285 -6.65432 3.07736
H -2.47744 -6.55008 2.24807
H -2.70856 -6.82031 4.60019
H -1.72116 -2.32226 1.85519
H -4.92944 -6.24599 1.08285
H -5.29614 -8.5989 1.40744
H -3.49071 -8.48219 1.31216
H -5.15053 -9.4096 3.48026
H -3.39865 -8.972 3.7338
H -5.27566 -7.5451 5.00241
H -2.81243 -2.56994 0.42271
H -1.06584 -3.01561 0.32265
H -3.93878 -0.75953 5.70872
H -5.10357 0.50445 6.25804
H -5.69324 -1.16061 5.90038
H -4.72797 -5.51775 8.31227
H -3.40536 -4.53434 7.63427
H -6.40338 -4.37863 6.97332
H -5.19553 -3.29019 6.23406
$end

$opt
CONSTRAINT
tors           1           2           3           4     -39.677
tors           3           4           5           6    +123.632
tors           4           5           6           7    +173.802
tors           5           6           7           8     -75.205
tors           6           7           8           9    -176.557
tors           7           8           9          10    -133.755
tors           8           9          10          11    -179.500
tors           9          10          11          12     -63.880
tors          11          12          13          14    +126.593
ENDCONSTRAINT
$end

$rem
JOBTYPE                   OPT
METHOD                    B3LYP
DFT_D                     d3_op
BASIS                     STO-3G
GEOM_OPT_MAX_CYCLES       100
GEOM_OPT_TOL_GRADIENT     300
GEOM_OPT_TOL_DISPLACEMENT 1200
GEOM_OPT_TOL_ENERGY       100
SYMMETRY                  False
THRESH                    12
SCF_CONVERGENCE           8
MAX_SUB_FILE_NUM          128
MEM_STATIC                400
MEM_TOTAL                 4000
$end
--------------------------------------------------------------

   15   -1510.1555670158      6.19E-09 Convergence criterion met
 Total energy in the final basis set = -1510.15556702
   13   -1510.2238641247      9.23E-09 Convergence criterion met
 Total energy in the final basis set = -1510.22386412
   14   -1510.2596562160      8.16E-09 Convergence criterion met
 Total energy in the final basis set = -1510.25965622
   13   -1510.2746322139      9.14E-09 Convergence criterion met
 Total energy in the final basis set = -1510.27463221
   13   -1510.2780541571      8.51E-09 Convergence criterion met
 Total energy in the final basis set = -1510.27805416
   13   -1510.2796845746      8.25E-09 Convergence criterion met
 Total energy in the final basis set = -1510.27968457
   13   -1510.2812049958      3.77E-09 Convergence criterion met
 Total energy in the final basis set = -1510.28120500
   13   -1510.2824195751      4.61E-09 Convergence criterion met
   12   -1510.2879022490      7.10E-09 Convergence criterion met
 Total energy in the final basis set = -1510.28790225
   11   -1510.2880347674      9.46E-09 Convergence criterion met
 Total energy in the final basis set = -1510.28803477
   11   -1510.2881115247      5.97E-09 Convergence criterion met
 Total energy in the final basis set = -1510.28811152
   10   -1510.2881355978      7.05E-09 Convergence criterion met
 Total energy in the final basis set = -1510.28813560
    9   -1510.2881345625      9.54E-09 Convergence criterion met
 Total energy in the final basis set = -1510.28813456
    9   -1510.2881368104      3.52E-09 Convergence criterion met
 Total energy in the final basis set = -1510.28813681

             Standard Nuclear Orientation (Angstroms)
    I     Atom           X                Y                Z
 ----------------------------------------------------------------
    1      O       3.0874473072    -1.5151430258     1.1134545386
    2      C       3.9760002520    -1.4092038718     0.2395350772
    3      C       4.5861409319    -0.0845033149    -0.3283508035
    4      C       3.4990287238     1.0521053419    -0.5389071274
    5      C       2.0279986573     0.5394517607    -0.3287157751
    6      O       1.3634387943     1.3168384312     0.6723408211
    7      C      -0.0609442113     0.9068902963     0.7386567829
    8      C      -0.8851012229     1.4676988464    -0.4752514780
    9      O      -2.2925147300     1.0679276704    -0.2560098175
   10      C      -2.8478966658     0.5302150775    -1.4696518904
   11      C      -4.3335443131     0.1414672482    -1.1731564651
   12      C      -4.4283648521    -1.0165479413    -0.0874143265
   13      C      -3.0199722871    -1.5242786108     0.3971019064
   14      O      -2.5986158358    -1.6147565667     1.5696486123
   15      O       4.6331836461    -2.5190514532    -0.3799126128
   16      O      -2.2763081428    -1.8932984138    -0.7715802999
   17      O      -2.2385535247     0.4671794713    -2.5587737640
   18      C      -0.9205881882    -2.3867186151    -0.4239096664
   19      C      -5.1287101038     1.2980797848    -0.4275790277
   20      C      -6.6685758540     0.9412020342    -0.4565097795
   21      C      -6.7420349842    -0.1903400730     0.6362077493
   22      C      -5.2272835904    -0.2899423075     1.0701708199
   23      O      -4.7556026420     1.1130067060     0.9920769699
   24      H      -4.8122449095    -0.1495646744    -2.1240203556
   25      H      -4.9886753736    -1.8819824423    -0.4868346130
   26      H      -4.8758704212     2.3217218468    -0.7654792699
   27      H      -7.2705202602     1.8183216663    -0.1706462253
   28      H      -6.9962927225     0.5959518217    -1.4501660202
   29      H      -7.3685958452     0.1142211143     1.4895072659
   30      H      -7.1252423217    -1.1434404143     0.2380820541
   31      H      -5.0357275530    -0.7058871800     2.0784167346
   32      O       1.4769614996    -0.3798397246    -0.9798455594
   33      C       4.0899935425    -3.7900828798     0.1542451422
   34      C       5.5147301222     0.6052946363     0.7646386329
   35      C       6.3382902244     1.7612048477     0.0707398682
   36      C       5.2371564349     2.8760050417    -0.0760188478
   37      C       3.9759185277     2.1346292825     0.5176220515
   38      O       4.5437197085     1.3224843266     1.6199548179
   39      H       5.1387656852    -0.3137805691    -1.2559651090
   40      H       3.5570459343     1.4484399083    -1.5697808925
   41      H       3.0023471999    -3.8816446066    -0.0427795771
   42      H       6.1154945517    -0.1037420136     1.3668875412
   43      H       7.1635744919     2.0897023623     0.7221685901
   44      H       6.7571312134     1.4458535551    -0.8983554891
   45      H       5.4798330468     3.7637806951     0.5295510001
   46      H       5.0843785986     3.1915740069    -1.1204945102
   47      H       3.1653499447     2.7866905386     0.8944040357
   48      H       4.2580353429    -3.8795410279     1.2470518289
   49      H       4.6311444281    -4.5983410811    -0.3711338135
   50      H      -0.1482919451    -1.6619720456    -0.7706139168
   51      H      -0.7711334124    -3.3567082941    -0.9358202714
   52      H      -0.8419507433    -2.5210720618     0.6736171735
   53      H      -0.8141590506     2.5760350610    -0.5062578583
   54      H      -0.5300633573     1.0496053890    -1.4415297813
   55      H      -0.4492746535     1.3417527491     1.6813849315
   56      H      -0.1576328229    -0.1945223282     0.7890231624
 ----------------------------------------------------------------

    9   -1510.2881376134      2.01E-09 Convergence criterion met
 Total energy in the final basis set = -1510.28813761
 Final energy is   -1510.28813761339
 **  OPTIMIZATION CONVERGED  **

                    Orbital Energies (a.u.)
 --------------------------------------------------------------

 Alpha MOs
 -- Occupied --
-18.939 -18.936 -18.927 -18.927 -18.888 -18.885 -18.875 -18.874
-18.874 -18.872 -10.104 -10.098 -10.097 -10.096 -10.067 -10.064
-10.062 -10.062 -10.059 -10.058 -10.055 -10.044 -10.040 -10.038
-10.036 -10.035 -10.022 -10.020 -10.019 -10.018  -1.017  -1.011
 -1.009  -1.001  -0.971  -0.967  -0.940  -0.935  -0.933  -0.931
 -0.764  -0.761  -0.727  -0.722  -0.712  -0.704  -0.691  -0.664
 -0.653  -0.613  -0.595  -0.580  -0.547  -0.543  -0.538  -0.535
 -0.513  -0.509  -0.483  -0.476  -0.465  -0.460  -0.451  -0.440
 -0.435  -0.430  -0.428  -0.413  -0.410  -0.407  -0.402  -0.397
 -0.389  -0.376  -0.372  -0.369  -0.362  -0.359  -0.355  -0.347
 -0.344  -0.341  -0.331  -0.330  -0.328  -0.325  -0.322  -0.311
 -0.308  -0.305  -0.303  -0.296  -0.292  -0.288  -0.285  -0.278
 -0.272  -0.258  -0.251  -0.244  -0.242  -0.234  -0.231  -0.184
 -0.176  -0.172  -0.165  -0.158  -0.157  -0.150  -0.149  -0.144
 -0.141

          Ground-State Mulliken Net Atomic Charges

     Atom                 Charge (a.u.)
  ----------------------------------------
      1 O                    -0.211930
      2 C                     0.210172
      3 C                    -0.078931
      4 C                    -0.078858
      5 C                     0.216461
      6 O                    -0.164413
      7 C                    -0.050076
      8 C                    -0.058353
      9 O                    -0.172349
     10 C                     0.213789
     11 C                    -0.078228
     12 C                    -0.077081
     13 C                     0.212479
     14 O                    -0.212931
     15 O                    -0.168745
     16 O                    -0.174413
     17 O                    -0.212030
     18 C                    -0.146508
     19 C                     0.026528
     20 C                    -0.144043
     21 C                    -0.143853
     22 C                     0.024098
     23 O                    -0.185418
     24 H                     0.085588
     25 H                     0.084478
     26 H                     0.082639
     27 H                     0.077662
     28 H                     0.073402
     29 H                     0.077890
     30 H                     0.072876
     31 H                     0.090013
     32 O                    -0.222113
     33 C                    -0.128517
     34 C                     0.025828
     35 C                    -0.144092
     36 C                    -0.143912
     37 C                     0.023871
     38 O                    -0.186576
     39 H                     0.087159
     40 H                     0.085131
     41 H                     0.090837
     42 H                     0.082879
     43 H                     0.078437
     44 H                     0.074111
     45 H                     0.078418
     46 H                     0.073091
     47 H                     0.093227
     48 H                     0.089261
     49 H                     0.090617
     50 H                     0.105093
     51 H                     0.083029
     52 H                     0.094952
     53 H                     0.081686
     54 H                     0.102551
     55 H                     0.096056
     56 H                     0.099062
  ----------------------------------------
  Sum of atomic charges =    -0.000000

                    Cartesian Multipole Moments
 -----------------------------------------------------------------
    Charge (ESU x 10^10)
                 0.0000
    Dipole Moment (Debye)
         X       0.6365      Y      -0.0637      Z      -1.6543
       Tot       1.7736
    Quadrupole Moments (Debye-Ang)
        XX    -132.5601     XY       2.1443     YY    -149.0524
        XZ      -1.3442     YZ      -3.7479     ZZ    -171.7544

 Total job time:  87.27s(wall), 4155.78s(cpu)
        *  Thank you very much for using Q-Chem.  Have a nice day.  *
