 Q-Chem 5.0, Q-Chem, Inc., Pleasanton, CA (2017)
 Q-Chem 5.0.1 for Intel X86 EM64T Linux

User input:
--------------------------------------------------------------
$molecule
0  1
O 3.0874473072 -1.5151430258 1.1134545386
C 3.976000252 -1.4092038718 0.2395350772
C 4.5861409319 -0.0845033149 -0.3283508035
C 3.4990287238 1.0521053419 -0.5389071274
C 2.0279986573 0.5394517607 -0.3287157751
O 1.3634387943 1.3168384312 0.6723408211
C -0.0609442113 0.9068902963 0.7386567829
C -0.8851012229 1.4676988464 -0.475251478
O -2.29251473 1.0679276704 -0.2560098175
C -2.8478966658 0.5302150775 -1.4696518904
C -4.3335443131 0.1414672482 -1.1731564651
C -4.4283648521 -1.0165479413 -0.0874143265
C -3.0199722871 -1.5242786108 0.3971019064
O -2.5986158358 -1.6147565667 1.5696486123
O 4.6331836461 -2.5190514532 -0.3799126128
O -2.2763081428 -1.8932984138 -0.7715802999
O -2.2385535247 0.4671794713 -2.558773764
C -0.9205881882 -2.3867186151 -0.4239096664
C -5.1287101038 1.2980797848 -0.4275790277
C -6.668575854 0.9412020342 -0.4565097795
C -6.7420349842 -0.190340073 0.6362077493
C -5.2272835904 -0.2899423075 1.0701708199
O -4.755602642 1.113006706 0.9920769699
H -4.8122449095 -0.1495646744 -2.1240203556
H -4.9886753736 -1.8819824423 -0.486834613
H -4.8758704212 2.3217218468 -0.7654792699
H -7.2705202602 1.8183216663 -0.1706462253
H -6.9962927225 0.5959518217 -1.4501660202
H -7.3685958452 0.1142211143 1.4895072659
H -7.1252423217 -1.1434404143 0.2380820541
H -5.035727553 -0.70588718 2.0784167346
O 1.4769614996 -0.3798397246 -0.9798455594
C 4.0899935425 -3.7900828798 0.1542451422
C 5.5147301222 0.6052946363 0.7646386329
C 6.3382902244 1.7612048477 0.0707398682
C 5.2371564349 2.8760050417 -0.0760188478
C 3.9759185277 2.1346292825 0.5176220515
O 4.5437197085 1.3224843266 1.6199548179
H 5.1387656852 -0.3137805691 -1.255965109
H 3.5570459343 1.4484399083 -1.5697808925
H 3.0023471999 -3.8816446066 -0.0427795771
H 6.1154945517 -0.1037420136 1.3668875412
H 7.1635744919 2.0897023623 0.7221685901
H 6.7571312134 1.4458535551 -0.8983554891
H 5.4798330468 3.7637806951 0.5295510001
H 5.0843785986 3.1915740069 -1.1204945102
H 3.1653499447 2.7866905386 0.8944040357
H 4.2580353429 -3.8795410279 1.2470518289
H 4.6311444281 -4.5983410811 -0.3711338135
H -0.1482919451 -1.6619720456 -0.7706139168
H -0.7711334124 -3.3567082941 -0.9358202714
H -0.8419507433 -2.5210720618 0.6736171735
H -0.8141590506 2.576035061 -0.5062578583
H -0.5300633573 1.049605389 -1.4415297813
H -0.4492746535 1.3417527491 1.6813849315
H -0.1576328229 -0.1945223282 0.7890231624
$end

$rem
JOBTYPE                   OPT
METHOD                    B3LYP
DFT_D                     d3_op
BASIS                     STO-3G
GEOM_OPT_MAX_CYCLES       100
GEOM_OPT_TOL_GRADIENT     300
GEOM_OPT_TOL_DISPLACEMENT 1200
GEOM_OPT_TOL_ENERGY       100
SYMMETRY                  False
THRESH                    12
SCF_CONVERGENCE           8
MAX_SUB_FILE_NUM          128
MEM_STATIC                400
MEM_TOTAL                 4000
$end
--------------------------------------------------------------

   16   -1510.2881753163      6.97E-09 Convergence criterion met
 Total energy in the final basis set = -1510.28817532
   14   -1510.2570433288      7.10E-09 Convergence criterion met
 Total energy in the final basis set = -1510.25704333
   14   -1510.2884106381      4.56E-09 Convergence criterion met
 Total energy in the final basis set = -1510.28841064
   14   -1510.2858617292      4.26E-09 Convergence criterion met
 Total energy in the final basis set = -1510.28586173
   14   -1510.2882645601      1.86E-09 Convergence criterion met
 Total energy in the final basis set = -1510.28826456
   14   -1510.2883247746      4.27E-09 Convergence criterion met
 Total energy in the final basis set = -1510.28832477
   13   -1510.2901865879      5.19E-09 Convergence criterion met
 Total energy in the final basis set = -1510.29018659
   13   -1510.2904288489      8.37E-09 Convergence criterion met
   12   -1510.2937102699      3.87E-09 Convergence criterion met
 Total energy in the final basis set = -1510.29371027
   12   -1510.2936710598      5.29E-09 Convergence criterion met
 Total energy in the final basis set = -1510.29367106
   12   -1510.2937118411      2.45E-09 Convergence criterion met
 Total energy in the final basis set = -1510.29371184
   11   -1510.2936962287      3.84E-09 Convergence criterion met
 Total energy in the final basis set = -1510.29369623
   11   -1510.2936862243      3.80E-09 Convergence criterion met
 Total energy in the final basis set = -1510.29368622
   11   -1510.2936785819      7.29E-09 Convergence criterion met
 Total energy in the final basis set = -1510.29367858

             Standard Nuclear Orientation (Angstroms)
    I     Atom           X                Y                Z
 ----------------------------------------------------------------
    1      O      -2.0219292225     1.3680270161     0.2032583959
    2      C      -3.2741334182     1.4014230833     0.2268671810
    3      C      -4.2579186398     0.3272789409    -0.3476637009
    4      C      -3.5099261204    -0.9368459241    -0.9434186379
    5      C      -1.9401554362    -0.8271513162    -0.8767949620
    6      O      -1.4934812694    -1.3404035748     0.3786669311
    7      C      -0.0543861077    -1.0655055736     0.6092804052
    8      C       0.9134702856    -1.8412596709    -0.3587218521
    9      O       2.2614463140    -1.2937063623    -0.0797811595
   10      C       3.0603253756    -1.2234417403    -1.2668939320
   11      C       4.3741720863    -0.4588813409    -0.8886434942
   12      C       4.0825683788     0.9718875238    -0.2608601556
   13      C       2.5551649277     1.3440809996    -0.2341708812
   14      O       1.8427860856     1.6018059853     0.7614854276
   15      O      -4.0316081852     2.4646335791     0.8004952010
   16      O       2.1087459907     1.3834359777    -1.5902962744
   17      O       2.7289446907    -1.6900030182    -2.3770754707
   18      C       0.6810353635     1.7819173608    -1.6775974906
   19      C       5.1331173866    -1.1534266068     0.3235328263
   20      C       6.5776147551    -0.5211353581     0.4395098675
   21      C       6.2507990961     0.8715613116     1.0976511903
   22      C       4.6773788498     0.7965647426     1.1961586398
   23      O       4.4242901467    -0.6290931088     1.5117148589
   24      H       5.0042077579    -0.3906316989    -1.7925438480
   25      H       4.6157004386     1.7572824266    -0.8274218142
   26      H       5.1027980618    -2.2602456189     0.3104950634
   27      H       7.2166671086    -1.1376567491     1.0915503574
   28      H       7.0661796902    -0.4230836559    -0.5430998184
   29      H       6.6956760462     0.9569018453     2.1019316496
   30      H       6.5920531858     1.7226521152     0.4871709921
   31      H       4.2055798175     1.4485144244     1.9567303880
   32      O      -1.2041039269    -0.4731459442    -1.8300025560
   33      C      -3.1201890637     3.4841510104     1.3734454640
   34      C      -5.1342177564    -0.3480819980     0.7946607242
   35      C      -6.3299685028    -1.1200865352     0.1091086053
   36      C      -5.5833901334    -2.3763201593    -0.4747513758
   37      C      -4.0974364254    -2.0883382992    -0.0210989802
   38      O      -4.2595199245    -1.4309368885     1.2967459525
   39      H      -4.9008353561     0.8144113975    -1.1032356152
   40      H      -3.7822414160    -1.0827263472    -2.0036225273
   41      H      -2.4335977612     3.8939450211     0.6050214510
   42      H      -5.4188855449     0.3410622692     1.6134401807
   43      H      -7.0822547221    -1.4079463243     0.8607690177
   44      H      -6.8212045299    -0.5148585796    -0.6694485172
   45      H      -5.9497069737    -3.3107721357    -0.0208414607
   46      H      -5.6752576988    -2.4556878801    -1.5698101204
   47      H      -3.4484511831    -2.9801970550     0.0686762293
   48      H      -2.5130338554     3.0644363296     2.2013119653
   49      H      -3.7707206526     4.2897385027     1.7604147369
   50      H       0.0274438466     0.8821686100    -1.7829339430
   51      H       0.5821616827     2.4230646209    -2.5732974521
   52      H       0.3784897732     2.3413464224    -0.7707075923
   53      H       0.8887807550    -2.9338198833    -0.1571142810
   54      H       0.6280152469    -1.6593117869    -1.4160578267
   55      H       0.1319331814    -1.3806456293     1.6552963368
   56      H       0.1542107721     0.0247562705     0.5317122375
 ----------------------------------------------------------------

    9   -1510.2936792378      8.78E-09 Convergence criterion met
 Total energy in the final basis set = -1510.29367924
 Final energy is   -1510.29367923782
 **  OPTIMIZATION CONVERGED  **

                    Orbital Energies (a.u.)
 --------------------------------------------------------------

 Alpha MOs
 -- Occupied --
-18.948 -18.930 -18.923 -18.918 -18.891 -18.890 -18.881 -18.869
-18.868 -18.862 -10.111 -10.103 -10.091 -10.089 -10.072 -10.064
-10.061 -10.059 -10.057 -10.055 -10.052 -10.044 -10.037 -10.031
-10.029 -10.029 -10.023 -10.021 -10.016 -10.015  -1.024  -1.007
 -1.003  -0.995  -0.972  -0.963  -0.947  -0.934  -0.928  -0.923
 -0.766  -0.757  -0.727  -0.721  -0.712  -0.701  -0.688  -0.669
 -0.644  -0.609  -0.594  -0.577  -0.548  -0.540  -0.539  -0.531
 -0.515  -0.504  -0.486  -0.470  -0.466  -0.455  -0.449  -0.439
 -0.436  -0.429  -0.425  -0.418  -0.413  -0.399  -0.397  -0.394
 -0.383  -0.380  -0.373  -0.363  -0.360  -0.356  -0.351  -0.341
 -0.338  -0.336  -0.334  -0.328  -0.326  -0.321  -0.319  -0.316
 -0.308  -0.304  -0.302  -0.299  -0.290  -0.284  -0.283  -0.274
 -0.268  -0.263  -0.248  -0.238  -0.236  -0.235  -0.228  -0.189
 -0.177  -0.168  -0.164  -0.157  -0.150  -0.148  -0.144  -0.141
 -0.137

          Ground-State Mulliken Net Atomic Charges

     Atom                 Charge (a.u.)
  ----------------------------------------
      1 O                    -0.206521
      2 C                     0.215862
      3 C                    -0.078338
      4 C                    -0.081381
      5 C                     0.223476
      6 O                    -0.168369
      7 C                    -0.051186
      8 C                    -0.057156
      9 O                    -0.172222
     10 C                     0.212233
     11 C                    -0.077800
     12 C                    -0.077550
     13 C                     0.212352
     14 O                    -0.219570
     15 O                    -0.167399
     16 O                    -0.176742
     17 O                    -0.210504
     18 C                    -0.151689
     19 C                     0.025931
     20 C                    -0.144131
     21 C                    -0.143871
     22 C                     0.024406
     23 O                    -0.185705
     24 H                     0.084720
     25 H                     0.083133
     26 H                     0.081849
     27 H                     0.076961
     28 H                     0.073194
     29 H                     0.076898
     30 H                     0.072430
     31 H                     0.088686
     32 O                    -0.224598
     33 C                    -0.128046
     34 C                     0.025135
     35 C                    -0.143614
     36 C                    -0.144236
     37 C                     0.026675
     38 O                    -0.186644
     39 H                     0.087554
     40 H                     0.084336
     41 H                     0.092137
     42 H                     0.087162
     43 H                     0.078780
     44 H                     0.073823
     45 H                     0.078529
     46 H                     0.073919
     47 H                     0.087926
     48 H                     0.093942
     49 H                     0.093143
     50 H                     0.110085
     51 H                     0.078519
     52 H                     0.089486
     53 H                     0.080182
     54 H                     0.105686
     55 H                     0.092569
     56 H                     0.105550
  ----------------------------------------
  Sum of atomic charges =    -0.000000

                    Cartesian Multipole Moments
 -----------------------------------------------------------------
    Charge (ESU x 10^10)
                 0.0000
    Dipole Moment (Debye)
         X      -1.8142      Y       1.4125      Z      -0.1330
       Tot       2.3031
    Quadrupole Moments (Debye-Ang)
        XX    -132.7124     XY       1.1914     YY    -150.6764
        XZ       3.9426     YZ       1.5686     ZZ    -169.1470

 Total job time:  82.59s(wall), 3932.27s(cpu)
        *  Thank you very much for using Q-Chem.  Have a nice day.  *
