 Q-Chem 5.0, Q-Chem, Inc., Pleasanton, CA (2017)
 Q-Chem 5.0.1 for Intel X86 EM64T Linux

User input:
--------------------------------------------------------------
$molecule
0  1
O 3.0650772188 -1.5250989502 1.1155038126
C 3.9360452933 -1.4290858846 0.2229225506
C 4.5599551782 -0.1116939779 -0.3468148983
C 3.4910641939 1.0481479142 -0.523035583
C 2.0150864905 0.5586531025 -0.2945458715
O 1.3746096519 1.3468741985 0.7110989478
C -0.0574810964 0.9667968984 0.8036700441
C -0.8882099997 1.5411819802 -0.3989957213
O -2.2895896159 1.1066724253 -0.2059675978
C -2.8205895718 0.5927638974 -1.4406418977
C -4.3016201894 0.1638936043 -1.1762483925
C -4.4010801911 -1.0235893861 -0.1250076043
C -2.9996245323 -1.5370134723 0.3714734469
O -2.621070039 -1.707601411 1.5498996573
O 4.5560416869 -2.5459150992 -0.4213342892
O -2.2122837573 -1.8202375714 -0.7907709126
O -2.1993090768 0.5794239768 -2.5248535175
C -0.8677657527 -2.3337801361 -0.4275447084
C -5.130413177 1.2872683451 -0.416349675
C -6.6634122824 0.9066145497 -0.4839375312
C -6.7394600786 -0.2517690281 0.5799774304
C -5.2310503863 -0.3405414512 1.0374226914
O -4.7800322534 1.0711252547 1.0045382027
H -4.7582087033 -0.1087615064 -2.1433565593
H -4.9439268041 -1.8833652017 -0.5599837519
H -4.8891506291 2.3234343605 -0.723093537
H -7.2850534746 1.7667847326 -0.1889117469
H -6.9660881855 0.5801870599 -1.4917747103
H -7.3850044045 0.0235350363 1.4290807701
H -7.1020597401 -1.2003273827 0.1527934482
H -5.0493179742 -0.7812487102 2.0370083035
O 1.4467979272 -0.3516486184 -0.9437026823
C 3.9971013349 -3.8105365623 0.1116081328
C 5.5257310197 0.550560283 0.7303992059
C 6.3531334484 1.6985821349 0.0276975251
C 5.2701643978 2.8356560973 -0.0779820747
C 4.0094791468 2.1098390876 0.5350896694
O 4.587925692 1.275697317 1.6151030145
H 5.087115828 -0.3427669185 -1.288634934
H 3.5377256728 1.4546666806 -1.5505848825
H 2.9055188304 -3.881186234 -0.0720308396
H 6.1275839496 -0.1746401265 1.31194844
H 7.2018709057 2.0041259053 0.6597976732
H 6.7394655447 1.385847745 -0.9556797904
H 5.5434518802 3.709180918 0.5351559808
H 5.0994453763 3.1701274117 -1.1137579979
H 3.219010882 2.7714349552 0.9374149577
H 4.1774105252 -3.9102870123 1.2015277274
H 4.5167066267 -4.6247795099 -0.4261366486
H -0.0855072178 -1.5977183534 -0.7273806672
H -0.7089276593 -3.2850850832 -0.9709001893
H -0.8209283322 -2.5102420582 0.6657546417
H -0.8401144085 2.6510790879 -0.4024182347
H -0.5182620735 1.155267189 -1.373351454
H -0.4187415686 1.4097426263 1.753212776
H -0.1766390412 -0.1329831759 0.8562385174
$end

$rem
JOBTYPE                   OPT
METHOD                    B3LYP
DFT_D                     d3_op
BASIS                     STO-3G
GEOM_OPT_MAX_CYCLES       100
GEOM_OPT_TOL_GRADIENT     300
GEOM_OPT_TOL_DISPLACEMENT 1200
GEOM_OPT_TOL_ENERGY       100
SYMMETRY                  False
THRESH                    12
SCF_CONVERGENCE           8
MAX_SUB_FILE_NUM          128
MEM_STATIC                400
MEM_TOTAL                 4000
$end
--------------------------------------------------------------

   16   -1510.2889252910      6.25E-09 Convergence criterion met
 Total energy in the final basis set = -1510.28892529
   14   -1510.2439408160      8.00E-09 Convergence criterion met
 Total energy in the final basis set = -1510.24394082
   14   -1510.2888711770      5.65E-09 Convergence criterion met
 Total energy in the final basis set = -1510.28887118
   14   -1510.2849958185      5.07E-09 Convergence criterion met
 Total energy in the final basis set = -1510.28499582
   14   -1510.2870304942      2.17E-09 Convergence criterion met
 Total energy in the final basis set = -1510.28703049
   14   -1510.2888382439      4.75E-09 Convergence criterion met
 Total energy in the final basis set = -1510.28883824
   13   -1510.2906750453      5.07E-09 Convergence criterion met
 Total energy in the final basis set = -1510.29067505
   13   -1510.2911115012      4.79E-09 Convergence criterion met
   11   -1510.2937128370      4.40E-09 Convergence criterion met
 Total energy in the final basis set = -1510.29371284
   10   -1510.2937126699      6.61E-09 Convergence criterion met
 Total energy in the final basis set = -1510.29371267
    9   -1510.2937114589      7.12E-09 Convergence criterion met
 Total energy in the final basis set = -1510.29371146
   10   -1510.2937067800      5.05E-09 Convergence criterion met
 Total energy in the final basis set = -1510.29370678
   10   -1510.2937054620      2.42E-09 Convergence criterion met
 Total energy in the final basis set = -1510.29370546
    9   -1510.2937067347      4.64E-09 Convergence criterion met
 Total energy in the final basis set = -1510.29370673

             Standard Nuclear Orientation (Angstroms)
    I     Atom           X                Y                Z
 ----------------------------------------------------------------
    1      O      -2.0613739145     1.4078444080     0.1608676682
    2      C      -3.3135043517     1.4217676963     0.2029118194
    3      C      -4.2891152782     0.3323365719    -0.3575317574
    4      C      -3.5318012477    -0.9357086073    -0.9328865448
    5      C      -1.9631178966    -0.8152294585    -0.8661005703
    6      O      -1.5167735270    -1.2915789725     0.4050047345
    7      C      -0.0822864969    -0.9910205993     0.6319402289
    8      C       0.8952538110    -1.7941530888    -0.3019656816
    9      O       2.2405972177    -1.2301561586    -0.0420633134
   10      C       3.0574234021    -1.2634500909    -1.2194489407
   11      C       4.3875523163    -0.5105482152    -0.8802509567
   12      C       4.1366599497     0.9520826714    -0.3151887231
   13      C       2.6217817493     1.3714174302    -0.2899763047
   14      O       1.9523545029     1.7564545815     0.6938225543
   15      O      -4.0788182309     2.4734516801     0.7868864161
   16      O       2.1347383795     1.2947775558    -1.6316025596
   17      O       2.7323048489    -1.8080746223    -2.2953896601
   18      C       0.7197344114     1.7366867214    -1.7161137030
   19      C       5.1364499717    -1.1707972389     0.3578827975
   20      C       6.5976707022    -0.5727390395     0.4389342911
   21      C       6.3109883610     0.8562194486     1.0353547203
   22      C       4.7368551875     0.8265754192     1.1447688352
   23      O       4.4483637562    -0.5764146003     1.5249879380
   24      H       5.0152827634    -0.4986338938    -1.7881332992
   25      H       4.6865587911     1.6978735860    -0.9183065544
   26      H       5.0773969705    -2.2759961145     0.3936516581
   27      H       7.2239032489    -1.1763361150     1.1150342393
   28      H       7.0835502895    -0.5310785062    -0.5490113974
   29      H       6.7642312475     0.9749736150     2.0324480633
   30      H       6.6699613255     1.6697782967     0.3851520978
   31      H       4.2860282587     1.5244783406     1.8768578213
   32      O      -1.2262240255    -0.4813891727    -1.8255597806
   33      C      -3.1755645893     3.5083388712     1.3450807737
   34      C      -5.1641219547    -0.3312290559     0.7921989369
   35      C      -6.3525269785    -1.1229455276     0.1166541374
   36      C      -5.5957078683    -2.3832129706    -0.4448477307
   37      C      -4.1129091163    -2.0766680704     0.0067651213
   38      O      -4.2826949285    -1.3995335664     1.3136013451
   39      H      -4.9326990917     0.8041955860    -1.1222894237
   40      H      -3.8015697576    -1.1000540779    -1.9909987182
   41      H      -2.5191591305     3.9402591587     0.5624739656
   42      H      -5.4555518264     0.3690932506     1.5990390080
   43      H      -7.1041304136    -1.4040249062     0.8715383441
   44      H      -6.8469619469    -0.5345968039    -0.6727855249
   45      H      -5.9557578246    -3.3125770996     0.0242334237
   46      H      -5.6850457517    -2.4817486838    -1.5385712989
   47      H      -3.4575122521    -2.9621538950     0.1120610254
   48      H      -2.5373322070     3.0959083457     2.1529332451
   49      H      -3.8337106396     4.2958061832     1.7557439450
   50      H       0.0431193705     0.8545161985    -1.8200604937
   51      H       0.6315636675     2.3842463025    -2.6087073671
   52      H       0.4417499878     2.3010457550    -0.8043447944
   53      H       0.8745956068    -2.8786934198    -0.0600629677
   54      H       0.6113880103    -1.6542685608    -1.3661070671
   55      H       0.1033923831    -1.2605325183     1.6907654026
   56      H       0.1085692657     0.0970068327     0.5090342271
 ----------------------------------------------------------------

    9   -1510.2937066791      2.55E-09 Convergence criterion met
 Total energy in the final basis set = -1510.29370668
 Final energy is   -1510.29370667907
 **  OPTIMIZATION CONVERGED  **

                    Orbital Energies (a.u.)
 --------------------------------------------------------------

 Alpha MOs
 -- Occupied --
-18.948 -18.930 -18.923 -18.917 -18.891 -18.890 -18.882 -18.870
-18.868 -18.862 -10.111 -10.103 -10.092 -10.089 -10.072 -10.064
-10.061 -10.061 -10.058 -10.055 -10.051 -10.044 -10.038 -10.031
-10.029 -10.029 -10.023 -10.021 -10.016 -10.015  -1.025  -1.008
 -1.004  -0.994  -0.973  -0.964  -0.948  -0.935  -0.928  -0.923
 -0.766  -0.757  -0.727  -0.721  -0.712  -0.701  -0.688  -0.669
 -0.643  -0.610  -0.594  -0.578  -0.549  -0.540  -0.539  -0.531
 -0.516  -0.504  -0.487  -0.470  -0.466  -0.456  -0.449  -0.439
 -0.436  -0.429  -0.425  -0.418  -0.413  -0.398  -0.397  -0.395
 -0.384  -0.381  -0.374  -0.364  -0.361  -0.356  -0.351  -0.341
 -0.338  -0.336  -0.334  -0.329  -0.326  -0.320  -0.320  -0.316
 -0.308  -0.305  -0.302  -0.299  -0.290  -0.284  -0.283  -0.275
 -0.267  -0.263  -0.248  -0.239  -0.236  -0.235  -0.228  -0.190
 -0.177  -0.168  -0.165  -0.157  -0.150  -0.148  -0.144  -0.141
 -0.137

          Ground-State Mulliken Net Atomic Charges

     Atom                 Charge (a.u.)
  ----------------------------------------
      1 O                    -0.207209
      2 C                     0.216023
      3 C                    -0.078274
      4 C                    -0.081396
      5 C                     0.223246
      6 O                    -0.168464
      7 C                    -0.050028
      8 C                    -0.056576
      9 O                    -0.172328
     10 C                     0.213349
     11 C                    -0.078034
     12 C                    -0.077634
     13 C                     0.213033
     14 O                    -0.220164
     15 O                    -0.167337
     16 O                    -0.177392
     17 O                    -0.211026
     18 C                    -0.152454
     19 C                     0.025843
     20 C                    -0.144112
     21 C                    -0.143905
     22 C                     0.024339
     23 O                    -0.186153
     24 H                     0.084740
     25 H                     0.083018
     26 H                     0.081642
     27 H                     0.076981
     28 H                     0.073234
     29 H                     0.076907
     30 H                     0.072448
     31 H                     0.089085
     32 O                    -0.223717
     33 C                    -0.128011
     34 C                     0.025061
     35 C                    -0.143648
     36 C                    -0.144206
     37 C                     0.026661
     38 O                    -0.186733
     39 H                     0.087599
     40 H                     0.084437
     41 H                     0.092137
     42 H                     0.087431
     43 H                     0.078821
     44 H                     0.073847
     45 H                     0.078579
     46 H                     0.073975
     47 H                     0.087797
     48 H                     0.094099
     49 H                     0.093248
     50 H                     0.109548
     51 H                     0.077828
     52 H                     0.090868
     53 H                     0.080418
     54 H                     0.105554
     55 H                     0.093064
     56 H                     0.103939
  ----------------------------------------
  Sum of atomic charges =    -0.000000

                    Cartesian Multipole Moments
 -----------------------------------------------------------------
    Charge (ESU x 10^10)
                 0.0000
    Dipole Moment (Debye)
         X      -1.8754      Y       1.3141      Z      -0.1623
       Tot       2.2957
    Quadrupole Moments (Debye-Ang)
        XX    -132.3858     XY       0.9219     YY    -151.2095
        XZ       3.6424     YZ       0.7930     ZZ    -168.9336

 Total job time:  92.19s(wall), 4390.10s(cpu)
        *  Thank you very much for using Q-Chem.  Have a nice day.  *
