 Q-Chem 5.0, Q-Chem, Inc., Pleasanton, CA (2017)
 Q-Chem 5.0.1 for Intel X86 EM64T Linux

User input:
--------------------------------------------------------------
$molecule
0  1
O -3.94934 -3.66094 2.70899
C -3.26408 -4.56952 2.26188
C -3.36658 -6.02376 2.66595
C -3.59927 -6.32435 4.1557
C -3.88083 -5.13552 5.04761
O -5.0584 -5.3236 5.71349
C -5.32522 -4.3058 6.68414
C -4.44701 -4.50949 7.91433
O -4.72002 -3.48695 8.88529
C -3.6288 -2.9002 9.43674
C -3.98112 -1.84385 10.45687
C -4.74258 -0.6329 9.89823
C -5.34394 -0.80961 8.51843
O -6.50076 -0.55964 8.21209
O -2.23672 -4.25759 1.42853
O -4.44089 -0.95746 7.51161
O -2.4691 -3.22921 9.21881
C -4.68928 -0.63104 6.19213
C -4.95212 -2.31527 11.5563
C -4.77051 -1.44983 12.80138
C -5.3455 -0.13334 12.31641
C -5.87732 -0.55425 10.93983
O -6.22194 -1.90952 11.10482
H -3.02501 -1.52543 10.93306
H -4.10719 0.27925 9.85896
H -4.84039 -3.39226 11.80926
H -5.44638 -1.86772 13.5819
H -3.7374 -1.39435 13.20687
H -6.17627 0.15705 12.99708
H -4.615 0.69971 12.22618
H -6.69968 0.12491 10.62528
O -3.08942 -4.21788 5.23567
C -1.95057 -2.98126 0.99105
C -4.62459 -6.68647 2.05805
C -4.38663 -8.18509 1.8994
C -4.37924 -8.6181 3.3488
C -4.79284 -7.30545 4.03078
O -5.59288 -6.65437 3.07814
H -2.47768 -6.55027 2.2478
H -2.70712 -6.81871 4.5991
H -1.72101 -2.32234 1.85568
H -4.93018 -6.24558 1.08344
H -5.29698 -8.59843 1.4079
H -3.49161 -8.48196 1.31152
H -5.14965 -9.41002 3.48031
H -3.39789 -8.9715 3.73318
H -5.27549 -7.54629 5.00248
H -2.81223 -2.56965 0.42311
H -1.06567 -3.01543 0.32301
H -3.80465 -0.89646 5.5776
H -4.87004 0.46136 6.10428
H -5.57938 -1.16852 5.80544
H -4.71308 -5.49365 8.35619
H -3.38074 -4.57215 7.61752
H -6.3858 -4.38637 7.004
H -5.19084 -3.30291 6.24252
$end

$opt
CONSTRAINT
tors           1           2           3           4     -39.677
tors           3           4           5           6    +124.624
tors           4           5           6           7    +173.802
tors           5           6           7           8     -75.205
tors           6           7           8           9    -179.925
tors           7           8           9          10    -133.755
tors           8           9          10          11    -179.500
tors           9          10          11          12     -63.706
tors          11          12          13          14    +129.743
ENDCONSTRAINT
$end

$rem
JOBTYPE                   OPT
METHOD                    B3LYP
DFT_D                     d3_op
BASIS                     STO-3G
GEOM_OPT_MAX_CYCLES       100
GEOM_OPT_TOL_GRADIENT     300
GEOM_OPT_TOL_DISPLACEMENT 1200
GEOM_OPT_TOL_ENERGY       100
SYMMETRY                  False
THRESH                    12
SCF_CONVERGENCE           8
MAX_SUB_FILE_NUM          128
MEM_STATIC                400
MEM_TOTAL                 4000
$end
--------------------------------------------------------------

   15   -1510.1547548707      6.20E-09 Convergence criterion met
 Total energy in the final basis set = -1510.15475487
   13   -1510.2231161406      8.40E-09 Convergence criterion met
 Total energy in the final basis set = -1510.22311614
   14   -1510.2590417459      6.47E-09 Convergence criterion met
 Total energy in the final basis set = -1510.25904175
   13   -1510.2742426855      8.98E-09 Convergence criterion met
 Total energy in the final basis set = -1510.27424269
   13   -1510.2777426795      8.14E-09 Convergence criterion met
 Total energy in the final basis set = -1510.27774268
   13   -1510.2795694666      8.49E-09 Convergence criterion met
 Total energy in the final basis set = -1510.27956947
   13   -1510.2811013189      3.67E-09 Convergence criterion met
 Total energy in the final basis set = -1510.28110132
   13   -1510.2824166478      4.69E-09 Convergence criterion met
   12   -1510.2884232832      5.44E-09 Convergence criterion met
 Total energy in the final basis set = -1510.28842328
   12   -1510.2886265929      4.44E-09 Convergence criterion met
 Total energy in the final basis set = -1510.28862659
   11   -1510.2887173260      6.13E-09 Convergence criterion met
 Total energy in the final basis set = -1510.28871733
   11   -1510.2888076439      7.53E-09 Convergence criterion met
 Total energy in the final basis set = -1510.28880764
   11   -1510.2888740760      8.06E-09 Convergence criterion met
 Total energy in the final basis set = -1510.28887408
   11   -1510.2889081819      6.62E-09 Convergence criterion met
 Total energy in the final basis set = -1510.28890818

             Standard Nuclear Orientation (Angstroms)
    I     Atom           X                Y                Z
 ----------------------------------------------------------------
    1      O       3.0650772188    -1.5250989502     1.1155038126
    2      C       3.9360452933    -1.4290858846     0.2229225506
    3      C       4.5599551782    -0.1116939779    -0.3468148983
    4      C       3.4910641939     1.0481479142    -0.5230355830
    5      C       2.0150864905     0.5586531025    -0.2945458715
    6      O       1.3746096519     1.3468741985     0.7110989478
    7      C      -0.0574810964     0.9667968984     0.8036700441
    8      C      -0.8882099997     1.5411819802    -0.3989957213
    9      O      -2.2895896159     1.1066724253    -0.2059675978
   10      C      -2.8205895718     0.5927638974    -1.4406418977
   11      C      -4.3016201894     0.1638936043    -1.1762483925
   12      C      -4.4010801911    -1.0235893861    -0.1250076043
   13      C      -2.9996245323    -1.5370134723     0.3714734469
   14      O      -2.6210700390    -1.7076014110     1.5498996573
   15      O       4.5560416869    -2.5459150992    -0.4213342892
   16      O      -2.2122837573    -1.8202375714    -0.7907709126
   17      O      -2.1993090768     0.5794239768    -2.5248535175
   18      C      -0.8677657527    -2.3337801361    -0.4275447084
   19      C      -5.1304131770     1.2872683451    -0.4163496750
   20      C      -6.6634122824     0.9066145497    -0.4839375312
   21      C      -6.7394600786    -0.2517690281     0.5799774304
   22      C      -5.2310503863    -0.3405414512     1.0374226914
   23      O      -4.7800322534     1.0711252547     1.0045382027
   24      H      -4.7582087033    -0.1087615064    -2.1433565593
   25      H      -4.9439268041    -1.8833652017    -0.5599837519
   26      H      -4.8891506291     2.3234343605    -0.7230935370
   27      H      -7.2850534746     1.7667847326    -0.1889117469
   28      H      -6.9660881855     0.5801870599    -1.4917747103
   29      H      -7.3850044045     0.0235350363     1.4290807701
   30      H      -7.1020597401    -1.2003273827     0.1527934482
   31      H      -5.0493179742    -0.7812487102     2.0370083035
   32      O       1.4467979272    -0.3516486184    -0.9437026823
   33      C       3.9971013349    -3.8105365623     0.1116081328
   34      C       5.5257310197     0.5505602830     0.7303992059
   35      C       6.3531334484     1.6985821349     0.0276975251
   36      C       5.2701643978     2.8356560973    -0.0779820747
   37      C       4.0094791468     2.1098390876     0.5350896694
   38      O       4.5879256920     1.2756973170     1.6151030145
   39      H       5.0871158280    -0.3427669185    -1.2886349340
   40      H       3.5377256728     1.4546666806    -1.5505848825
   41      H       2.9055188304    -3.8811862340    -0.0720308396
   42      H       6.1275839496    -0.1746401265     1.3119484400
   43      H       7.2018709057     2.0041259053     0.6597976732
   44      H       6.7394655447     1.3858477450    -0.9556797904
   45      H       5.5434518802     3.7091809180     0.5351559808
   46      H       5.0994453763     3.1701274117    -1.1137579979
   47      H       3.2190108820     2.7714349552     0.9374149577
   48      H       4.1774105252    -3.9102870123     1.2015277274
   49      H       4.5167066267    -4.6247795099    -0.4261366486
   50      H      -0.0855072178    -1.5977183534    -0.7273806672
   51      H      -0.7089276593    -3.2850850832    -0.9709001893
   52      H      -0.8209283322    -2.5102420582     0.6657546417
   53      H      -0.8401144085     2.6510790879    -0.4024182347
   54      H      -0.5182620735     1.1552671890    -1.3733514540
   55      H      -0.4187415686     1.4097426263     1.7532127760
   56      H      -0.1766390412    -0.1329831759     0.8562385174
 ----------------------------------------------------------------

    9   -1510.2889079116      9.79E-09 Convergence criterion met
 Total energy in the final basis set = -1510.28890791
 Final energy is   -1510.28890791165
 **  OPTIMIZATION CONVERGED  **

                    Orbital Energies (a.u.)
 --------------------------------------------------------------

 Alpha MOs
 -- Occupied --
-18.942 -18.936 -18.927 -18.926 -18.889 -18.885 -18.877 -18.874
-18.873 -18.872 -10.106 -10.099 -10.096 -10.096 -10.069 -10.065
-10.063 -10.063 -10.059 -10.059 -10.055 -10.041 -10.040 -10.039
-10.035 -10.034 -10.022 -10.021 -10.019 -10.017  -1.018  -1.011
 -1.009  -1.001  -0.971  -0.967  -0.942  -0.935  -0.932  -0.931
 -0.765  -0.761  -0.727  -0.722  -0.713  -0.704  -0.692  -0.664
 -0.651  -0.613  -0.596  -0.581  -0.547  -0.543  -0.539  -0.535
 -0.514  -0.508  -0.483  -0.476  -0.466  -0.460  -0.452  -0.440
 -0.436  -0.430  -0.428  -0.413  -0.410  -0.406  -0.403  -0.397
 -0.390  -0.376  -0.372  -0.369  -0.362  -0.359  -0.355  -0.346
 -0.344  -0.340  -0.332  -0.330  -0.327  -0.324  -0.322  -0.311
 -0.308  -0.305  -0.302  -0.296  -0.292  -0.288  -0.286  -0.279
 -0.272  -0.258  -0.252  -0.243  -0.241  -0.235  -0.231  -0.185
 -0.177  -0.172  -0.165  -0.158  -0.157  -0.151  -0.149  -0.144
 -0.140

          Ground-State Mulliken Net Atomic Charges

     Atom                 Charge (a.u.)
  ----------------------------------------
      1 O                    -0.212109
      2 C                     0.210241
      3 C                    -0.078897
      4 C                    -0.078705
      5 C                     0.218321
      6 O                    -0.164056
      7 C                    -0.049785
      8 C                    -0.058264
      9 O                    -0.172576
     10 C                     0.214543
     11 C                    -0.078201
     12 C                    -0.077163
     13 C                     0.212520
     14 O                    -0.213833
     15 O                    -0.168655
     16 O                    -0.174569
     17 O                    -0.212496
     18 C                    -0.149514
     19 C                     0.026509
     20 C                    -0.144109
     21 C                    -0.143810
     22 C                     0.023996
     23 O                    -0.185687
     24 H                     0.085440
     25 H                     0.084388
     26 H                     0.082456
     27 H                     0.077576
     28 H                     0.073384
     29 H                     0.077849
     30 H                     0.072881
     31 H                     0.090158
     32 O                    -0.221186
     33 C                    -0.128486
     34 C                     0.025881
     35 C                    -0.144109
     36 C                    -0.143861
     37 C                     0.023873
     38 O                    -0.186718
     39 H                     0.087301
     40 H                     0.085446
     41 H                     0.090800
     42 H                     0.083009
     43 H                     0.078517
     44 H                     0.074159
     45 H                     0.078524
     46 H                     0.073216
     47 H                     0.093228
     48 H                     0.089468
     49 H                     0.090680
     50 H                     0.107652
     51 H                     0.081369
     52 H                     0.093923
     53 H                     0.081646
     54 H                     0.102470
     55 H                     0.096026
     56 H                     0.099339
  ----------------------------------------
  Sum of atomic charges =    -0.000000

                    Cartesian Multipole Moments
 -----------------------------------------------------------------
    Charge (ESU x 10^10)
                -0.0000
    Dipole Moment (Debye)
         X       0.7284      Y       0.0175      Z      -1.7006
       Tot       1.8501
    Quadrupole Moments (Debye-Ang)
        XX    -133.1468     XY       2.0927     YY    -149.1150
        XZ      -1.1494     YZ      -2.9869     ZZ    -171.7781

 Total job time:  71.08s(wall), 3380.56s(cpu)
        *  Thank you very much for using Q-Chem.  Have a nice day.  *
