 Q-Chem 5.0, Q-Chem, Inc., Pleasanton, CA (2017)
 Q-Chem 5.0.1 for Intel X86 EM64T Linux

User input:
--------------------------------------------------------------
$molecule
0  1
O -3.9611258398 0.7182883321 1.6852226134
C -3.847721207 0.6621457076 0.4415758517
C -3.5577213892 -0.6050522941 -0.4320176834
C -2.290378281 -0.5987392985 -1.3932588807
C -1.0941451009 0.4426085826 -1.2818175446
O -0.2385194074 0.4200628393 -0.1199557413
C -0.9088681609 0.7948433948 1.1255592421
C 0.0947254539 1.226690939 2.2751458944
O 1.2248359786 2.1665022057 2.1316776539
C 2.49561018 1.6320342032 1.6537051621
C 2.9173903869 1.4313690737 0.1230247994
C 3.7486785037 0.0998954357 -0.0476419012
C 3.1567333528 -0.9929777562 0.9136835642
O 2.2986558249 -0.8037530444 1.8083492209
O -3.9698125447 1.7870911891 -0.4334061667
O 3.714755683 -2.2674635112 0.6063315473
O 3.4378640482 1.6784584612 2.4809235819
C 3.1155001626 -3.3070696793 1.4771183552
C 2.0151313399 1.4023823039 -1.1762241059
C 2.9061510463 1.9541789913 -2.3584037998
C 3.9333078316 0.7751304495 -2.5421034857
C 3.354009878 -0.2941458655 -1.5328752504
O 1.8944870213 -0.0360501574 -1.5264188221
H 3.6225231269 2.2747715402 -0.0079759655
H 4.834050257 0.2219514905 0.1156335426
H 1.0133017536 1.8551851198 -1.0916617734
H 2.2851521393 2.0873618248 -3.2588936983
H 3.3909281431 2.9132706754 -2.1159403183
H 3.9254873443 0.3817781998 -3.5709389609
H 4.9646222128 1.0654928287 -2.2838670378
H 3.5636989206 -1.3519288553 -1.7849310615
O -0.7440611495 1.1289147286 -2.2684644054
C -4.2625857427 3.0130471068 0.3455759959
C -3.3086863137 -1.9132083027 0.4331676813
C -3.7630188937 -3.1529376772 -0.4256782016
C -2.6311396524 -3.1779248008 -1.5203561499
C -1.6773412808 -2.0240787589 -1.0119599418
O -1.8344381115 -2.0512290108 0.4615627741
H -4.4529006669 -0.7428738832 -1.0676847073
H -2.6155212694 -0.5540349477 -2.4475170696
H -3.4545233957 3.2390320567 1.0712638938
H -3.7157359517 -1.8530541283 1.4616119608
H -3.7507219914 -4.0689519213 0.1864297312
H -4.770507864 -3.0248370157 -0.852632476
H -2.098575084 -4.141936718 -1.5333219172
H -3.0158841398 -2.9744673313 -2.532525051
H -0.6105160705 -2.1410879917 -1.2860528904
H -5.2192383803 2.925437507 0.8998186748
H -4.3348811955 3.8324436105 -0.3928777203
H 3.5656910532 -4.2655597923 1.1598896267
H 2.0140162414 -3.352556959 1.3550909047
H 3.3454382205 -3.1238075403 2.5465539269
H -0.5522923968 1.7031690879 3.042861521
H 0.4929554055 0.2817753689 2.7071083451
H -1.4890818599 -0.063465452 1.5338746796
H -1.6054202225 1.639048192 0.9390574133
$end

$rem
JOBTYPE                   OPT
METHOD                    B3LYP
DFT_D                     d3_op
BASIS                     STO-3G
GEOM_OPT_MAX_CYCLES       100
GEOM_OPT_TOL_GRADIENT     300
GEOM_OPT_TOL_DISPLACEMENT 1200
GEOM_OPT_TOL_ENERGY       100
SYMMETRY                  False
THRESH                    12
SCF_CONVERGENCE           8
MAX_SUB_FILE_NUM          128
MEM_STATIC                400
MEM_TOTAL                 4000
$end
--------------------------------------------------------------

   16   -1510.2184839621      3.15E-09 Convergence criterion met
 Total energy in the final basis set = -1510.21848396
   14   -1510.2215848438      9.25E-09 Convergence criterion met
 Total energy in the final basis set = -1510.22158484
   14   -1510.2270879698      8.28E-09 Convergence criterion met
 Total energy in the final basis set = -1510.22708797
   13   -1510.2334744703      6.59E-09 Convergence criterion met
 Total energy in the final basis set = -1510.23347447
   13   -1510.2382295840      5.89E-09 Convergence criterion met
 Total energy in the final basis set = -1510.23822958
   13   -1510.2434087599      9.70E-09 Convergence criterion met
 Total energy in the final basis set = -1510.24340876
   14   -1510.2483329786      5.07E-09 Convergence criterion met
 Total energy in the final basis set = -1510.24833298
   13   -1510.2529925093      8.09E-09 Convergence criterion met
   11   -1510.2873277290      3.91E-09 Convergence criterion met
 Total energy in the final basis set = -1510.28732773
   11   -1510.2873274039      3.52E-09 Convergence criterion met
 Total energy in the final basis set = -1510.28732740
   11   -1510.2873211092      4.43E-09 Convergence criterion met
 Total energy in the final basis set = -1510.28732111
    9   -1510.2873229447      7.99E-09 Convergence criterion met
 Total energy in the final basis set = -1510.28732294
   10   -1510.2873212299      9.15E-09 Convergence criterion met
 Total energy in the final basis set = -1510.28732123
   10   -1510.2873152109      6.37E-09 Convergence criterion met
 Total energy in the final basis set = -1510.28731521

             Standard Nuclear Orientation (Angstroms)
    I     Atom           X                Y                Z
 ----------------------------------------------------------------
    1      O      -4.7897203834     1.0945446311     0.4597965693
    2      C      -4.1926778062     0.2543514925    -0.2459539013
    3      C      -3.6466680437    -1.1530427935     0.1853344872
    4      C      -2.0979279776    -1.3688593296    -0.1063191846
    5      C      -1.3934436333    -0.2548214306    -1.0008669304
    6      O      -1.2507092261     1.1063215233    -0.6155329492
    7      C      -1.5376754987     1.4685041976     0.7933802753
    8      C      -0.1993702782     1.8469486824     1.5546249991
    9      O       0.9904594081     1.6902030143     0.6849419557
   10      C       1.9336121771     0.7962240070     1.2999532895
   11      C       3.2664745684     0.7807337862     0.4568604457
   12      C       3.3392978280    -0.3399390299    -0.6583184957
   13      C       2.0170052020    -1.1665387875    -0.7600506489
   14      O       1.0063567834    -1.0301980791    -0.0302820886
   15      O      -3.8908584927     0.4188265583    -1.6334884842
   16      O       2.1235519425    -2.0961631283    -1.8264633605
   17      O       1.7622380304     0.2490985414     2.4137550113
   18      C       0.8290991223    -2.8022512065    -2.0261814360
   19      C       3.4532807893     2.0868689517    -0.4274168845
   20      C       4.9716953712     2.1876902497    -0.8528274405
   21      C       5.0547919284     1.0684133778    -1.9555337913
   22      C       3.5662559352     0.5401000827    -1.9636138080
   23      O       2.7621071821     1.7522020862    -1.6939886120
   24      H       4.0941860117     0.6568710701     1.1776513964
   25      H       4.1824770879    -1.0347033796    -0.4916493441
   26      H       3.0215221216     3.0038502659     0.0163308122
   27      H       5.1866711044     3.1833507841    -1.2723528490
   28      H       5.6545133600     2.0063980166    -0.0075618375
   29      H       5.3178265561     1.4882611801    -2.9394370435
   30      H       5.7771584514     0.2752421089    -1.7051265177
   31      H       3.2374206788     0.0482257496    -2.8996312583
   32      O      -0.9784062999    -0.5478381447    -2.1529315765
   33      C      -4.2545731366     1.7798189107    -2.0887513086
   34      C      -3.6949907654    -1.3588745976     1.7525700436
   35      C      -3.5082932538    -2.8916829480     2.0688523818
   36      C      -1.9674627796    -3.0792738011     1.7956550102
   37      C      -1.5462166046    -1.6263881982     1.3603165860
   38      O      -2.4106051687    -0.7695431142     2.2156349064
   39      H      -4.2426117711    -1.9225629782    -0.3385176308
   40      H      -1.9704684974    -2.2854326339    -0.7077546038
   41      H      -3.5989393628     2.5416262626    -1.6196338674
   42      H      -4.5473967277    -0.8561631372     2.2501719332
   43      H      -3.7606714909    -3.1023795171     3.1201853141
   44      H      -4.1351216621    -3.5247205736     1.4205044447
   45      H      -1.4299481945    -3.3745557272     2.7107408617
   46      H      -1.7616313050    -3.8225154419     1.0091295379
   47      H      -0.4751959764    -1.3688610444     1.4819156301
   48      H      -5.3114654814     2.0209501053    -1.8554020256
   49      H      -4.0997047346     1.7866009539    -3.1831693710
   50      H       0.9714481707    -3.4362113550    -2.9197434562
   51      H       0.0048340796    -2.0601711914    -2.1891043483
   52      H       0.5909436881    -3.4438122956    -1.1533928592
   53      H      -0.2379853563     2.9067704032     1.8830085211
   54      H      -0.0559022350     1.1942459001     2.4438963317
   55      H      -2.0493798087     0.6532553958     1.3696452392
   56      H      -2.1936865704     2.3616014937     0.7450568369
 ----------------------------------------------------------------

    9   -1510.2873145277      4.19E-09 Convergence criterion met
 Total energy in the final basis set = -1510.28731453
 Final energy is   -1510.28731452770
 **  OPTIMIZATION CONVERGED  **

                    Orbital Energies (a.u.)
 --------------------------------------------------------------

 Alpha MOs
 -- Occupied --
-18.940 -18.937 -18.926 -18.915 -18.914 -18.882 -18.882 -18.878
-18.860 -18.854 -10.105 -10.103 -10.098 -10.087 -10.071 -10.065
-10.063 -10.055 -10.053 -10.046 -10.045 -10.043 -10.038 -10.038
-10.035 -10.030 -10.029 -10.027 -10.016 -10.015  -1.018  -1.014
 -0.998  -0.991  -0.987  -0.964  -0.942  -0.937  -0.927  -0.916
 -0.771  -0.758  -0.729  -0.718  -0.711  -0.705  -0.685  -0.664
 -0.654  -0.603  -0.598  -0.573  -0.555  -0.545  -0.539  -0.532
 -0.517  -0.505  -0.488  -0.471  -0.463  -0.457  -0.445  -0.440
 -0.435  -0.429  -0.426  -0.416  -0.411  -0.408  -0.402  -0.399
 -0.394  -0.379  -0.376  -0.363  -0.357  -0.356  -0.355  -0.349
 -0.339  -0.335  -0.334  -0.328  -0.322  -0.320  -0.316  -0.313
 -0.311  -0.306  -0.301  -0.299  -0.293  -0.286  -0.278  -0.272
 -0.270  -0.257  -0.253  -0.250  -0.235  -0.228  -0.221  -0.182
 -0.178  -0.163  -0.161  -0.160  -0.154  -0.150  -0.141  -0.139
 -0.136

          Ground-State Mulliken Net Atomic Charges

     Atom                 Charge (a.u.)
  ----------------------------------------
      1 O                    -0.211413
      2 C                     0.208076
      3 C                    -0.082968
      4 C                    -0.082759
      5 C                     0.226436
      6 O                    -0.164926
      7 C                    -0.077056
      8 C                    -0.059188
      9 O                    -0.168136
     10 C                     0.214354
     11 C                    -0.080782
     12 C                    -0.078355
     13 C                     0.221817
     14 O                    -0.219633
     15 O                    -0.167023
     16 O                    -0.167912
     17 O                    -0.228928
     18 C                    -0.146067
     19 C                     0.026904
     20 C                    -0.144636
     21 C                    -0.144006
     22 C                     0.025718
     23 O                    -0.184320
     24 H                     0.082193
     25 H                     0.085544
     26 H                     0.087711
     27 H                     0.077129
     28 H                     0.072221
     29 H                     0.077782
     30 H                     0.072593
     31 H                     0.088883
     32 O                    -0.217359
     33 C                    -0.127255
     34 C                     0.024423
     35 C                    -0.142945
     36 C                    -0.142267
     37 C                     0.018527
     38 O                    -0.184543
     39 H                     0.088128
     40 H                     0.086605
     41 H                     0.093332
     42 H                     0.093650
     43 H                     0.081211
     44 H                     0.075895
     45 H                     0.082326
     46 H                     0.075907
     47 H                     0.110027
     48 H                     0.090362
     49 H                     0.095591
     50 H                     0.084167
     51 H                     0.117036
     52 H                     0.074700
     53 H                     0.076269
     54 H                     0.096637
     55 H                     0.114676
     56 H                     0.075649
  ----------------------------------------
  Sum of atomic charges =    -0.000000

                    Cartesian Multipole Moments
 -----------------------------------------------------------------
    Charge (ESU x 10^10)
                 0.0000
    Dipole Moment (Debye)
         X      -0.3292      Y      -1.9899      Z       0.2583
       Tot       2.0335
    Quadrupole Moments (Debye-Ang)
        XX    -142.6325     XY       6.5823     YY    -150.3049
        XZ       0.2956     YZ      -0.1429     ZZ    -167.3221

 Total job time:  141.65s(wall), 6750.97s(cpu)
        *  Thank you very much for using Q-Chem.  Have a nice day.  *
