 Q-Chem 5.0, Q-Chem, Inc., Pleasanton, CA (2017)
 Q-Chem 5.0.1 for Intel X86 EM64T Linux

User input:
--------------------------------------------------------------
$molecule
0  1
O -3.94934 -3.66094 2.70899
C -3.26408 -4.56952 2.26188
C -3.36658 -6.02376 2.66595
C -2.09215 -6.69516 3.20345
C -0.90361 -5.79095 3.44399
O -1.18083 -4.92041 4.45924
C -2.21509 -3.98596 4.13315
C -2.15642 -2.78732 5.07441
O -0.80499 -2.31217 5.1781
C -0.03464 -2.94173 6.0997
C 0.60756 -4.20108 5.56841
C 0.68496 -5.36113 6.57169
C -0.18646 -5.22788 7.8044
O -0.80037 -4.22311 8.13321
O -2.46368 -4.31912 1.18717
O -0.2767 -6.33742 8.58282
O 0.36022 -2.31094 7.08333
C -1.02905 -6.41757 9.73568
C 1.66708 -4.8509 4.56231
C 3.14282 -4.99211 5.06933
C 3.02306 -6.2043 6.00141
C 1.51228 -6.47577 5.90626
O 1.31658 -6.22162 4.54693
H 1.47158 -3.52372 5.68828
H 1.47551 -4.96816 7.25533
H 1.64838 -4.34227 3.57373
H 3.79271 -5.28681 4.21526
H 3.56474 -4.07495 5.53436
H 3.55603 -7.06633 5.54054
H 3.4086 -6.05183 7.03272
H 1.20942 -7.4896 6.24261
O -0.22053 -5.44248 2.491
C -2.36615 -3.09975 0.54779
C -4.36204 -6.41413 3.79228
C -4.78088 -7.87814 3.63162
C -3.51347 -8.58673 4.08087
C -2.642 -7.38637 4.46879
O -3.58364 -6.47433 4.9674
H -3.70979 -6.5278 1.73426
H -1.71469 -7.46851 2.49657
H -2.00465 -2.31726 1.24726
H -5.25644 -5.75531 3.82434
H -5.58129 -8.08383 4.37793
H -5.14713 -8.15162 2.61879
H -3.74948 -9.18693 4.98785
H -3.0351 -9.23615 3.3163
H -1.83112 -7.69034 5.16636
H -3.35554 -2.80447 0.13812
H -1.64473 -3.18662 -0.29022
H -0.92281 -7.43294 10.1695
H -2.10104 -6.237 9.50597
H -0.67274 -5.67175 10.47806
H -2.81563 -1.96997 4.70212
H -2.52586 -3.0293 6.10474
H -3.1693 -4.31531 4.59953
H -1.756 -3.34561 3.31945
$end

$opt
CONSTRAINT
tors           1           2           3           4    -123.158
tors           3           4           5           6     +66.316
tors           4           5           6           7     -66.316
tors           5           6           7           8    -161.053
tors           6           7           8           9     +47.368
tors           7           8           9          10     -85.263
tors           8           9          10          11     +85.263
tors           9          10          11          12    -142.105
tors          11          12          13          14      -9.474
ENDCONSTRAINT
$end

$rem
JOBTYPE                   OPT
METHOD                    B3LYP
DFT_D                     d3_op
BASIS                     STO-3G
GEOM_OPT_MAX_CYCLES       100
GEOM_OPT_TOL_GRADIENT     300
GEOM_OPT_TOL_DISPLACEMENT 1200
GEOM_OPT_TOL_ENERGY       100
SYMMETRY                  False
THRESH                    12
SCF_CONVERGENCE           8
MAX_SUB_FILE_NUM          128
MEM_STATIC                400
MEM_TOTAL                 4000
$end
--------------------------------------------------------------

   16   -1509.7857087960      3.78E-09 Convergence criterion met
 Total energy in the final basis set = -1509.78570880
   14   -1509.8861202491      2.68E-09 Convergence criterion met
 Total energy in the final basis set = -1509.88612025
   13   -1509.9582530888      8.08E-09 Convergence criterion met
 Total energy in the final basis set = -1509.95825309
   14   -1510.0092792103      2.23E-09 Convergence criterion met
 Total energy in the final basis set = -1510.00927921
   14   -1510.0470418194      3.22E-09 Convergence criterion met
 Total energy in the final basis set = -1510.04704182
   13   -1510.0744707164      8.71E-09 Convergence criterion met
 Total energy in the final basis set = -1510.07447072
   13   -1510.0951716991      8.49E-09 Convergence criterion met
 Total energy in the final basis set = -1510.09517170
   13   -1510.1122277816      8.56E-09 Convergence criterion met
   11   -1510.2184232360      4.96E-09 Convergence criterion met
 Total energy in the final basis set = -1510.21842324
   11   -1510.2184424610      3.07E-09 Convergence criterion met
 Total energy in the final basis set = -1510.21844246
   11   -1510.2184539258      3.15E-09 Convergence criterion met
 Total energy in the final basis set = -1510.21845393
   10   -1510.2184594568      5.17E-09 Convergence criterion met
 Total energy in the final basis set = -1510.21845946
    9   -1510.2184624693      6.95E-09 Convergence criterion met
 Total energy in the final basis set = -1510.21846247
    9   -1510.2184643196      6.56E-09 Convergence criterion met
 Total energy in the final basis set = -1510.21846432

             Standard Nuclear Orientation (Angstroms)
    I     Atom           X                Y                Z
 ----------------------------------------------------------------
    1      O      -3.9611258398     0.7182883321     1.6852226134
    2      C      -3.8477212070     0.6621457076     0.4415758517
    3      C      -3.5577213892    -0.6050522941    -0.4320176834
    4      C      -2.2903782810    -0.5987392985    -1.3932588807
    5      C      -1.0941451009     0.4426085826    -1.2818175446
    6      O      -0.2385194074     0.4200628393    -0.1199557413
    7      C      -0.9088681609     0.7948433948     1.1255592421
    8      C       0.0947254539     1.2266909390     2.2751458944
    9      O       1.2248359786     2.1665022057     2.1316776539
   10      C       2.4956101800     1.6320342032     1.6537051621
   11      C       2.9173903869     1.4313690737     0.1230247994
   12      C       3.7486785037     0.0998954357    -0.0476419012
   13      C       3.1567333528    -0.9929777562     0.9136835642
   14      O       2.2986558249    -0.8037530444     1.8083492209
   15      O      -3.9698125447     1.7870911891    -0.4334061667
   16      O       3.7147556830    -2.2674635112     0.6063315473
   17      O       3.4378640482     1.6784584612     2.4809235819
   18      C       3.1155001626    -3.3070696793     1.4771183552
   19      C       2.0151313399     1.4023823039    -1.1762241059
   20      C       2.9061510463     1.9541789913    -2.3584037998
   21      C       3.9333078316     0.7751304495    -2.5421034857
   22      C       3.3540098780    -0.2941458655    -1.5328752504
   23      O       1.8944870213    -0.0360501574    -1.5264188221
   24      H       3.6225231269     2.2747715402    -0.0079759655
   25      H       4.8340502570     0.2219514905     0.1156335426
   26      H       1.0133017536     1.8551851198    -1.0916617734
   27      H       2.2851521393     2.0873618248    -3.2588936983
   28      H       3.3909281431     2.9132706754    -2.1159403183
   29      H       3.9254873443     0.3817781998    -3.5709389609
   30      H       4.9646222128     1.0654928287    -2.2838670378
   31      H       3.5636989206    -1.3519288553    -1.7849310615
   32      O      -0.7440611495     1.1289147286    -2.2684644054
   33      C      -4.2625857427     3.0130471068     0.3455759959
   34      C      -3.3086863137    -1.9132083027     0.4331676813
   35      C      -3.7630188937    -3.1529376772    -0.4256782016
   36      C      -2.6311396524    -3.1779248008    -1.5203561499
   37      C      -1.6773412808    -2.0240787589    -1.0119599418
   38      O      -1.8344381115    -2.0512290108     0.4615627741
   39      H      -4.4529006669    -0.7428738832    -1.0676847073
   40      H      -2.6155212694    -0.5540349477    -2.4475170696
   41      H      -3.4545233957     3.2390320567     1.0712638938
   42      H      -3.7157359517    -1.8530541283     1.4616119608
   43      H      -3.7507219914    -4.0689519213     0.1864297312
   44      H      -4.7705078640    -3.0248370157    -0.8526324760
   45      H      -2.0985750840    -4.1419367180    -1.5333219172
   46      H      -3.0158841398    -2.9744673313    -2.5325250510
   47      H      -0.6105160705    -2.1410879917    -1.2860528904
   48      H      -5.2192383803     2.9254375070     0.8998186748
   49      H      -4.3348811955     3.8324436105    -0.3928777203
   50      H       3.5656910532    -4.2655597923     1.1598896267
   51      H       2.0140162414    -3.3525569590     1.3550909047
   52      H       3.3454382205    -3.1238075403     2.5465539269
   53      H      -0.5522923968     1.7031690879     3.0428615210
   54      H       0.4929554055     0.2817753689     2.7071083451
   55      H      -1.4890818599    -0.0634654520     1.5338746796
   56      H      -1.6054202225     1.6390481920     0.9390574133
 ----------------------------------------------------------------

    9   -1510.2184654871      5.34E-09 Convergence criterion met
 Total energy in the final basis set = -1510.21846549
 Final energy is   -1510.21846548705
 **  OPTIMIZATION CONVERGED  **

                    Orbital Energies (a.u.)
 --------------------------------------------------------------

 Alpha MOs
 -- Occupied --
-18.944 -18.942 -18.910 -18.895 -18.892 -18.890 -18.884 -18.883
-18.872 -18.857 -10.110 -10.104 -10.102 -10.086 -10.072 -10.067
-10.064 -10.063 -10.062 -10.056 -10.051 -10.045 -10.040 -10.040
-10.032 -10.026 -10.024 -10.020 -10.012 -10.007  -1.021  -1.016
 -1.005  -0.980  -0.977  -0.957  -0.946  -0.939  -0.936  -0.909
 -0.767  -0.752  -0.726  -0.713  -0.711  -0.698  -0.689  -0.670
 -0.662  -0.606  -0.591  -0.574  -0.550  -0.542  -0.537  -0.527
 -0.520  -0.499  -0.484  -0.476  -0.472  -0.455  -0.445  -0.443
 -0.437  -0.426  -0.422  -0.415  -0.413  -0.410  -0.405  -0.400
 -0.384  -0.380  -0.378  -0.371  -0.369  -0.356  -0.354  -0.346
 -0.338  -0.335  -0.333  -0.332  -0.322  -0.318  -0.315  -0.311
 -0.309  -0.304  -0.302  -0.296  -0.294  -0.283  -0.279  -0.273
 -0.263  -0.261  -0.254  -0.243  -0.230  -0.221  -0.209  -0.187
 -0.181  -0.166  -0.161  -0.157  -0.154  -0.148  -0.143  -0.135
 -0.124

          Ground-State Mulliken Net Atomic Charges

     Atom                 Charge (a.u.)
  ----------------------------------------
      1 O                    -0.214126
      2 C                     0.207422
      3 C                    -0.082880
      4 C                    -0.082499
      5 C                     0.220153
      6 O                    -0.185859
      7 C                    -0.049485
      8 C                    -0.047384
      9 O                    -0.189330
     10 C                     0.218929
     11 C                    -0.082693
     12 C                    -0.075832
     13 C                     0.221447
     14 O                    -0.207280
     15 O                    -0.169344
     16 O                    -0.166977
     17 O                    -0.205353
     18 C                    -0.127910
     19 C                     0.022428
     20 C                    -0.142773
     21 C                    -0.145523
     22 C                     0.022183
     23 O                    -0.195688
     24 H                     0.080701
     25 H                     0.088982
     26 H                     0.103117
     27 H                     0.078926
     28 H                     0.070748
     29 H                     0.075668
     30 H                     0.071723
     31 H                     0.082941
     32 O                    -0.186849
     33 C                    -0.128998
     34 C                     0.021463
     35 C                    -0.142561
     36 C                    -0.144969
     37 C                     0.024239
     38 O                    -0.190762
     39 H                     0.086696
     40 H                     0.087984
     41 H                     0.089096
     42 H                     0.089763
     43 H                     0.079026
     44 H                     0.074129
     45 H                     0.078996
     46 H                     0.075185
     47 H                     0.090544
     48 H                     0.090398
     49 H                     0.094468
     50 H                     0.091452
     51 H                     0.093321
     52 H                     0.091594
     53 H                     0.084530
     54 H                     0.092913
     55 H                     0.094131
     56 H                     0.069774
  ----------------------------------------
  Sum of atomic charges =     0.000000

                    Cartesian Multipole Moments
 -----------------------------------------------------------------
    Charge (ESU x 10^10)
                 0.0000
    Dipole Moment (Debye)
         X      -2.5601      Y      -2.1614      Z      -2.0829
       Tot       3.9452
    Quadrupole Moments (Debye-Ang)
        XX    -146.9209     XY      -5.0225     YY    -150.1013
        XZ      -4.6058     YZ      -2.5990     ZZ    -169.5832

 Total job time:  109.71s(wall), 5232.53s(cpu)
        *  Thank you very much for using Q-Chem.  Have a nice day.  *
