 Q-Chem 5.0, Q-Chem, Inc., Pleasanton, CA (2017)
 Q-Chem 5.0.1 for Intel X86 EM64T Linux

User input:
--------------------------------------------------------------
$molecule
0  1
O -3.2746775427 0.6567729864 2.2480812328
C -3.3300166274 1.1169048877 1.0864641571
C -4.3998526213 0.785555379 -0.0150540816
C -3.990627588 -0.1871808019 -1.2134870504
C -2.5858096935 -0.8813997344 -1.0759041811
O -1.5285469122 -0.0215846613 -1.5780804331
C -0.5305353367 0.1990157433 -0.5104107033
C 0.577509631 -0.9319292079 -0.4101886409
O 1.9516101415 -0.38806592 -0.5391234777
C 2.2549755538 0.44866198 0.5831659119
C 3.7068548961 1.00486622 0.4173204035
C 4.8309355657 -0.1165321223 0.5027380178
C 4.2340808939 -1.5696540555 0.4753292951
O 4.2294759893 -2.3798588308 -0.4744352295
O -2.4959043384 2.1815284596 0.6093510878
O 3.5826535975 -1.7995330825 1.7325559857
O 1.4511372938 0.702800184 1.5084755592
C 2.9281367553 -3.1281216934 1.7294872088
C 4.0051280329 1.6183977896 -1.0200724626
C 5.2583141037 2.5696512119 -0.8790219821
C 6.4155542656 1.5157429109 -0.7105612635
C 5.619381381 0.1582026622 -0.8433276736
O 4.5299863838 0.4762158515 -1.7979754469
H 3.8542686756 1.7589418247 1.2103734929
H 5.4542217374 0.0108704496 1.4059893208
H 3.1253624908 2.0618182224 -1.5256118329
H 5.3893826293 3.1687660964 -1.7944469173
H 5.1710362052 3.251735458 -0.0185200348
H 7.1646594528 1.6047161489 -1.5130854855
H 6.9279924035 1.6003276589 0.2612454625
H 6.2042824692 -0.7082254916 -1.2076936427
O -2.3711336269 -1.9921250039 -0.5458543242
C -1.570125204 2.6354534997 1.6773889663
C -5.638083293 -0.0008882585 0.5970731033
C -6.8855079913 0.254543125 -0.3354672057
C -6.5079295986 -0.6257363717 -1.5841979976
C -5.1466009734 -1.2704433761 -1.1073388352
O -5.3165370787 -1.4245241073 0.3554704924
H -4.7200883421 1.7531295696 -0.442511098
H -4.0128763569 0.3639921372 -2.1710722812
H -0.7181895217 1.9349328598 1.8112316798
H -5.7952879283 0.1805394754 1.6780001884
H -7.8060928515 -0.1088808043 0.1484264193
H -7.0127907315 1.3200609134 -0.5850728458
H -7.2603644878 -1.408000785 -1.7712250201
H -6.3829104187 -0.0296441499 -2.5024353088
H -4.8946460461 -2.2440983074 -1.5700183189
H -2.0954205013 2.7441767889 2.6469682457
H -1.1830026173 3.6164821057 1.3459904233
H 2.3030829034 -3.165562991 2.6406339703
H 3.6748351465 -3.9481320262 1.7608088908
H 2.2930632866 -3.2678388525 0.8315451591
H 0.462851183 -1.4911919217 0.5420582449
H 0.4667628389 -1.6367009862 -1.2587688905
H -1.0149944201 0.3091788806 0.475917864
H -0.0393706094 1.1584329899 -0.7738398402
$end

$rem
JOBTYPE                   OPT
METHOD                    B3LYP
DFT_D                     d3_op
BASIS                     STO-3G
GEOM_OPT_MAX_CYCLES       100
GEOM_OPT_TOL_GRADIENT     300
GEOM_OPT_TOL_DISPLACEMENT 1200
GEOM_OPT_TOL_ENERGY       100
SYMMETRY                  False
THRESH                    12
SCF_CONVERGENCE           8
MAX_SUB_FILE_NUM          128
MEM_STATIC                400
MEM_TOTAL                 4000
$end
--------------------------------------------------------------

   16   -1510.2651269266      6.13E-09 Convergence criterion met
 Total energy in the final basis set = -1510.26512693
   14   -1510.2697074892      3.84E-09 Convergence criterion met
 Total energy in the final basis set = -1510.26970749
   14   -1510.2746007647      4.98E-09 Convergence criterion met
 Total energy in the final basis set = -1510.27460076
   14   -1510.2787682268      2.12E-09 Convergence criterion met
 Total energy in the final basis set = -1510.27876823
   14   -1510.2817627359      3.75E-09 Convergence criterion met
 Total energy in the final basis set = -1510.28176274
   14   -1510.2830464188      4.70E-09 Convergence criterion met
 Total energy in the final basis set = -1510.28304642
   13   -1510.2829299011      9.06E-09 Convergence criterion met
 Total energy in the final basis set = -1510.28292990
   13   -1510.2838985612      5.64E-09 Convergence criterion met
   12   -1510.2886643610      6.88E-09 Convergence criterion met
 Total energy in the final basis set = -1510.28866436
   12   -1510.2887153616      4.48E-09 Convergence criterion met
 Total energy in the final basis set = -1510.28871536
   11   -1510.2887210781      6.11E-09 Convergence criterion met
 Total energy in the final basis set = -1510.28872108
   11   -1510.2887244630      6.31E-09 Convergence criterion met
 Total energy in the final basis set = -1510.28872446
   10   -1510.2887274248      6.10E-09 Convergence criterion met
 Total energy in the final basis set = -1510.28872742
    9   -1510.2887259847      9.86E-09 Convergence criterion met
 Total energy in the final basis set = -1510.28872598

             Standard Nuclear Orientation (Angstroms)
    I     Atom           X                Y                Z
 ----------------------------------------------------------------
    1      O      -4.3140244271     1.3589378664     2.6233654449
    2      C      -4.1082376755     1.5578134131     1.4085144133
    3      C      -4.8531029931     0.9062251122     0.1888186530
    4      C      -3.8669323963     0.1748228660    -0.8186681271
    5      C      -2.3722904093     0.2649376313    -0.3569408569
    6      O      -1.6108334247     0.8601648311    -1.4157520786
    7      C      -0.2131706154     1.1065243930    -0.9829597375
    8      C       0.5974127684    -0.2256787370    -0.7475177602
    9      O       2.0577262650     0.0154137151    -0.6899700565
   10      C       2.4223485637     0.6569057952     0.5425491213
   11      C       3.9809010553     0.7975447637     0.5663996264
   12      C       4.7378715266    -0.5681817715     0.2872257682
   13      C       3.7802180619    -1.7999050086     0.1096403190
   14      O       3.7725116736    -2.6327297316    -0.8203000486
   15      O      -3.1240588268     2.4617838206     0.8859499937
   16      O       2.9102095649    -1.8513538484     1.2500421558
   17      O       1.6072435429     1.0535081077     1.4028962876
   18      C       1.9793668110    -2.9966979426     1.1315672544
   19      C       4.5081010646     1.6702305519    -0.6558197170
   20      C       6.0184816871     2.0487830294    -0.3835330916
   21      C       6.7391165306     0.6856933378    -0.7024041345
   22      C       5.5040692712    -0.2311417253    -1.0572811326
   23      O       4.5835196358     0.6913727170    -1.7624836672
   24      H       4.2671952528     1.2335876523     1.5391224144
   25      H       5.4423187329    -0.7952584014     1.1086583668
   26      H       3.8525685768     2.5189063401    -0.9324776701
   27      H       6.3437392184     2.8487546990    -1.0675822110
   28      H       6.1806808077     2.3836726273     0.6535027320
   29      H       7.4137343368     0.7791162969    -1.5682302887
   30      H       7.3119172582     0.2957279738     0.1538717922
   31      H       5.7190445535    -1.1181735021    -1.6846518185
   32      O      -1.8936242794    -0.1217782578     0.7324393250
   33      C      -2.2690359260     2.9745978814     1.9805632118
   34      C      -5.7664409579    -0.2992849311     0.6555924551
   35      C      -6.7598488102    -0.6570839251    -0.5177559385
   36      C      -5.7888223112    -1.3754171115    -1.5277555957
   37      C      -4.4224241508    -1.3140484229    -0.7350555689
   38      O      -4.8309746803    -1.4482863039     0.6802034047
   39      H      -5.4353090218     1.6895054858    -0.3305529798
   40      H      -3.9444372468     0.5867455047    -1.8397194021
   41      H      -1.5870908209     2.1800018935     2.3495907737
   42      H      -6.2245474853    -0.1547177324     1.6532907470
   43      H      -7.5480014394    -1.3394203064    -0.1613363844
   44      H      -7.2359653942     0.2385316225    -0.9480909621
   45      H      -6.0861938624    -2.4218647356    -1.7011561448
   46      H      -5.7266429638    -0.8597307241    -2.4993898971
   47      H      -3.6856150717    -2.0963223567    -1.0021392401
   48      H      -2.8735490976     3.3493927994     2.8305280756
   49      H      -1.6741545916     3.8000096093     1.5483515095
   50      H       1.2106744914    -2.8519394817     1.9130719410
   51      H       2.5024929522    -3.9602094950     1.3024958062
   52      H       1.4989054515    -3.0312998784     0.1333792799
   53      H       0.2252576379    -0.6942469690     0.1876306925
   54      H       0.4441521661    -0.9165234297    -1.6007210350
   55      H      -0.1908348050     1.7015500273    -0.0458020511
   56      H       0.2512293265     1.6894886822    -1.8034621421
 ----------------------------------------------------------------

    9   -1510.2887263961      5.43E-09 Convergence criterion met
 Total energy in the final basis set = -1510.28872640
 Final energy is   -1510.28872639609
 **  OPTIMIZATION CONVERGED  **

                    Orbital Energies (a.u.)
 --------------------------------------------------------------

 Alpha MOs
 -- Occupied --
-18.934 -18.933 -18.931 -18.931 -18.888 -18.887 -18.877 -18.875
-18.874 -18.871 -10.100 -10.099 -10.099 -10.098 -10.068 -10.066
-10.062 -10.062 -10.060 -10.059 -10.057 -10.057 -10.038 -10.037
-10.037 -10.036 -10.021 -10.020 -10.020 -10.019  -1.016  -1.013
 -1.006  -1.004  -0.970  -0.969  -0.938  -0.936  -0.935  -0.934
 -0.765  -0.762  -0.728  -0.723  -0.710  -0.705  -0.693  -0.661
 -0.659  -0.618  -0.597  -0.583  -0.547  -0.546  -0.538  -0.537
 -0.512  -0.509  -0.485  -0.474  -0.466  -0.459  -0.451  -0.441
 -0.433  -0.430  -0.429  -0.414  -0.410  -0.409  -0.405  -0.391
 -0.388  -0.380  -0.374  -0.366  -0.362  -0.354  -0.353  -0.352
 -0.347  -0.343  -0.333  -0.332  -0.328  -0.326  -0.325  -0.310
 -0.310  -0.306  -0.304  -0.299  -0.293  -0.289  -0.285  -0.275
 -0.272  -0.262  -0.252  -0.252  -0.240  -0.234  -0.233  -0.191
 -0.176  -0.175  -0.165  -0.156  -0.156  -0.148  -0.148  -0.144
 -0.143

          Ground-State Mulliken Net Atomic Charges

     Atom                 Charge (a.u.)
  ----------------------------------------
      1 O                    -0.205867
      2 C                     0.214347
      3 C                    -0.078500
      4 C                    -0.079072
      5 C                     0.211764
      6 O                    -0.169716
      7 C                    -0.054052
      8 C                    -0.056081
      9 O                    -0.170068
     10 C                     0.213112
     11 C                    -0.078830
     12 C                    -0.078163
     13 C                     0.215644
     14 O                    -0.211977
     15 O                    -0.174751
     16 O                    -0.174072
     17 O                    -0.213124
     18 C                    -0.129521
     19 C                     0.025733
     20 C                    -0.144004
     21 C                    -0.143777
     22 C                     0.024637
     23 O                    -0.186095
     24 H                     0.085601
     25 H                     0.084492
     26 H                     0.081089
     27 H                     0.077877
     28 H                     0.073838
     29 H                     0.078220
     30 H                     0.073260
     31 H                     0.090786
     32 O                    -0.217053
     33 C                    -0.131218
     34 C                     0.024545
     35 C                    -0.143976
     36 C                    -0.143811
     37 C                     0.025421
     38 O                    -0.186604
     39 H                     0.084920
     40 H                     0.086486
     41 H                     0.096008
     42 H                     0.090658
     43 H                     0.078280
     44 H                     0.073064
     45 H                     0.077971
     46 H                     0.073594
     47 H                     0.081881
     48 H                     0.092248
     49 H                     0.088588
     50 H                     0.093794
     51 H                     0.086294
     52 H                     0.091167
     53 H                     0.101710
     54 H                     0.088316
     55 H                     0.095783
     56 H                     0.089202
  ----------------------------------------
  Sum of atomic charges =     0.000000

                    Cartesian Multipole Moments
 -----------------------------------------------------------------
    Charge (ESU x 10^10)
                -0.0000
    Dipole Moment (Debye)
         X       0.5536      Y       1.3568      Z      -1.1167
       Tot       1.8424
    Quadrupole Moments (Debye-Ang)
        XX    -139.8573     XY       2.2096     YY    -154.4035
        XZ      16.6699     YZ      -0.0648     ZZ    -169.1922

 Total job time:  89.75s(wall), 4271.30s(cpu)
        *  Thank you very much for using Q-Chem.  Have a nice day.  *
