 Q-Chem 5.0, Q-Chem, Inc., Pleasanton, CA (2017)
 Q-Chem 5.0.1 for Intel X86 EM64T Linux

User input:
--------------------------------------------------------------
$molecule
0  1
O -3.94934 -3.66094 2.70899
C -3.26408 -4.56952 2.26188
C -3.36658 -6.02376 2.66595
C -2.27333 -6.57303 3.59705
C -1.29943 -5.56331 4.16282
O -0.28167 -5.35325 3.27656
C -0.13785 -3.97981 2.89944
C 0.72753 -3.24326 3.91666
O 1.8542 -2.64372 3.25785
C 1.55838 -1.64416 2.39037
C 2.78299 -1.05565 1.73108
C 3.73266 -0.30876 2.67899
C 3.52022 -0.55796 4.15868
O 4.22392 -1.26358 4.86682
O -2.48166 -4.32176 1.17604
O 2.43003 0.03934 4.70772
O 0.42217 -1.27483 2.11964
C 2.08246 -0.05195 6.039
C 3.72914 -2.08124 1.08722
C 4.55237 -1.39813 -0.00504
C 5.467 -0.52778 0.83344
C 5.05814 -0.97468 2.24253
O 4.6944 -2.32554 2.0791
H 2.40671 -0.36156 0.94468
H 3.76143 0.79247 2.52489
H 3.19956 -2.97079 0.68169
H 5.16486 -2.18684 -0.49745
H 3.96357 -0.85731 -0.77726
H 6.51953 -0.81855 0.61992
H 5.33959 0.56824 0.69723
H 5.8857 -0.77589 2.95891
O -1.62357 -4.73757 5.0096
C -2.43786 -3.11641 0.50054
C -4.61441 -6.28689 3.54005
C -4.99641 -7.7669 3.47845
C -3.89884 -8.37382 4.32397
C -3.14653 -7.11024 4.74886
O -4.157 -6.13931 4.85946
H -3.48931 -6.6097 1.72736
H -1.68199 -7.39463 3.13351
H -2.14213 -2.28983 1.18069
H -5.49034 -5.66505 3.25102
H -5.96495 -7.89042 4.0138
H -5.08968 -8.18079 2.4511
H -4.36585 -8.84994 5.21506
H -3.24322 -9.10444 3.80322
H -2.5573 -7.30597 5.67213
H -3.43236 -2.88807 0.06355
H -1.69106 -3.18508 -0.31673
H 1.15296 0.52786 6.21272
H 2.89076 0.37108 6.67351
H 1.90173 -1.1122 6.3169
H 0.14853 -2.50718 4.51896
H 1.15287 -3.97995 4.63163
H -1.08032 -3.41785 2.83021
H 0.35147 -3.98549 1.90178
$end

$opt
CONSTRAINT
tors           1           2           3           4    -104.211
tors           3           4           5           6     -85.263
tors           4           5           6           7    +123.158
tors           5           6           7           8     +85.263
tors           6           7           8           9    +123.158
tors           7           8           9          10     +66.316
tors           8           9          10          11    -180.000
tors           9          10          11          12     -66.316
tors          11          12          13          14    +104.211
ENDCONSTRAINT
$end

$rem
JOBTYPE                   OPT
METHOD                    B3LYP
DFT_D                     d3_op
BASIS                     STO-3G
GEOM_OPT_MAX_CYCLES       100
GEOM_OPT_TOL_GRADIENT     300
GEOM_OPT_TOL_DISPLACEMENT 1200
GEOM_OPT_TOL_ENERGY       100
SYMMETRY                  False
THRESH                    12
SCF_CONVERGENCE           8
MAX_SUB_FILE_NUM          128
MEM_STATIC                400
MEM_TOTAL                 4000
$end
--------------------------------------------------------------

   15   -1510.1335196854      6.12E-09 Convergence criterion met
 Total energy in the final basis set = -1510.13351969
   14   -1510.2042575320      7.45E-09 Convergence criterion met
 Total energy in the final basis set = -1510.20425753
   15   -1510.2418015237      1.29E-09 Convergence criterion met
 Total energy in the final basis set = -1510.24180152
   14   -1510.2574837534      9.10E-09 Convergence criterion met
 Total energy in the final basis set = -1510.25748375
   14   -1510.2612087132      7.09E-09 Convergence criterion met
 Total energy in the final basis set = -1510.26120871
   14   -1510.2635577045      5.90E-09 Convergence criterion met
 Total energy in the final basis set = -1510.26355770
   13   -1510.2644554884      4.22E-09 Convergence criterion met
 Total energy in the final basis set = -1510.26445549
   13   -1510.2647838013      2.34E-09 Convergence criterion met
   11   -1510.2650558418      3.34E-09 Convergence criterion met
 Total energy in the final basis set = -1510.26505584
   11   -1510.2650617763      2.92E-09 Convergence criterion met
 Total energy in the final basis set = -1510.26506178
    9   -1510.2650649078      7.12E-09 Convergence criterion met
 Total energy in the final basis set = -1510.26506491
    9   -1510.2650664672      8.96E-09 Convergence criterion met
 Total energy in the final basis set = -1510.26506647
    9   -1510.2650682951      7.78E-09 Convergence criterion met
 Total energy in the final basis set = -1510.26506830
   10   -1510.2650694361      2.82E-09 Convergence criterion met
 Total energy in the final basis set = -1510.26506944

             Standard Nuclear Orientation (Angstroms)
    I     Atom           X                Y                Z
 ----------------------------------------------------------------
    1      O      -3.2746775427     0.6567729864     2.2480812328
    2      C      -3.3300166274     1.1169048877     1.0864641571
    3      C      -4.3998526213     0.7855553790    -0.0150540816
    4      C      -3.9906275880    -0.1871808019    -1.2134870504
    5      C      -2.5858096935    -0.8813997344    -1.0759041811
    6      O      -1.5285469122    -0.0215846613    -1.5780804331
    7      C      -0.5305353367     0.1990157433    -0.5104107033
    8      C       0.5775096310    -0.9319292079    -0.4101886409
    9      O       1.9516101415    -0.3880659200    -0.5391234777
   10      C       2.2549755538     0.4486619800     0.5831659119
   11      C       3.7068548961     1.0048662200     0.4173204035
   12      C       4.8309355657    -0.1165321223     0.5027380178
   13      C       4.2340808939    -1.5696540555     0.4753292951
   14      O       4.2294759893    -2.3798588308    -0.4744352295
   15      O      -2.4959043384     2.1815284596     0.6093510878
   16      O       3.5826535975    -1.7995330825     1.7325559857
   17      O       1.4511372938     0.7028001840     1.5084755592
   18      C       2.9281367553    -3.1281216934     1.7294872088
   19      C       4.0051280329     1.6183977896    -1.0200724626
   20      C       5.2583141037     2.5696512119    -0.8790219821
   21      C       6.4155542656     1.5157429109    -0.7105612635
   22      C       5.6193813810     0.1582026622    -0.8433276736
   23      O       4.5299863838     0.4762158515    -1.7979754469
   24      H       3.8542686756     1.7589418247     1.2103734929
   25      H       5.4542217374     0.0108704496     1.4059893208
   26      H       3.1253624908     2.0618182224    -1.5256118329
   27      H       5.3893826293     3.1687660964    -1.7944469173
   28      H       5.1710362052     3.2517354580    -0.0185200348
   29      H       7.1646594528     1.6047161489    -1.5130854855
   30      H       6.9279924035     1.6003276589     0.2612454625
   31      H       6.2042824692    -0.7082254916    -1.2076936427
   32      O      -2.3711336269    -1.9921250039    -0.5458543242
   33      C      -1.5701252040     2.6354534997     1.6773889663
   34      C      -5.6380832930    -0.0008882585     0.5970731033
   35      C      -6.8855079913     0.2545431250    -0.3354672057
   36      C      -6.5079295986    -0.6257363717    -1.5841979976
   37      C      -5.1466009734    -1.2704433761    -1.1073388352
   38      O      -5.3165370787    -1.4245241073     0.3554704924
   39      H      -4.7200883421     1.7531295696    -0.4425110980
   40      H      -4.0128763569     0.3639921372    -2.1710722812
   41      H      -0.7181895217     1.9349328598     1.8112316798
   42      H      -5.7952879283     0.1805394754     1.6780001884
   43      H      -7.8060928515    -0.1088808043     0.1484264193
   44      H      -7.0127907315     1.3200609134    -0.5850728458
   45      H      -7.2603644878    -1.4080007850    -1.7712250201
   46      H      -6.3829104187    -0.0296441499    -2.5024353088
   47      H      -4.8946460461    -2.2440983074    -1.5700183189
   48      H      -2.0954205013     2.7441767889     2.6469682457
   49      H      -1.1830026173     3.6164821057     1.3459904233
   50      H       2.3030829034    -3.1655629910     2.6406339703
   51      H       3.6748351465    -3.9481320262     1.7608088908
   52      H       2.2930632866    -3.2678388525     0.8315451591
   53      H       0.4628511830    -1.4911919217     0.5420582449
   54      H       0.4667628389    -1.6367009862    -1.2587688905
   55      H      -1.0149944201     0.3091788806     0.4759178640
   56      H      -0.0393706094     1.1584329899    -0.7738398402
 ----------------------------------------------------------------

    9   -1510.2650701488      5.75E-09 Convergence criterion met
 Total energy in the final basis set = -1510.26507015
 Final energy is   -1510.26507014882
 **  OPTIMIZATION CONVERGED  **

                    Orbital Energies (a.u.)
 --------------------------------------------------------------

 Alpha MOs
 -- Occupied --
-18.937 -18.936 -18.931 -18.913 -18.896 -18.888 -18.888 -18.881
-18.876 -18.875 -10.105 -10.103 -10.102 -10.097 -10.070 -10.067
-10.062 -10.062 -10.062 -10.059 -10.059 -10.058 -10.042 -10.040
-10.039 -10.038 -10.021 -10.021 -10.020 -10.020  -1.017  -1.015
 -1.009  -1.006  -0.970  -0.970  -0.941  -0.939  -0.936  -0.934
 -0.765  -0.763  -0.727  -0.723  -0.711  -0.706  -0.694  -0.664
 -0.661  -0.616  -0.599  -0.587  -0.548  -0.548  -0.539  -0.538
 -0.514  -0.512  -0.483  -0.470  -0.466  -0.461  -0.451  -0.441
 -0.432  -0.431  -0.430  -0.415  -0.414  -0.411  -0.404  -0.401
 -0.394  -0.382  -0.373  -0.367  -0.361  -0.358  -0.354  -0.352
 -0.349  -0.343  -0.338  -0.333  -0.332  -0.330  -0.327  -0.314
 -0.309  -0.307  -0.306  -0.304  -0.297  -0.288  -0.278  -0.276
 -0.276  -0.257  -0.254  -0.251  -0.244  -0.234  -0.234  -0.190
 -0.181  -0.175  -0.164  -0.159  -0.156  -0.154  -0.149  -0.144
 -0.144

          Ground-State Mulliken Net Atomic Charges

     Atom                 Charge (a.u.)
  ----------------------------------------
      1 O                    -0.207498
      2 C                     0.201402
      3 C                    -0.079567
      4 C                    -0.078149
      5 C                     0.212450
      6 O                    -0.187108
      7 C                    -0.048327
      8 C                    -0.052550
      9 O                    -0.166681
     10 C                     0.206917
     11 C                    -0.079890
     12 C                    -0.077576
     13 C                     0.210764
     14 O                    -0.205912
     15 O                    -0.170915
     16 O                    -0.173899
     17 O                    -0.219358
     18 C                    -0.129995
     19 C                     0.026388
     20 C                    -0.143181
     21 C                    -0.144830
     22 C                     0.025478
     23 O                    -0.183538
     24 H                     0.084350
     25 H                     0.085505
     26 H                     0.082887
     27 H                     0.078163
     28 H                     0.073229
     29 H                     0.078480
     30 H                     0.073249
     31 H                     0.088593
     32 O                    -0.188541
     33 C                    -0.134731
     34 C                     0.024892
     35 C                    -0.143576
     36 C                    -0.144829
     37 C                     0.025120
     38 O                    -0.185731
     39 H                     0.086801
     40 H                     0.086865
     41 H                     0.096273
     42 H                     0.088906
     43 H                     0.078606
     44 H                     0.072941
     45 H                     0.078543
     46 H                     0.073255
     47 H                     0.086484
     48 H                     0.092576
     49 H                     0.089226
     50 H                     0.091450
     51 H                     0.086795
     52 H                     0.091904
     53 H                     0.089760
     54 H                     0.098540
     55 H                     0.089689
     56 H                     0.089898
  ----------------------------------------
  Sum of atomic charges =     0.000000

                    Cartesian Multipole Moments
 -----------------------------------------------------------------
    Charge (ESU x 10^10)
                 0.0000
    Dipole Moment (Debye)
         X       0.1585      Y       3.0424      Z       0.0467
       Tot       3.0469
    Quadrupole Moments (Debye-Ang)
        XX    -140.7769     XY      -1.3725     YY    -156.2937
        XZ      14.5338     YZ      -0.7366     ZZ    -166.5837

 Total job time:  68.31s(wall), 3248.49s(cpu)
        *  Thank you very much for using Q-Chem.  Have a nice day.  *
