 Q-Chem 5.0, Q-Chem, Inc., Pleasanton, CA (2017)
 Q-Chem 5.0.1 for Intel X86 EM64T Linux

User input:
--------------------------------------------------------------
$molecule
0  1
O 2.065730365 1.1259369215 3.0252502554
C 3.126050569 0.0325564226 2.3986124159
C 2.7808489911 0.9054976823 0.271352663
C 2.2086241003 -1.0191345997 -0.2623427184
C 2.0009839834 -2.0883383675 0.5720680879
O 1.6108652663 -3.3668983882 -0.1335159838
C 0.0568933993 -3.320010364 -0.2167237917
C -1.0639618079 -2.4778002422 -0.8724144781
O -0.8977979902 -1.0055950367 -0.6601848034
C -1.2855664368 -0.2801800417 -1.824552375
C -2.400708689 0.792860791 -1.5812662316
C -3.4575575418 0.5814164481 -0.4194122871
C -3.3636918873 -0.7754184154 0.3535559071
O -3.5952626293 -1.9164889513 -0.1202269649
O 4.349730429 0.2971879319 2.219958479
O -2.9900077601 -0.552058554 1.7102280186
O -0.7896275257 -0.5260923724 -2.9479963002
C -2.8419511305 -1.818364128 2.4484145745
C -1.6977326229 2.158756042 -1.0894570743
C -2.6658026543 3.3590778689 -1.3865923915
C -3.7749158794 3.1251101129 -0.2981306408
C -3.1984392966 1.8683477965 0.4700051732
O -1.7372843863 2.0456810777 0.3814483381
H -2.8918624373 0.9453777942 -2.5619417439
H -4.4708250894 0.6177814062 -0.8679265506
H -0.6325075922 2.2274181582 -1.4087100936
H -2.1446860889 4.321136263 -1.2391304494
H -3.0642272276 3.3335799903 -2.4189846738
H -3.871596438 3.9882893093 0.3823346853
H -4.768132701 2.9211725898 -0.7397043224
H -3.5189196918 1.7614073275 1.5279791339
O 2.6869535245 -2.2742063638 1.5917141365
C 4.8137172679 0.2835981344 3.5984271912
C 2.2419010347 1.7358258502 -0.4141879566
C 3.2904868037 1.8105144455 -1.6269680749
C 2.9045193061 0.5043295109 -2.4137140406
C 1.6242808393 -0.0486700505 -1.5797370271
O 1.0433035776 1.2093685046 -1.0754193029
H 3.8743702527 0.392823252 0.3327159821
H 3.2121522238 -1.1027582131 -0.685890006
H 4.3082719823 -0.5411115999 4.1480754888
H 2.0353163466 2.6726536479 0.1065163339
H 3.114300332 2.7161098901 -2.2251696325
H 4.3508710621 1.8181514504 -1.2910630645
H 2.6186706513 0.7327748116 -3.4546866502
H 3.7393969503 -0.2247138946 -2.4483177497
H 0.9048907122 -0.586675437 -2.2167283585
H 4.587020542 1.2484757694 4.1028380197
H 5.9037610301 0.110535805 3.5626480055
H -2.607898065 -1.5450892037 3.4943147174
H -2.010797823 -2.4319373975 2.0396209216
H -3.7741289767 -2.4246708063 2.4235517131
H -1.1146468064 -2.6732037169 -1.9526802608
H -2.0234451896 -2.7725795533 -0.3555094359
H -0.2399199806 -3.437919874 0.8828007371
H -0.1091554226 -4.3759519569 -0.6150268195
$end

$rem
JOBTYPE                   OPT
METHOD                    B3LYP
DFT_D                     d3_op
BASIS                     STO-3G
GEOM_OPT_MAX_CYCLES       100
GEOM_OPT_TOL_GRADIENT     300
GEOM_OPT_TOL_DISPLACEMENT 1200
GEOM_OPT_TOL_ENERGY       100
SYMMETRY                  False
THRESH                    12
SCF_CONVERGENCE           8
MAX_SUB_FILE_NUM          128
MEM_STATIC                400
MEM_TOTAL                 4000
$end
--------------------------------------------------------------

   22   -1509.5872742916      6.29E-09 Convergence criterion met
 Total energy in the final basis set = -1509.58727429
   18   -1509.7422586222      7.14E-09 Convergence criterion met
 Total energy in the final basis set = -1509.74225862
   17   -1509.8530354199      4.53E-09 Convergence criterion met
 Total energy in the final basis set = -1509.85303542
   17   -1509.9570854136      5.72E-09 Convergence criterion met
 Total energy in the final basis set = -1509.95708541
   16   -1510.0283290641      5.18E-09 Convergence criterion met
 Total energy in the final basis set = -1510.02832906
   15   -1510.0883287047      9.19E-09 Convergence criterion met
 Total energy in the final basis set = -1510.08832870
   15   -1510.1319390694      6.34E-09 Convergence criterion met
 Total energy in the final basis set = -1510.13193907
   14   -1510.1653930008      4.70E-09 Convergence criterion met
   10   -1510.3018137884      9.56E-09 Convergence criterion met
 Total energy in the final basis set = -1510.30181379
   10   -1510.3018231302      4.74E-09 Convergence criterion met
 Total energy in the final basis set = -1510.30182313
   11   -1510.3018399219      4.62E-09 Convergence criterion met
 Total energy in the final basis set = -1510.30183992
   11   -1510.3018426144      2.68E-09 Convergence criterion met
 Total energy in the final basis set = -1510.30184261
   11   -1510.3018472512      1.52E-09 Convergence criterion met
 Total energy in the final basis set = -1510.30184725
   10   -1510.3018512404      8.54E-09 Convergence criterion met
 Total energy in the final basis set = -1510.30185124

             Standard Nuclear Orientation (Angstroms)
    I     Atom           X                Y                Z
 ----------------------------------------------------------------
    1      O       1.5025920001     2.0893328379     1.6149665582
    2      C       2.4621797849     1.5606966601     1.0140500111
    3      C       2.8244314413     1.7280680500    -0.5107732650
    4      C       2.3959705811     0.5052615213    -1.4216029645
    5      C       1.7742064715    -0.6899491403    -0.6287854989
    6      O       1.5946575239    -1.7690212281    -1.5529625250
    7      C       0.8787747306    -2.8967856212    -0.9136623690
    8      C      -0.6505970797    -2.8315818443    -1.2637280120
    9      O      -1.3066128597    -1.7690465210    -0.4720252740
   10      C      -1.5994783480    -0.6143841745    -1.2699424722
   11      C      -2.3086275108     0.4405174942    -0.3603089047
   12      C      -3.1473243435    -0.1842470369     0.8324478688
   13      C      -3.4419736871    -1.7195634356     0.6703402638
   14      O      -4.1031152165    -2.2511247117    -0.2509080279
   15      O       3.4938416250     0.7896711498     1.6414700176
   16      O      -2.9227999094    -2.4415640524     1.7983199206
   17      O      -1.2612104467    -0.4969540180    -2.4699250575
   18      C      -3.1892161878    -3.8883434688     1.6410463346
   19      C      -1.1856947715     1.2266981780     0.4528106858
   20      C      -1.8474540339     2.4370912794     1.2193772125
   21      C      -2.5331282046     1.7094883443     2.4337428019
   22      C      -2.2336673480     0.2032944647     2.0767586091
   23      O      -0.8601794901     0.2582743939     1.5231981717
   24      H      -2.9112489197     1.1067455963    -1.0022104333
   25      H      -4.1272535196     0.3242315317     0.8982149757
   26      H      -0.3020832869     1.5131776427    -0.1716544401
   27      H      -1.0631544069     3.1348137368     1.5530358051
   28      H      -2.5667996801     2.9833131237     0.5883030031
   29      H      -2.0501934037     1.9775298104     3.3869229559
   30      H      -3.6119358885     1.9197248164     2.5110989808
   31      H      -2.2872770429    -0.5149294019     2.9164960001
   32      O       1.4752373048    -0.7353417130     0.5847367642
   33      C       3.1132832863     0.5126937236     3.0449024584
   34      C       1.9655323674     2.8908906804    -1.1538202578
   35      C       2.5687047951     3.2668655596    -2.5626127642
   36      C       2.0827967759     2.0534364179    -3.4432209652
   37      C       1.3170727399     1.1857072290    -2.3745884402
   38      O       0.6947400270     2.2089143182    -1.5016737527
   39      H       3.9098734929     1.9140851842    -0.5948127055
   40      H       3.2460306581     0.1203996790    -2.0126650655
   41      H       2.1546343749    -0.0436532826     3.0913801780
   42      H       1.7659947618     3.7389882857    -0.4708557618
   43      H       2.1492409509     4.2200417228    -2.9217353910
   44      H       3.6664637154     3.3537388066    -2.5291625571
   45      H       1.3931480177     2.3819830933    -4.2372284107
   46      H       2.9165434765     1.5002819687    -3.9041757096
   47      H       0.5338131028     0.4958539977    -2.7586260064
   48      H       3.0113423843     1.4470379186     3.6342606406
   49      H       3.9266966594    -0.1052425710     3.4676511327
   50      H      -3.7491865227    -4.2501556943     2.5254231055
   51      H      -2.2248860982    -4.4300072382     1.5737433503
   52      H      -3.7834687471    -4.0497109201     0.7179132015
   53      H      -0.7811163911    -2.6231511000    -2.3477555104
   54      H      -1.1397797897    -3.7904090292    -0.9930999020
   55      H       1.0118889102    -2.8541142425     0.1888046009
   56      H       1.3169993182    -3.8314424426    -1.3204070371
 ----------------------------------------------------------------

   10   -1510.3018517779      4.93E-09 Convergence criterion met
 Total energy in the final basis set = -1510.30185178
 Final energy is   -1510.30185177786
 **  OPTIMIZATION CONVERGED  **

                    Orbital Energies (a.u.)
 --------------------------------------------------------------

 Alpha MOs
 -- Occupied --
-18.938 -18.936 -18.921 -18.918 -18.902 -18.887 -18.876 -18.865
-18.860 -18.856 -10.103 -10.100 -10.090 -10.089 -10.074 -10.073
-10.063 -10.059 -10.050 -10.050 -10.040 -10.039 -10.035 -10.025
-10.024 -10.024 -10.023 -10.022 -10.001  -9.997  -1.021  -1.011
 -0.997  -0.996  -0.979  -0.948  -0.943  -0.937  -0.922  -0.922
 -0.765  -0.749  -0.727  -0.717  -0.707  -0.697  -0.687  -0.651
 -0.648  -0.616  -0.591  -0.576  -0.546  -0.540  -0.528  -0.517
 -0.511  -0.502  -0.486  -0.470  -0.459  -0.453  -0.451  -0.436
 -0.433  -0.423  -0.416  -0.413  -0.406  -0.401  -0.399  -0.398
 -0.392  -0.377  -0.367  -0.363  -0.354  -0.352  -0.351  -0.346
 -0.342  -0.335  -0.332  -0.329  -0.326  -0.319  -0.313  -0.307
 -0.303  -0.302  -0.291  -0.290  -0.287  -0.284  -0.274  -0.273
 -0.259  -0.253  -0.243  -0.242  -0.235  -0.232  -0.210  -0.191
 -0.167  -0.163  -0.161  -0.157  -0.157  -0.152  -0.143  -0.140
 -0.122

          Ground-State Mulliken Net Atomic Charges

     Atom                 Charge (a.u.)
  ----------------------------------------
      1 O                    -0.213798
      2 C                     0.215708
      3 C                    -0.082196
      4 C                    -0.079857
      5 C                     0.210548
      6 O                    -0.174285
      7 C                    -0.053251
      8 C                    -0.052242
      9 O                    -0.165734
     10 C                     0.216488
     11 C                    -0.079488
     12 C                    -0.079076
     13 C                     0.216779
     14 O                    -0.231060
     15 O                    -0.174728
     16 O                    -0.170376
     17 O                    -0.220587
     18 C                    -0.136501
     19 C                     0.009048
     20 C                    -0.144965
     21 C                    -0.143703
     22 C                     0.023733
     23 O                    -0.187110
     24 H                     0.084818
     25 H                     0.081130
     26 H                     0.108827
     27 H                     0.081865
     28 H                     0.067498
     29 H                     0.075218
     30 H                     0.067571
     31 H                     0.088276
     32 O                    -0.194036
     33 C                    -0.128538
     34 C                     0.026451
     35 C                    -0.143950
     36 C                    -0.142596
     37 C                     0.019426
     38 O                    -0.187063
     39 H                     0.084860
     40 H                     0.088095
     41 H                     0.099671
     42 H                     0.089701
     43 H                     0.079249
     44 H                     0.074672
     45 H                     0.080832
     46 H                     0.075179
     47 H                     0.103383
     48 H                     0.084829
     49 H                     0.085000
     50 H                     0.082453
     51 H                     0.079856
     52 H                     0.099857
     53 H                     0.102044
     54 H                     0.089120
     55 H                     0.104475
     56 H                     0.088479
  ----------------------------------------
  Sum of atomic charges =     0.000000

                    Cartesian Multipole Moments
 -----------------------------------------------------------------
    Charge (ESU x 10^10)
                 0.0000
    Dipole Moment (Debye)
         X       1.9311      Y      -0.5791      Z      -0.4821
       Tot       2.0729
    Quadrupole Moments (Debye-Ang)
        XX    -155.8189     XY       0.8901     YY    -146.6245
        XZ      -7.6721     YZ      -3.7607     ZZ    -158.7305

 Total job time:  227.24s(wall), 10844.81s(cpu)
        *  Thank you very much for using Q-Chem.  Have a nice day.  *
