 Q-Chem 5.0, Q-Chem, Inc., Pleasanton, CA (2017)
 Q-Chem 5.0.1 for Intel X86 EM64T Linux

User input:
--------------------------------------------------------------
$molecule
0  1
O -2.9378562856 1.0735399459 1.9325958363
C -3.7477645766 1.2974061732 1.0079821166
C -4.3791854391 0.2797556793 -0.0005610652
C -3.3420361177 -0.3834120578 -1.011866107
C -1.8594728971 0.02983186 -0.7360171311
O -1.473142338 0.9938056614 -1.7360152559
C -0.2838472527 1.7516723163 -1.2873888526
C 0.8991150547 1.6277272733 -2.3237165326
O 1.8054333308 0.4643168622 -2.2352226847
C 1.92760037 -0.0675653931 -0.8843151589
C 3.0188218009 0.684136409 -0.0344892703
C 3.5518485938 -0.083377869 1.2400767839
C 3.2621446598 -1.6266151868 1.27845801
O 2.9578239123 -2.2964097687 2.2896993885
O -4.2544107259 2.6035101654 0.6922716843
O 3.6014980076 -2.2006670995 0.0109141157
O 1.2793974243 -1.0696926947 -0.5224329975
C 3.355556635 -3.6590118359 0.0362893374
C 4.3680277559 1.007014211 -0.811606058
C 5.0058514223 2.2771662796 -0.125708148
C 5.4650385903 1.6643467875 1.2501333805
C 5.1185232801 0.134788267 1.0433644253
O 5.2913825113 -0.0778982032 -0.4126838134
H 2.5497272501 1.636196146 0.2803305783
H 3.1792440106 0.3595815334 2.1799214877
H 4.2556221633 1.0510663207 -1.9124244259
H 5.8658122696 2.6379594063 -0.7124080121
H 4.2843286321 3.1013564944 -0.0087268408
H 6.5459774844 1.7975462892 1.4146504942
H 4.9221314013 2.0945724601 2.1068821458
H 5.7528872222 -0.5699725943 1.6154184488
O -1.1277765821 -0.3205787031 0.2133662555
C -3.6723909255 3.6058103229 1.6141678768
C -4.9497173126 -1.0145984664 0.7295112249
C -5.9616554199 -1.7191702518 -0.2564323273
C -4.9700481401 -2.3557342305 -1.3002996404
C -3.5739246863 -1.9245398922 -0.6990810797
O -3.7967863927 -1.9395683332 0.763799637
H -5.1708630044 0.8093531711 -0.5591955868
H -3.5901430998 -0.1236364448 -2.0559876535
H -2.5654797535 3.6296158571 1.5460751068
H -5.3304709007 -0.834098635 1.7533078875
H -6.5404765233 -2.4919223892 0.2742391489
H -6.6629326772 -1.0043855862 -0.7155816071
H -5.0569751673 -3.4534986258 -1.3255756468
H -5.1189105762 -1.9653857374 -2.3198244477
H -2.7195185202 -2.5763921355 -0.9652250706
H -3.9527673315 3.403906066 2.6682266405
H -4.0835468275 4.5837354232 1.3031232918
H 3.6956914585 -4.0420013049 -0.9434011725
H 2.2771558989 -3.8839098534 0.1676267637
H 3.9220816208 -4.15689899 0.8496408074
H 0.4724140382 1.6038338719 -3.349571176
H 1.5000574445 2.5649819581 -2.2331501095
H 0.0189066928 1.3961434394 -0.2787154423
H -0.5764447959 2.8226559462 -1.2331348074
$end

$rem
JOBTYPE                   OPT
METHOD                    B3LYP
DFT_D                     d3_op
BASIS                     STO-3G
GEOM_OPT_MAX_CYCLES       100
GEOM_OPT_TOL_GRADIENT     300
GEOM_OPT_TOL_DISPLACEMENT 1200
GEOM_OPT_TOL_ENERGY       100
SYMMETRY                  False
THRESH                    12
SCF_CONVERGENCE           8
MAX_SUB_FILE_NUM          128
MEM_STATIC                400
MEM_TOTAL                 4000
$end
--------------------------------------------------------------

   16   -1510.2518957497      5.59E-09 Convergence criterion met
 Total energy in the final basis set = -1510.25189575
   14   -1510.2554947748      9.85E-09 Convergence criterion met
 Total energy in the final basis set = -1510.25549477
   13   -1510.2582736437      6.62E-09 Convergence criterion met
 Total energy in the final basis set = -1510.25827364
   14   -1510.2607325899      3.05E-09 Convergence criterion met
 Total energy in the final basis set = -1510.26073259
   13   -1510.2629594608      7.09E-09 Convergence criterion met
 Total energy in the final basis set = -1510.26295946
   14   -1510.2649576715      4.08E-09 Convergence criterion met
 Total energy in the final basis set = -1510.26495767
   13   -1510.2666781612      7.93E-09 Convergence criterion met
 Total energy in the final basis set = -1510.26667816
   13   -1510.2680704882      3.35E-09 Convergence criterion met
   12   -1510.2801903534      4.97E-09 Convergence criterion met
 Total energy in the final basis set = -1510.28019035
   11   -1510.2801958861      3.85E-09 Convergence criterion met
 Total energy in the final basis set = -1510.28019589
   11   -1510.2801985267      3.65E-09 Convergence criterion met
 Total energy in the final basis set = -1510.28019853
   12   -1510.2802152595      8.58E-09 Convergence criterion met
 Total energy in the final basis set = -1510.28021526
   10   -1510.2802166558      7.82E-09 Convergence criterion met
 Total energy in the final basis set = -1510.28021666
   11   -1510.2802224540      4.74E-09 Convergence criterion met
 Total energy in the final basis set = -1510.28022245

             Standard Nuclear Orientation (Angstroms)
    I     Atom           X                Y                Z
 ----------------------------------------------------------------
    1      O      -3.5546757429     0.8372332374     2.6338455788
    2      C      -3.5919875409     1.0380722715     1.4027962936
    3      C      -3.8084557100    -0.0127449701     0.2581324694
    4      C      -2.6808655518     0.0411612126    -0.8550054870
    5      C      -1.5782572314     1.1140298474    -0.5863229146
    6      O      -1.4955780796     1.9856919884    -1.7327776378
    7      C      -0.2900217901     2.8359834821    -1.6167553074
    8      C       0.8682177957     2.2062436627    -2.4927768610
    9      O       0.7880606908     0.7284576420    -2.5016365935
   10      C       1.2326613294     0.0502126221    -1.3177900512
   11      C       2.2004726655     0.7793187098    -0.3179860153
   12      C       2.4693731140    -0.0568468656     1.0012572068
   13      C       1.6933509125    -1.4263224927     1.0872405259
   14      O       0.5898154258    -1.6108436686     1.6437128170
   15      O      -3.4475608403     2.3300759232     0.7912834243
   16      O       2.5163516883    -2.4735265917     0.5514556742
   17      O       0.8714676333    -1.1467233482    -1.2032086068
   18      C       1.7599939323    -3.7441832459     0.5618869233
   19      C       3.6762787942     0.8906535068    -0.9121579459
   20      C       4.4655533367     1.9585635973    -0.0565398985
   21      C       4.7269168783     1.1476607894     1.2662195407
   22      C       4.0432430505    -0.2352600036     0.9213924890
   23      O       4.2982632256    -0.3933404109    -0.5306517025
   24      H       1.7923444872     1.7699592178    -0.0619607726
   25      H       2.1684172259     0.5352728604     1.8836122140
   26      H       3.7265213480     1.0307548508    -2.0096429420
   27      H       5.4078671628     2.2298782403    -0.5587021996
   28      H       3.8783582994     2.8757958445     0.1122791926
   29      H       5.8047319319     1.0101181949     1.4475290912
   30      H       4.2771764971     1.6238362418     2.1522165137
   31      H       4.4332098783    -1.1090135285     1.4770835569
   32      O      -0.8194457964     1.2040314809     0.4047833015
   33      C      -3.1071610748     3.3400580804     1.8174590275
   34      C      -3.6342293917    -1.4915833451     0.7973413127
   35      C      -4.2092257950    -2.4905274899    -0.2827176551
   36      C      -3.0763790762    -2.4404633276    -1.3758795024
   37      C      -2.0620745594    -1.4231924674    -0.7224487876
   38      O      -2.1705452616    -1.7040257388     0.7257469601
   39      H      -4.8064900075     0.1543815048    -0.1878526509
   40      H      -3.1041210568     0.2255566873    -1.8575749546
   41      H      -2.1141587089     3.1320434558     2.2668708472
   42      H      -3.9966904277    -1.6353521374     1.8337180051
   43      H      -4.3138695461    -3.5002985592     0.1448722581
   44      H      -5.1889580939    -2.1672944508    -0.6697851337
   45      H      -2.5991074633    -3.4245863399    -1.5074314264
   46      H      -3.4438396848    -2.0938560870    -2.3551051781
   47      H      -1.0005767276    -1.4999985875    -1.0533238762
   48      H      -3.8625049807     3.3723873562     2.6286776653
   49      H      -3.0804314494     4.3134367545     1.2940915555
   50      H       2.4485908251    -4.5146438818     0.1686666494
   51      H       0.8627792778    -3.6803433798    -0.0873446101
   52      H       1.4341877943    -4.0218459758     1.5854548484
   53      H       0.7210733102     2.4877685154    -3.5550714054
   54      H       1.8571735256     2.5886296084    -2.1641700806
   55      H       0.0076802256     2.8848176955    -0.5474748779
   56      H      -0.5419608755     3.8476721839    -1.9931505952
 ----------------------------------------------------------------

    9   -1510.2802228940      7.15E-09 Convergence criterion met
 Total energy in the final basis set = -1510.28022289
 Final energy is   -1510.28022289403
 **  OPTIMIZATION CONVERGED  **

                    Orbital Energies (a.u.)
 --------------------------------------------------------------

 Alpha MOs
 -- Occupied --
-18.945 -18.933 -18.929 -18.909 -18.893 -18.890 -18.875 -18.873
-18.872 -18.850 -10.114 -10.098 -10.095 -10.087 -10.079 -10.076
-10.066 -10.062 -10.057 -10.046 -10.043 -10.042 -10.038 -10.031
-10.029 -10.029 -10.025 -10.020 -10.009 -10.007  -1.023  -1.011
 -1.004  -0.987  -0.971  -0.956  -0.949  -0.934  -0.932  -0.912
 -0.763  -0.754  -0.722  -0.722  -0.710  -0.707  -0.692  -0.658
 -0.644  -0.619  -0.599  -0.582  -0.548  -0.539  -0.536  -0.528
 -0.512  -0.503  -0.484  -0.475  -0.463  -0.458  -0.445  -0.442
 -0.437  -0.431  -0.423  -0.419  -0.409  -0.406  -0.403  -0.399
 -0.393  -0.387  -0.373  -0.363  -0.357  -0.350  -0.347  -0.344
 -0.342  -0.335  -0.332  -0.329  -0.323  -0.321  -0.321  -0.312
 -0.309  -0.301  -0.296  -0.293  -0.290  -0.281  -0.275  -0.267
 -0.263  -0.255  -0.249  -0.245  -0.238  -0.231  -0.217  -0.187
 -0.175  -0.171  -0.160  -0.156  -0.152  -0.148  -0.145  -0.129
 -0.127

          Ground-State Mulliken Net Atomic Charges

     Atom                 Charge (a.u.)
  ----------------------------------------
      1 O                    -0.205392
      2 C                     0.214431
      3 C                    -0.078423
      4 C                    -0.078803
      5 C                     0.214158
      6 O                    -0.168817
      7 C                    -0.058757
      8 C                    -0.049692
      9 O                    -0.167884
     10 C                     0.220170
     11 C                    -0.082811
     12 C                    -0.078456
     13 C                     0.213361
     14 O                    -0.207977
     15 O                    -0.174466
     16 O                    -0.172393
     17 O                    -0.193168
     18 C                    -0.127007
     19 C                     0.021982
     20 C                    -0.144112
     21 C                    -0.144378
     22 C                     0.026331
     23 O                    -0.184654
     24 H                     0.083909
     25 H                     0.086130
     26 H                     0.079835
     27 H                     0.078135
     28 H                     0.070204
     29 H                     0.078186
     30 H                     0.074566
     31 H                     0.090010
     32 O                    -0.221088
     33 C                    -0.129202
     34 C                     0.024356
     35 C                    -0.144498
     36 C                    -0.144200
     37 C                     0.015482
     38 O                    -0.180441
     39 H                     0.083311
     40 H                     0.085907
     41 H                     0.090783
     42 H                     0.088263
     43 H                     0.076458
     44 H                     0.070017
     45 H                     0.076659
     46 H                     0.071111
     47 H                     0.102878
     48 H                     0.090241
     49 H                     0.087324
     50 H                     0.084772
     51 H                     0.091535
     52 H                     0.085852
     53 H                     0.094511
     54 H                     0.083429
     55 H                     0.093847
     56 H                     0.088477
  ----------------------------------------
  Sum of atomic charges =     0.000000

                    Cartesian Multipole Moments
 -----------------------------------------------------------------
    Charge (ESU x 10^10)
                 0.0000
    Dipole Moment (Debye)
         X       0.5614      Y       3.9515      Z      -1.6442
       Tot       4.3166
    Quadrupole Moments (Debye-Ang)
        XX    -151.7485     XY       7.3824     YY    -145.1125
        XZ       6.3070     YZ      -1.2590     ZZ    -164.0133

 Total job time:  150.34s(wall), 7174.41s(cpu)
        *  Thank you very much for using Q-Chem.  Have a nice day.  *
