 Q-Chem 5.0, Q-Chem, Inc., Pleasanton, CA (2017)
 Q-Chem 5.0.1 for Intel X86 EM64T Linux

User input:
--------------------------------------------------------------
$molecule
0  1
O -3.94934 -3.66094 2.70899
C -3.26408 -4.56952 2.26188
C -3.36658 -6.02376 2.66595
C -2.97353 -6.38153 4.10864
C -2.69204 -5.22192 5.03825
O -1.34516 -5.09296 5.22456
C -0.9658 -3.8038 5.71791
C -0.19309 -3.94769 7.02494
O -1.10882 -4.02944 8.1284
C -2.29502 -3.39684 7.94984
C -2.23769 -1.92904 8.30048
C -3.60116 -1.27157 8.55919
C -4.76109 -2.22119 8.78164
O -5.90211 -2.05369 8.37594
O -2.38255 -4.28984 1.26598
O -4.58156 -3.17978 9.73648
O -3.29728 -4.05994 7.753
C -5.55577 -4.06134 10.15735
C -1.53508 -1.62432 9.64808
C -1.02054 -0.18497 9.64103
C -2.32473 0.58085 9.72878
C -3.30954 -0.58063 9.90467
O -2.56961 -1.55657 10.59486
H -1.65985 -1.42359 7.49533
H -3.90081 -0.5469 7.77027
H -0.70068 -2.31657 9.89099
H -0.45942 -0.03852 10.59211
H -0.36477 0.08922 8.78683
H -2.29598 1.21998 10.63905
H -2.57698 1.19493 8.83719
H -4.24038 -0.2328 10.40553
O -3.52884 -4.35792 5.26839
C -2.1682 -3.02924 0.74925
C -4.81952 -6.52979 2.63581
C -4.84304 -8.05305 2.50621
C -4.39368 -8.46228 3.89421
C -4.26287 -7.09014 4.56238
O -5.27641 -6.32667 3.95131
H -2.74905 -6.60475 1.94305
H -2.09966 -7.07293 4.13394
H -1.80566 -2.34588 1.54685
H -5.4241 -6.06347 1.82701
H -5.90376 -8.36434 2.37264
H -4.23234 -8.45624 1.66989
H -5.21703 -9.03674 4.3745
H -3.45004 -9.04801 3.93626
H -4.32341 -7.18973 5.66892
H -3.10772 -2.63022 0.31053
H -1.39887 -3.08865 -0.04766
H -5.13041 -4.7285 10.9347
H -5.90312 -4.6819 9.30377
H -6.41351 -3.50584 10.59293
H 0.50241 -4.81348 7.00953
H 0.41099 -3.02609 7.17505
H -1.71329 -2.98272 5.65364
H -0.21046 -3.45429 4.98177
$end

$opt
CONSTRAINT
tors           1           2           3           4     -66.316
tors           3           4           5           6    -104.211
tors           4           5           6           7    +161.053
tors           5           6           7           8    +123.158
tors           6           7           8           9     -85.263
tors           7           8           9          10     -28.421
tors           8           9          10          11     -85.263
tors           9          10          11          12    -161.053
tors          11          12          13          14    -142.105
ENDCONSTRAINT
$end

$rem
JOBTYPE                   OPT
METHOD                    B3LYP
DFT_D                     d3_op
BASIS                     STO-3G
GEOM_OPT_MAX_CYCLES       100
GEOM_OPT_TOL_GRADIENT     300
GEOM_OPT_TOL_DISPLACEMENT 1200
GEOM_OPT_TOL_ENERGY       100
SYMMETRY                  False
THRESH                    12
SCF_CONVERGENCE           8
MAX_SUB_FILE_NUM          128
MEM_STATIC                400
MEM_TOTAL                 4000
$end
--------------------------------------------------------------

   15   -1510.1117916306      6.29E-09 Convergence criterion met
 Total energy in the final basis set = -1510.11179163
   14   -1510.1845548091      8.33E-09 Convergence criterion met
 Total energy in the final basis set = -1510.18455481
   14   -1510.2225440958      8.32E-09 Convergence criterion met
 Total energy in the final basis set = -1510.22254410
   14   -1510.2410039584      7.24E-09 Convergence criterion met
 Total energy in the final basis set = -1510.24100396
   14   -1510.2477181498      5.92E-09 Convergence criterion met
 Total energy in the final basis set = -1510.24771815
   13   -1510.2504448269      9.29E-09 Convergence criterion met
 Total energy in the final basis set = -1510.25044483
   13   -1510.2515091473      7.57E-09 Convergence criterion met
 Total energy in the final basis set = -1510.25150915
   12   -1510.2517734053      8.91E-09 Convergence criterion met
   10   -1510.2518686457      8.77E-09 Convergence criterion met
 Total energy in the final basis set = -1510.25186865
   11   -1510.2518769382      2.11E-09 Convergence criterion met
 Total energy in the final basis set = -1510.25187694
   10   -1510.2518839599      8.87E-09 Convergence criterion met
 Total energy in the final basis set = -1510.25188396
   10   -1510.2518876301      5.37E-09 Convergence criterion met
 Total energy in the final basis set = -1510.25188763
   10   -1510.2518893011      3.35E-09 Convergence criterion met
 Total energy in the final basis set = -1510.25188930
   10   -1510.2518975221      2.76E-09 Convergence criterion met
 Total energy in the final basis set = -1510.25189752

             Standard Nuclear Orientation (Angstroms)
    I     Atom           X                Y                Z
 ----------------------------------------------------------------
    1      O      -2.9378562856     1.0735399459     1.9325958363
    2      C      -3.7477645766     1.2974061732     1.0079821166
    3      C      -4.3791854391     0.2797556793    -0.0005610652
    4      C      -3.3420361177    -0.3834120578    -1.0118661070
    5      C      -1.8594728971     0.0298318600    -0.7360171311
    6      O      -1.4731423380     0.9938056614    -1.7360152559
    7      C      -0.2838472527     1.7516723163    -1.2873888526
    8      C       0.8991150547     1.6277272733    -2.3237165326
    9      O       1.8054333308     0.4643168622    -2.2352226847
   10      C       1.9276003700    -0.0675653931    -0.8843151589
   11      C       3.0188218009     0.6841364090    -0.0344892703
   12      C       3.5518485938    -0.0833778690     1.2400767839
   13      C       3.2621446598    -1.6266151868     1.2784580100
   14      O       2.9578239123    -2.2964097687     2.2896993885
   15      O      -4.2544107259     2.6035101654     0.6922716843
   16      O       3.6014980076    -2.2006670995     0.0109141157
   17      O       1.2793974243    -1.0696926947    -0.5224329975
   18      C       3.3555566350    -3.6590118359     0.0362893374
   19      C       4.3680277559     1.0070142110    -0.8116060580
   20      C       5.0058514223     2.2771662796    -0.1257081480
   21      C       5.4650385903     1.6643467875     1.2501333805
   22      C       5.1185232801     0.1347882670     1.0433644253
   23      O       5.2913825113    -0.0778982032    -0.4126838134
   24      H       2.5497272501     1.6361961460     0.2803305783
   25      H       3.1792440106     0.3595815334     2.1799214877
   26      H       4.2556221633     1.0510663207    -1.9124244259
   27      H       5.8658122696     2.6379594063    -0.7124080121
   28      H       4.2843286321     3.1013564944    -0.0087268408
   29      H       6.5459774844     1.7975462892     1.4146504942
   30      H       4.9221314013     2.0945724601     2.1068821458
   31      H       5.7528872222    -0.5699725943     1.6154184488
   32      O      -1.1277765821    -0.3205787031     0.2133662555
   33      C      -3.6723909255     3.6058103229     1.6141678768
   34      C      -4.9497173126    -1.0145984664     0.7295112249
   35      C      -5.9616554199    -1.7191702518    -0.2564323273
   36      C      -4.9700481401    -2.3557342305    -1.3002996404
   37      C      -3.5739246863    -1.9245398922    -0.6990810797
   38      O      -3.7967863927    -1.9395683332     0.7637996370
   39      H      -5.1708630044     0.8093531711    -0.5591955868
   40      H      -3.5901430998    -0.1236364448    -2.0559876535
   41      H      -2.5654797535     3.6296158571     1.5460751068
   42      H      -5.3304709007    -0.8340986350     1.7533078875
   43      H      -6.5404765233    -2.4919223892     0.2742391489
   44      H      -6.6629326772    -1.0043855862    -0.7155816071
   45      H      -5.0569751673    -3.4534986258    -1.3255756468
   46      H      -5.1189105762    -1.9653857374    -2.3198244477
   47      H      -2.7195185202    -2.5763921355    -0.9652250706
   48      H      -3.9527673315     3.4039060660     2.6682266405
   49      H      -4.0835468275     4.5837354232     1.3031232918
   50      H       3.6956914585    -4.0420013049    -0.9434011725
   51      H       2.2771558989    -3.8839098534     0.1676267637
   52      H       3.9220816208    -4.1568989900     0.8496408074
   53      H       0.4724140382     1.6038338719    -3.3495711760
   54      H       1.5000574445     2.5649819581    -2.2331501095
   55      H       0.0189066928     1.3961434394    -0.2787154423
   56      H      -0.5764447959     2.8226559462    -1.2331348074
 ----------------------------------------------------------------

    9   -1510.2518982247      5.77E-09 Convergence criterion met
 Total energy in the final basis set = -1510.25189822
 Final energy is   -1510.25189822469
 **  OPTIMIZATION CONVERGED  **

                    Orbital Energies (a.u.)
 --------------------------------------------------------------

 Alpha MOs
 -- Occupied --
-18.935 -18.929 -18.919 -18.907 -18.898 -18.888 -18.887 -18.882
-18.877 -18.859 -10.107 -10.098 -10.098 -10.086 -10.076 -10.073
-10.067 -10.060 -10.059 -10.058 -10.058 -10.050 -10.039 -10.038
-10.035 -10.032 -10.021 -10.020 -10.019 -10.019  -1.014  -1.010
 -1.004  -0.994  -0.969  -0.968  -0.941  -0.936  -0.931  -0.920
 -0.763  -0.760  -0.725  -0.720  -0.713  -0.704  -0.698  -0.665
 -0.649  -0.616  -0.599  -0.582  -0.548  -0.543  -0.538  -0.535
 -0.514  -0.507  -0.479  -0.472  -0.465  -0.456  -0.451  -0.436
 -0.432  -0.430  -0.428  -0.416  -0.415  -0.406  -0.406  -0.399
 -0.395  -0.385  -0.372  -0.366  -0.360  -0.353  -0.349  -0.348
 -0.344  -0.340  -0.333  -0.330  -0.328  -0.327  -0.321  -0.309
 -0.308  -0.306  -0.305  -0.303  -0.294  -0.288  -0.281  -0.273
 -0.270  -0.258  -0.249  -0.240  -0.238  -0.233  -0.230  -0.180
 -0.175  -0.163  -0.161  -0.157  -0.153  -0.147  -0.143  -0.141
 -0.137

          Ground-State Mulliken Net Atomic Charges

     Atom                 Charge (a.u.)
  ----------------------------------------
      1 O                    -0.204559
      2 C                     0.202116
      3 C                    -0.079399
      4 C                    -0.077574
      5 C                     0.208477
      6 O                    -0.176765
      7 C                    -0.059526
      8 C                    -0.048058
      9 O                    -0.199754
     10 C                     0.226218
     11 C                    -0.082581
     12 C                    -0.079225
     13 C                     0.212834
     14 O                    -0.215517
     15 O                    -0.171147
     16 O                    -0.167656
     17 O                    -0.164296
     18 C                    -0.126998
     19 C                     0.024358
     20 C                    -0.142781
     21 C                    -0.144958
     22 C                     0.025834
     23 O                    -0.184606
     24 H                     0.077089
     25 H                     0.085509
     26 H                     0.090016
     27 H                     0.077753
     28 H                     0.070357
     29 H                     0.078053
     30 H                     0.073771
     31 H                     0.083232
     32 O                    -0.193254
     33 C                    -0.129372
     34 C                     0.026834
     35 C                    -0.143608
     36 C                    -0.144341
     37 C                     0.026892
     38 O                    -0.181512
     39 H                     0.086431
     40 H                     0.086875
     41 H                     0.086439
     42 H                     0.084654
     43 H                     0.078485
     44 H                     0.073312
     45 H                     0.078798
     46 H                     0.073478
     47 H                     0.088205
     48 H                     0.089483
     49 H                     0.089724
     50 H                     0.088731
     51 H                     0.091337
     52 H                     0.086882
     53 H                     0.092727
     54 H                     0.071499
     55 H                     0.097982
     56 H                     0.083104
  ----------------------------------------
  Sum of atomic charges =     0.000000

                    Cartesian Multipole Moments
 -----------------------------------------------------------------
    Charge (ESU x 10^10)
                -0.0000
    Dipole Moment (Debye)
         X      -1.6780      Y       4.0872      Z      -1.5916
       Tot       4.6961
    Quadrupole Moments (Debye-Ang)
        XX    -145.8474     XY       5.0993     YY    -147.9918
        XZ       6.2701     YZ       6.9514     ZZ    -165.3512

 Total job time:  49.89s(wall), 2372.76s(cpu)
        *  Thank you very much for using Q-Chem.  Have a nice day.  *
