 Q-Chem 5.0, Q-Chem, Inc., Pleasanton, CA (2017)
 Q-Chem 5.0.1 for Intel X86 EM64T Linux

User input:
--------------------------------------------------------------
$molecule
0  1
O -3.5645108176 1.5904558335 1.4993159815
C -3.5906473467 1.6295437434 0.2492755692
C -3.9938071923 0.4786561713 -0.7324496128
C -3.2988590127 -0.9040125002 -0.379362839
C -2.3997726652 -0.8309209962 0.9062741207
O -1.2968083876 0.0353304155 0.607928782
C -0.4034757352 0.1497528873 1.7843918856
C 0.9949891689 0.6789507452 1.2779109881
O 0.9492390457 0.6364774938 -0.2022372471
C 2.1908445088 0.6619155883 -0.9250635204
C 3.5657260821 0.9551259315 -0.1942121229
C 4.0891086591 -0.1152802514 0.8575899716
C 3.2613664486 -1.448192564 0.8726634713
O 2.681939443 -1.9566957013 1.8612246065
O -3.2691213521 2.7916339264 -0.5232724296
O 3.2070114555 -1.974876903 -0.4504596898
O 2.100635075 0.5261934902 -2.165839314
C 2.3527395646 -3.1861649303 -0.4836020736
C 4.7674825193 0.9824331096 -1.2316193707
C 5.9202426873 1.8619690541 -0.6116936312
C 6.438927241 0.9071130842 0.528514384
C 5.5499858536 -0.3788081954 0.2835986449
O 5.3280265704 -0.387198385 -1.1781559606
H 3.4698513207 1.9375216633 0.3063042027
H 4.1088342082 0.2879542921 1.8850324926
H 4.4541239927 1.231527659 -2.2641330923
H 6.7033387711 2.050282105 -1.3631953812
H 5.555721879 2.8287669386 -0.2294950966
H 7.50652218 0.6666750923 0.4034277391
H 6.2874767485 1.3259357536 1.5362356424
H 6.0031727841 -1.3333458564 0.6149534159
O -2.5490753381 -1.4483216933 1.981171259
C -2.8791716646 3.9017102593 0.3765500375
C -5.5283759795 0.0804364163 -0.5827911923
C -5.9386618703 -0.7803948475 -1.8423953112
C -5.2340640708 -2.1501508055 -1.5167045125
C -4.5621193401 -1.8240529131 -0.1256927748
O -5.5251477173 -0.9021831615 0.5229036326
H -3.7571827049 0.8028823286 -1.7607849411
H -2.6807577159 -1.2604624521 -1.2231855438
H -2.0056111312 3.6284722057 1.002858442
H -6.2033344209 0.9265408908 -0.3487284052
H -7.0337291099 -0.8916964656 -1.8886913167
H -5.5882021962 -0.3330976958 -2.7862302265
H -5.9657771046 -2.9667432115 -1.4117429532
H -4.4902774514 -2.4368738903 -2.2772630642
H -4.3605520015 -2.6920786306 0.5314610348
H -3.7124687727 4.1978153418 1.0463162092
H -2.6134943632 4.7497725359 -0.2808555305
H 2.3541586298 -3.5264345718 -1.5352363889
H 1.3148297563 -2.9555138321 -0.1675133296
H 2.7540276068 -3.9872548611 0.1698939225
H 1.1570147688 1.725244234 1.6196613508
H 1.7835965075 0.0383466147 1.7106733476
H -0.2933038335 -0.8418148751 2.2732853445
H -0.8416027979 0.8504523403 2.5285765153
$end

$rem
JOBTYPE                   OPT
METHOD                    B3LYP
DFT_D                     d3_op
BASIS                     STO-3G
GEOM_OPT_MAX_CYCLES       100
GEOM_OPT_TOL_GRADIENT     300
GEOM_OPT_TOL_DISPLACEMENT 1200
GEOM_OPT_TOL_ENERGY       100
SYMMETRY                  False
THRESH                    12
SCF_CONVERGENCE           8
MAX_SUB_FILE_NUM          128
MEM_STATIC                400
MEM_TOTAL                 4000
$end
--------------------------------------------------------------

   16   -1510.2648766731      7.68E-09 Convergence criterion met
 Total energy in the final basis set = -1510.26487667
   14   -1510.2661507488      3.78E-09 Convergence criterion met
 Total energy in the final basis set = -1510.26615075
   13   -1510.2680647322      8.12E-09 Convergence criterion met
 Total energy in the final basis set = -1510.26806473
   13   -1510.2688646289      5.65E-09 Convergence criterion met
 Total energy in the final basis set = -1510.26886463
   13   -1510.2699469468      4.66E-09 Convergence criterion met
 Total energy in the final basis set = -1510.26994695
   14   -1510.2709728318      3.67E-09 Convergence criterion met
 Total energy in the final basis set = -1510.27097283
   14   -1510.2719235409      2.73E-09 Convergence criterion met
 Total energy in the final basis set = -1510.27192354
   14   -1510.2722735539      3.36E-09 Convergence criterion met
   12   -1510.2897119887      5.34E-09 Convergence criterion met
 Total energy in the final basis set = -1510.28971199
   12   -1510.2897319410      2.19E-09 Convergence criterion met
 Total energy in the final basis set = -1510.28973194
   11   -1510.2897348832      4.96E-09 Convergence criterion met
 Total energy in the final basis set = -1510.28973488
   10   -1510.2897403531      7.93E-09 Convergence criterion met
 Total energy in the final basis set = -1510.28974035
   10   -1510.2897382086      7.39E-09 Convergence criterion met
 Total energy in the final basis set = -1510.28973821
    9   -1510.2897413101      4.78E-09 Convergence criterion met
 Total energy in the final basis set = -1510.28974131

             Standard Nuclear Orientation (Angstroms)
    I     Atom           X                Y                Z
 ----------------------------------------------------------------
    1      O      -1.9539504982     1.3592508277     0.4483635829
    2      C      -2.2551616827     0.8886039667    -0.6740674448
    3      C      -3.0869438688    -0.4174883267    -0.9086008278
    4      C      -3.1271859153    -1.3114998668     0.3934442827
    5      C      -2.1482534326    -0.8467962915     1.5346743214
    6      O      -0.8085248864    -1.1494663056     1.0856390319
    7      C       0.1970566469    -0.8528967596     2.1264059151
    8      C       0.7091571583     0.6401637181     2.0325656819
    9      O       0.6183917709     1.1225337235     0.6366108300
   10      C       1.7979211396     1.6099877481    -0.0045630934
   11      C       3.2427841932     1.2646919055     0.5446406700
   12      C       3.6506856598    -0.2661660439     0.4238679205
   13      C       2.5061446137    -1.1864647477    -0.1166378213
   14      O       2.1565396381    -2.2920822643     0.3587636001
   15      O      -1.9480025859     1.4762139994    -1.9270472732
   16      O       1.8740652437    -0.5409863121    -1.2156414826
   17      O       1.6147676794     2.3345342905    -1.0154849025
   18      C       0.5840862313    -1.2049940293    -1.5418966599
   19      C       4.3210433971     1.9376838880    -0.4037927543
   20      C       5.7161797627     1.9270337527     0.3354018203
   21      C       6.1202299062     0.4118558118     0.1991421942
   22      C       4.8773250374    -0.1638953856    -0.5883847596
   23      O       4.4906733158     0.9427118058    -1.4876063693
   24      H       3.3501776074     1.6242793215     1.5832102589
   25      H       3.9706797947    -0.6778603274     1.3972891027
   26      H       3.9976906774     2.9096705765    -0.8234521225
   27      H       6.4314194370     2.5841690705    -0.1840519579
   28      H       5.6332186751     2.2543341334     1.3841302591
   29      H       7.0391927650     0.2905926099    -0.3962699942
   30      H       6.2630098440    -0.0823745146     1.1734872832
   31      H       5.0711874393    -1.0882546725    -1.1667641266
   32      O      -2.4252135636    -0.4795411703     2.6943525224
   33      C      -1.1928605097     2.7451561810    -1.7436012384
   34      C      -4.6268137557    -0.0496325770    -1.0536732985
   35      C      -5.4295708049    -1.3426664804    -1.4801719121
   36      C      -5.4947455769    -2.1286761268    -0.1173165166
   37      C      -4.6498306514    -1.1774373865     0.8160549893
   38      O      -5.0335934145     0.1768347388     0.3518129460
   39      H      -2.7006960160    -0.9591238232    -1.7895954709
   40      H      -2.8715210932    -2.3583431056     0.1485018249
   41      H      -0.1284085807     2.5513216550    -1.4420349447
   42      H      -4.8222202888     0.8504792724    -1.6686297215
   43      H      -6.4344294954    -1.0715472037    -1.8409659152
   44      H      -4.9112142104    -1.9070355663    -2.2720434985
   45      H      -6.5299069270    -2.2079692497     0.2515646610
   46      H      -5.0644381479    -3.1404610193    -0.1854407431
   47      H      -4.8274495660    -1.2780877091     1.9043729366
   48      H      -1.6831368684     3.3873013115    -0.9857209356
   49      H      -1.2206094117     3.2475146572    -2.7277454795
   50      H       0.1144483508    -0.5707156833    -2.3159538996
   51      H      -0.0646977361    -1.2494052701    -0.6325688995
   52      H       0.7499963379    -2.2253369783    -1.9419319375
   53      H       0.0324779925     1.2923573905     2.6253763406
   54      H       1.7300466975     0.7066349135     2.4567206018
   55      H       1.0270472747    -1.5624935377     1.9294210056
   56      H      -0.2325725232    -1.0204346187     3.1366712415
 ----------------------------------------------------------------

    9   -1510.2897411744      3.28E-09 Convergence criterion met
 Total energy in the final basis set = -1510.28974117
 Final energy is   -1510.28974117440
 **  OPTIMIZATION CONVERGED  **

                    Orbital Energies (a.u.)
 --------------------------------------------------------------

 Alpha MOs
 -- Occupied --
-18.941 -18.937 -18.930 -18.925 -18.894 -18.884 -18.881 -18.879
-18.871 -18.868 -10.111 -10.105 -10.099 -10.091 -10.079 -10.068
-10.067 -10.063 -10.057 -10.055 -10.046 -10.046 -10.045 -10.034
-10.033 -10.027 -10.026 -10.024 -10.018 -10.017  -1.021  -1.011
 -1.005  -0.999  -0.976  -0.967  -0.942  -0.940  -0.931  -0.926
 -0.770  -0.760  -0.728  -0.723  -0.711  -0.710  -0.699  -0.655
 -0.644  -0.612  -0.606  -0.583  -0.555  -0.544  -0.541  -0.534
 -0.516  -0.507  -0.490  -0.474  -0.466  -0.458  -0.455  -0.450
 -0.438  -0.435  -0.426  -0.415  -0.412  -0.408  -0.399  -0.396
 -0.390  -0.386  -0.371  -0.366  -0.365  -0.355  -0.353  -0.344
 -0.343  -0.339  -0.337  -0.333  -0.330  -0.324  -0.319  -0.314
 -0.310  -0.307  -0.306  -0.302  -0.296  -0.286  -0.285  -0.278
 -0.266  -0.256  -0.248  -0.241  -0.239  -0.233  -0.231  -0.185
 -0.180  -0.174  -0.165  -0.159  -0.152  -0.149  -0.145  -0.142
 -0.139

          Ground-State Mulliken Net Atomic Charges

     Atom                 Charge (a.u.)
  ----------------------------------------
      1 O                    -0.207024
      2 C                     0.214702
      3 C                    -0.078882
      4 C                    -0.080825
      5 C                     0.223045
      6 O                    -0.178271
      7 C                    -0.057054
      8 C                    -0.050387
      9 O                    -0.167530
     10 C                     0.225028
     11 C                    -0.084005
     12 C                    -0.083421
     13 C                     0.207535
     14 O                    -0.216526
     15 O                    -0.172867
     16 O                    -0.162935
     17 O                    -0.203032
     18 C                    -0.144425
     19 C                     0.027037
     20 C                    -0.144717
     21 C                    -0.143669
     22 C                     0.027059
     23 O                    -0.183302
     24 H                     0.078726
     25 H                     0.082090
     26 H                     0.093927
     27 H                     0.079926
     28 H                     0.072543
     29 H                     0.079649
     30 H                     0.073568
     31 H                     0.084828
     32 O                    -0.213666
     33 C                    -0.149259
     34 C                     0.025009
     35 C                    -0.144296
     36 C                    -0.143425
     37 C                     0.024424
     38 O                    -0.189121
     39 H                     0.084557
     40 H                     0.083468
     41 H                     0.117074
     42 H                     0.084554
     43 H                     0.077879
     44 H                     0.073445
     45 H                     0.077752
     46 H                     0.072656
     47 H                     0.089285
     48 H                     0.080553
     49 H                     0.079103
     50 H                     0.091687
     51 H                     0.113073
     52 H                     0.081978
     53 H                     0.098665
     54 H                     0.081675
     55 H                     0.097535
     56 H                     0.094607
  ----------------------------------------
  Sum of atomic charges =    -0.000000

                    Cartesian Multipole Moments
 -----------------------------------------------------------------
    Charge (ESU x 10^10)
                -0.0000
    Dipole Moment (Debye)
         X       2.3040      Y      -1.4195      Z       0.9338
       Tot       2.8628
    Quadrupole Moments (Debye-Ang)
        XX    -148.7262     XY       9.7256     YY    -159.6049
        XZ      17.0127     YZ       4.2180     ZZ    -161.8198

 Total job time:  139.72s(wall), 6666.66s(cpu)
        *  Thank you very much for using Q-Chem.  Have a nice day.  *
