 Q-Chem 5.0, Q-Chem, Inc., Pleasanton, CA (2017)
 Q-Chem 5.0.1 for Intel X86 EM64T Linux

User input:
--------------------------------------------------------------
$molecule
0  1
O -3.94934 -3.66094 2.70899
C -3.26408 -4.56952 2.26188
C -3.36658 -6.02376 2.66595
C -3.41669 -6.33291 4.1712
C -3.53792 -5.14515 5.09996
O -2.40434 -4.38624 5.0331
C -2.44368 -3.2387 5.888
C -1.03209 -2.71334 6.12792
O -0.06873 -3.64558 5.61241
C 1.19 -3.51242 6.09926
C 1.37346 -2.25871 6.92096
C 0.57839 -2.22342 8.23432
C 0.01686 -3.55083 8.70268
O -1.16209 -3.78119 8.92981
O -2.26873 -4.26461 1.38838
O 0.89661 -4.58458 8.81418
O 2.07776 -4.30643 5.82969
C 0.55158 -5.8682 9.18137
C 2.81599 -2.07082 7.44094
C 3.06352 -0.59879 7.77373
C 2.23313 -0.45323 9.03028
C 1.74374 -1.89641 9.20329
O 2.80957 -2.66943 8.70833
H 1.15807 -1.39078 6.2555
H -0.13906 -1.39211 8.41371
H 3.59177 -2.43196 6.73113
H 4.13845 -0.49279 8.045
H 2.81981 0.11482 6.95746
H 2.91229 -0.17931 9.86833
H 1.3973 0.27651 8.96831
H 1.47062 -2.08021 10.26703
O -4.51104 -4.89658 5.80486
C -1.99028 -2.98956 0.94257
C -4.72017 -6.61721 2.22307
C -4.6082 -8.13547 2.097
C -4.51915 -8.53149 3.55487
C -4.7132 -7.16588 4.224
O -5.55768 -6.46925 3.3426
H -2.55323 -6.57895 2.1451
H -2.53798 -6.92306 4.51458
H -1.72151 -2.33513 1.79948
H -5.09723 -6.18313 1.27059
H -5.57808 -8.50115 1.68941
H -3.77985 -8.50142 1.45299
H -5.37229 -9.20695 3.78762
H -3.56236 -9.00728 3.86103
H -5.09173 -7.30329 5.26084
H -2.87032 -2.56962 0.41006
H -1.13259 -3.02885 0.24024
H 1.46267 -6.50079 9.19021
H -0.17162 -6.29244 8.45231
H 0.1051 -5.86825 10.19863
H -0.98334 -1.99849 5.27564
H -1.11753 -1.87523 6.79578
H -2.77689 -3.55905 6.90121
H -3.15621 -2.46358 5.52267
$end

$opt
CONSTRAINT
tors           1           2           3           4     -47.368
tors           3           4           5           6     -66.316
tors           4           5           6           7    -180.000
tors           5           6           7           8    +161.053
tors           6           7           8           9      -9.474
tors           7           8           9          10    -161.053
tors           8           9          10          11      -9.474
tors           9          10          11          12     +66.316
tors          11          12          13          14    -123.158
ENDCONSTRAINT
$end

$rem
JOBTYPE                   OPT
METHOD                    B3LYP
DFT_D                     d3_op
BASIS                     STO-3G
GEOM_OPT_MAX_CYCLES       100
GEOM_OPT_TOL_GRADIENT     300
GEOM_OPT_TOL_DISPLACEMENT 1200
GEOM_OPT_TOL_ENERGY       100
SYMMETRY                  False
THRESH                    12
SCF_CONVERGENCE           8
MAX_SUB_FILE_NUM          128
MEM_STATIC                400
MEM_TOTAL                 4000
$end
--------------------------------------------------------------

   16   -1510.0776718190      2.29E-09 Convergence criterion met
 Total energy in the final basis set = -1510.07767182
   14   -1510.1527039227      5.11E-09 Convergence criterion met
 Total energy in the final basis set = -1510.15270392
   13   -1510.1972770935      8.74E-09 Convergence criterion met
 Total energy in the final basis set = -1510.19727709
   14   -1510.2233820075      3.17E-09 Convergence criterion met
 Total energy in the final basis set = -1510.22338201
   13   -1510.2383837963      7.12E-09 Convergence criterion met
 Total energy in the final basis set = -1510.23838380
   13   -1510.2481758351      4.33E-09 Convergence criterion met
 Total energy in the final basis set = -1510.24817584
   13   -1510.2551309764      3.60E-09 Convergence criterion met
 Total energy in the final basis set = -1510.25513098
   13   -1510.2599811692      2.42E-09 Convergence criterion met
   12   -1510.2646477246      3.42E-09 Convergence criterion met
 Total energy in the final basis set = -1510.26464772
   11   -1510.2647091458      8.15E-09 Convergence criterion met
 Total energy in the final basis set = -1510.26470915
   11   -1510.2647620341      8.72E-09 Convergence criterion met
 Total energy in the final basis set = -1510.26476203
   11   -1510.2648247447      8.38E-09 Convergence criterion met
 Total energy in the final basis set = -1510.26482474
   11   -1510.2648478006      5.54E-09 Convergence criterion met
 Total energy in the final basis set = -1510.26484780
   10   -1510.2648550938      7.77E-09 Convergence criterion met
 Total energy in the final basis set = -1510.26485509

             Standard Nuclear Orientation (Angstroms)
    I     Atom           X                Y                Z
 ----------------------------------------------------------------
    1      O      -3.5645108176     1.5904558335     1.4993159815
    2      C      -3.5906473467     1.6295437434     0.2492755692
    3      C      -3.9938071923     0.4786561713    -0.7324496128
    4      C      -3.2988590127    -0.9040125002    -0.3793628390
    5      C      -2.3997726652    -0.8309209962     0.9062741207
    6      O      -1.2968083876     0.0353304155     0.6079287820
    7      C      -0.4034757352     0.1497528873     1.7843918856
    8      C       0.9949891689     0.6789507452     1.2779109881
    9      O       0.9492390457     0.6364774938    -0.2022372471
   10      C       2.1908445088     0.6619155883    -0.9250635204
   11      C       3.5657260821     0.9551259315    -0.1942121229
   12      C       4.0891086591    -0.1152802514     0.8575899716
   13      C       3.2613664486    -1.4481925640     0.8726634713
   14      O       2.6819394430    -1.9566957013     1.8612246065
   15      O      -3.2691213521     2.7916339264    -0.5232724296
   16      O       3.2070114555    -1.9748769030    -0.4504596898
   17      O       2.1006350750     0.5261934902    -2.1658393140
   18      C       2.3527395646    -3.1861649303    -0.4836020736
   19      C       4.7674825193     0.9824331096    -1.2316193707
   20      C       5.9202426873     1.8619690541    -0.6116936312
   21      C       6.4389272410     0.9071130842     0.5285143840
   22      C       5.5499858536    -0.3788081954     0.2835986449
   23      O       5.3280265704    -0.3871983850    -1.1781559606
   24      H       3.4698513207     1.9375216633     0.3063042027
   25      H       4.1088342082     0.2879542921     1.8850324926
   26      H       4.4541239927     1.2315276590    -2.2641330923
   27      H       6.7033387711     2.0502821050    -1.3631953812
   28      H       5.5557218790     2.8287669386    -0.2294950966
   29      H       7.5065221800     0.6666750923     0.4034277391
   30      H       6.2874767485     1.3259357536     1.5362356424
   31      H       6.0031727841    -1.3333458564     0.6149534159
   32      O      -2.5490753381    -1.4483216933     1.9811712590
   33      C      -2.8791716646     3.9017102593     0.3765500375
   34      C      -5.5283759795     0.0804364163    -0.5827911923
   35      C      -5.9386618703    -0.7803948475    -1.8423953112
   36      C      -5.2340640708    -2.1501508055    -1.5167045125
   37      C      -4.5621193401    -1.8240529131    -0.1256927748
   38      O      -5.5251477173    -0.9021831615     0.5229036326
   39      H      -3.7571827049     0.8028823286    -1.7607849411
   40      H      -2.6807577159    -1.2604624521    -1.2231855438
   41      H      -2.0056111312     3.6284722057     1.0028584420
   42      H      -6.2033344209     0.9265408908    -0.3487284052
   43      H      -7.0337291099    -0.8916964656    -1.8886913167
   44      H      -5.5882021962    -0.3330976958    -2.7862302265
   45      H      -5.9657771046    -2.9667432115    -1.4117429532
   46      H      -4.4902774514    -2.4368738903    -2.2772630642
   47      H      -4.3605520015    -2.6920786306     0.5314610348
   48      H      -3.7124687727     4.1978153418     1.0463162092
   49      H      -2.6134943632     4.7497725359    -0.2808555305
   50      H       2.3541586298    -3.5264345718    -1.5352363889
   51      H       1.3148297563    -2.9555138321    -0.1675133296
   52      H       2.7540276068    -3.9872548611     0.1698939225
   53      H       1.1570147688     1.7252442340     1.6196613508
   54      H       1.7835965075     0.0383466147     1.7106733476
   55      H      -0.2933038335    -0.8418148751     2.2732853445
   56      H      -0.8416027979     0.8504523403     2.5285765153
 ----------------------------------------------------------------

   11   -1510.2648543012      4.25E-09 Convergence criterion met
 Total energy in the final basis set = -1510.26485430
 Final energy is   -1510.26485430124
 **  OPTIMIZATION CONVERGED  **

                    Orbital Energies (a.u.)
 --------------------------------------------------------------

 Alpha MOs
 -- Occupied --
-18.946 -18.933 -18.931 -18.928 -18.892 -18.884 -18.881 -18.871
-18.871 -18.869 -10.107 -10.100 -10.095 -10.094 -10.075 -10.070
-10.068 -10.066 -10.063 -10.060 -10.058 -10.054 -10.046 -10.042
-10.034 -10.032 -10.025 -10.023 -10.018 -10.016  -1.021  -1.012
 -1.006  -0.999  -0.974  -0.966  -0.944  -0.938  -0.932  -0.926
 -0.768  -0.759  -0.728  -0.723  -0.710  -0.708  -0.699  -0.665
 -0.661  -0.608  -0.603  -0.581  -0.555  -0.544  -0.541  -0.534
 -0.517  -0.508  -0.493  -0.477  -0.463  -0.457  -0.451  -0.447
 -0.442  -0.433  -0.427  -0.419  -0.416  -0.411  -0.409  -0.403
 -0.397  -0.384  -0.375  -0.372  -0.358  -0.354  -0.353  -0.349
 -0.342  -0.341  -0.337  -0.333  -0.329  -0.324  -0.318  -0.314
 -0.312  -0.306  -0.302  -0.297  -0.294  -0.290  -0.282  -0.278
 -0.268  -0.258  -0.253  -0.250  -0.238  -0.233  -0.231  -0.184
 -0.176  -0.173  -0.167  -0.161  -0.153  -0.148  -0.146  -0.144
 -0.140

          Ground-State Mulliken Net Atomic Charges

     Atom                 Charge (a.u.)
  ----------------------------------------
      1 O                    -0.215928
      2 C                     0.211348
      3 C                    -0.078884
      4 C                    -0.078214
      5 C                     0.214370
      6 O                    -0.167986
      7 C                    -0.047662
      8 C                    -0.055491
      9 O                    -0.165935
     10 C                     0.207655
     11 C                    -0.084152
     12 C                    -0.082373
     13 C                     0.203670
     14 O                    -0.217974
     15 O                    -0.167245
     16 O                    -0.157856
     17 O                    -0.200360
     18 C                    -0.127084
     19 C                     0.025877
     20 C                    -0.143516
     21 C                    -0.144667
     22 C                     0.026583
     23 O                    -0.183165
     24 H                     0.078336
     25 H                     0.082687
     26 H                     0.095143
     27 H                     0.079523
     28 H                     0.072888
     29 H                     0.079154
     30 H                     0.072906
     31 H                     0.083020
     32 O                    -0.209057
     33 C                    -0.127911
     34 C                     0.025549
     35 C                    -0.143461
     36 C                    -0.144295
     37 C                     0.024583
     38 O                    -0.186652
     39 H                     0.088016
     40 H                     0.087088
     41 H                     0.087826
     42 H                     0.082118
     43 H                     0.077619
     44 H                     0.074224
     45 H                     0.077645
     46 H                     0.073399
     47 H                     0.089202
     48 H                     0.088013
     49 H                     0.090120
     50 H                     0.096817
     51 H                     0.091220
     52 H                     0.090161
     53 H                     0.076107
     54 H                     0.094348
     55 H                     0.094714
     56 H                     0.087938
  ----------------------------------------
  Sum of atomic charges =    -0.000000

                    Cartesian Multipole Moments
 -----------------------------------------------------------------
    Charge (ESU x 10^10)
                -0.0000
    Dipole Moment (Debye)
         X       2.1792      Y       1.7848      Z      -0.0698
       Tot       2.8177
    Quadrupole Moments (Debye-Ang)
        XX    -153.5465     XY       3.0110     YY    -147.1468
        XZ      20.6107     YZ       7.7504     ZZ    -170.1404

 Total job time:  51.87s(wall), 2468.80s(cpu)
        *  Thank you very much for using Q-Chem.  Have a nice day.  *
