 Q-Chem 5.0, Q-Chem, Inc., Pleasanton, CA (2017)
 Q-Chem 5.0.1 for Intel X86 EM64T Linux

User input:
--------------------------------------------------------------
$molecule
0  1
O -3.94934 -3.66094 2.70899
C -3.26408 -4.56952 2.26188
C -3.36658 -6.02376 2.66595
C -3.85957 -6.32399 4.09097
C -4.36389 -5.14454 4.89263
O -4.07997 -3.98138 4.23546
C -5.11944 -3.00346 4.3469
C -4.51681 -1.60934 4.48621
O -5.31001 -0.65836 3.75864
C -5.78731 0.38135 4.48688
C -7.1857 0.78731 4.08642
C -8.09747 1.20268 5.25023
C -7.40064 1.49391 6.56412
O -6.407 2.1931 6.69972
O -2.23046 -4.2561 1.43742
O -7.91083 0.86717 7.65647
O -5.00356 1.08765 5.1004
C -7.39581 0.98386 8.93051
C -7.21547 2.07405 3.23575
C -8.50282 2.11479 2.41337
C -9.52535 2.3658 3.50373
C -8.59728 2.5553 4.70996
O -7.42813 3.11169 4.15923
H -7.62651 -0.03837 3.48092
H -8.92755 0.48492 5.43541
H -6.32916 2.18172 2.57267
H -8.44282 3.02003 1.76717
H -8.69767 1.22545 1.77623
H -10.06757 3.30767 3.26555
H -10.24918 1.54 3.67638
H -9.09907 3.16067 5.4976
O -4.92934 -5.22236 5.97592
C -1.94358 -2.97802 1.00536
C -4.49032 -6.70355 1.85349
C -4.27161 -8.21552 1.81698
C -4.62076 -8.58264 3.24247
C -5.07147 -7.21823 3.77422
O -5.63679 -6.58268 2.65647
H -2.40939 -6.52895 2.40361
H -3.10063 -6.84586 4.71385
H -1.72215 -2.3208 1.87345
H -4.57938 -6.3098 0.81649
H -5.04793 -8.64223 1.14189
H -3.2673 -8.54367 1.47278
H -5.47492 -9.29561 3.22256
H -3.7862 -9.00431 3.84359
H -5.74539 -7.35302 4.64912
H -2.80225 -2.5665 0.43277
H -1.05392 -3.00854 0.34355
H -8.00338 0.3696 9.62624
H -7.43286 2.04342 9.26268
H -6.34665 0.61888 8.95398
H -4.3275 -1.36492 5.5572
H -3.5266 -1.5901 3.98284
H -5.81661 -3.15166 5.20308
H -5.84961 -3.03569 3.49276
$end

$opt
CONSTRAINT
tors           1           2           3           4     -28.421
tors           3           4           5           6      -9.474
tors           4           5           6           7    +142.105
tors           5           6           7           8    +142.105
tors           6           7           8           9    +142.105
tors           7           8           9          10    +123.158
tors           8           9          10          11    -142.105
tors           9          10          11          12    +142.105
tors          11          12          13          14     +47.368
ENDCONSTRAINT
$end

$rem
JOBTYPE                   OPT
METHOD                    B3LYP
DFT_D                     d3_op
BASIS                     STO-3G
GEOM_OPT_MAX_CYCLES       100
GEOM_OPT_TOL_GRADIENT     300
GEOM_OPT_TOL_DISPLACEMENT 1200
GEOM_OPT_TOL_ENERGY       100
SYMMETRY                  False
THRESH                    12
SCF_CONVERGENCE           8
MAX_SUB_FILE_NUM          128
MEM_STATIC                400
MEM_TOTAL                 4000
$end
--------------------------------------------------------------

   16   -1509.9517441883      6.25E-09 Convergence criterion met
 Total energy in the final basis set = -1509.95174419
   14   -1510.0604524734      5.80E-09 Convergence criterion met
 Total energy in the final basis set = -1510.06045247
   14   -1510.1338287170      5.62E-09 Convergence criterion met
 Total energy in the final basis set = -1510.13382872
   14   -1510.1812831409      4.98E-09 Convergence criterion met
 Total energy in the final basis set = -1510.18128314
   14   -1510.2096788653      4.55E-09 Convergence criterion met
 Total energy in the final basis set = -1510.20967887
   14   -1510.2259657680      2.99E-09 Convergence criterion met
 Total energy in the final basis set = -1510.22596577
   13   -1510.2354389594      7.13E-09 Convergence criterion met
 Total energy in the final basis set = -1510.23543896
   13   -1510.2411779643      8.09E-09 Convergence criterion met
   12   -1510.2518257020      3.81E-09 Convergence criterion met
 Total energy in the final basis set = -1510.25182570
   11   -1510.2518689835      6.47E-09 Convergence criterion met
 Total energy in the final basis set = -1510.25186898
   11   -1510.2518889164      4.37E-09 Convergence criterion met
 Total energy in the final basis set = -1510.25188892
   11   -1510.2518998918      1.71E-09 Convergence criterion met
 Total energy in the final basis set = -1510.25189989
    9   -1510.2519055384      9.46E-09 Convergence criterion met
 Total energy in the final basis set = -1510.25190554
    9   -1510.2519071077      6.48E-09 Convergence criterion met
 Total energy in the final basis set = -1510.25190711

             Standard Nuclear Orientation (Angstroms)
    I     Atom           X                Y                Z
 ----------------------------------------------------------------
    1      O       2.7885699905    -1.4143442313     0.7858199968
    2      C       3.6985154557    -1.4754627497    -0.0681484505
    3      C       4.8135009130    -0.4177597055    -0.4066400799
    4      C       4.4184083830     1.0808121155    -0.1224877458
    5      C       2.9166731046     1.5029061493    -0.3103713314
    6      O       2.1530013297     0.4595723891    -0.9388764542
    7      C       0.7914136654     0.3780544773    -0.3593939844
    8      C      -0.2305158016     0.0585346867    -1.5118319190
    9      O      -1.2540932484    -0.8701297695    -0.9763906275
   10      C      -2.5816822332    -0.3155197313    -1.1309409398
   11      C      -3.4068709843    -0.6993581309     0.1489194492
   12      C      -4.4171954719     0.3823907131     0.7223391054
   13      C      -4.7668701071     1.6030205652    -0.1989848897
   14      O      -5.0945768969     1.6117517888    -1.4031805953
   15      O       3.9156492191    -2.6116188175    -0.9163713711
   16      O      -4.6631590993     2.7885553504     0.6074897157
   17      O      -2.9065247730     0.3960731840    -2.1034979205
   18      C      -5.0139751926     3.9781457297    -0.2017137499
   19      C      -4.3816663486    -1.9502191610    -0.0564663628
   20      C      -4.5886155933    -2.6214428930     1.3569122242
   21      C      -5.5076325468    -1.5537033601     2.0574838875
   22      C      -5.7252407653    -0.5149980505     0.8856118892
   23      O      -5.6992789602    -1.3440569374    -0.3397788262
   24      H      -2.6578233510    -0.9463074501     0.9213469065
   25      H      -4.0651160403     0.7785615970     1.6909080659
   26      H      -4.0866701939    -2.6399315848    -0.8709676282
   27      H      -5.1044974081    -3.5892332682     1.2500062206
   28      H      -3.6363603869    -2.7826595196     1.8869250301
   29      H      -6.4699764790    -1.9883819499     2.3708452166
   30      H      -5.0277504842    -1.0898082471     2.9342305908
   31      H      -6.6679961167     0.0629765964     0.9416849554
   32      O       2.4225261528     2.5772840227     0.0975955437
   33      C       2.9055897688    -3.6556011847    -0.6265464826
   34      C       5.9030741025    -0.6033210160     0.7445799298
   35      C       7.1228737715     0.3822264662     0.5392885281
   36      C       6.5399122427     1.7290582664     1.1114814339
   37      C       5.0347777718     1.3132340016     1.3317018861
   38      O       5.1688190124    -0.0440527526     1.9079603123
   39      H       5.2006637432    -0.5857034591    -1.4258818183
   40      H       4.9890231852     1.7140944610    -0.8291643627
   41      H       1.8752818366    -3.2867589382    -0.8081310354
   42      H       6.1822851609    -1.6580064368     0.9350165244
   43      H       7.9986944720     0.0400508520     1.1125430894
   44      H       7.4074071731     0.4627704028    -0.5223477422
   45      H       7.0075836086     1.9892065627     2.0747412235
   46      H       6.6525263982     2.5779740325     0.4185442856
   47      H       4.4372040415     1.9709377095     1.9925164664
   48      H       2.9710534235    -4.0095973857     0.4227145376
   49      H       3.1250907344    -4.4932498433    -1.3137205327
   50      H      -4.8716395627     4.8520861651     0.4602449218
   51      H      -6.0680004642     3.9420441822    -0.5459075614
   52      H      -4.3592723976     4.0741462731    -1.0918437622
   53      H      -0.7039749213     0.9738320219    -1.9239427151
   54      H       0.3222339577    -0.4446455541    -2.3365396099
   55      H       0.5363307597     1.3248251661     0.1612484851
   56      H       0.7956456674    -0.4615704453     0.3729124620
 ----------------------------------------------------------------

    9   -1510.2519079905      3.35E-09 Convergence criterion met
 Total energy in the final basis set = -1510.25190799
 Final energy is   -1510.25190799055
 **  OPTIMIZATION CONVERGED  **

                    Orbital Energies (a.u.)
 --------------------------------------------------------------

 Alpha MOs
 -- Occupied --
-18.930 -18.927 -18.924 -18.917 -18.891 -18.890 -18.886 -18.883
-18.873 -18.869 -10.105 -10.100 -10.097 -10.092 -10.068 -10.066
-10.063 -10.063 -10.062 -10.061 -10.061 -10.059 -10.040 -10.039
-10.038 -10.037 -10.024 -10.022 -10.021 -10.020  -1.013  -1.008
 -1.005  -1.003  -0.973  -0.972  -0.941  -0.935  -0.930  -0.927
 -0.765  -0.762  -0.727  -0.722  -0.713  -0.706  -0.694  -0.662
 -0.659  -0.612  -0.598  -0.580  -0.546  -0.544  -0.540  -0.538
 -0.515  -0.513  -0.482  -0.473  -0.464  -0.459  -0.452  -0.447
 -0.436  -0.433  -0.419  -0.411  -0.410  -0.408  -0.407  -0.397
 -0.393  -0.386  -0.372  -0.364  -0.363  -0.359  -0.353  -0.352
 -0.343  -0.339  -0.334  -0.333  -0.330  -0.326  -0.323  -0.315
 -0.312  -0.307  -0.306  -0.300  -0.296  -0.287  -0.283  -0.272
 -0.268  -0.253  -0.252  -0.247  -0.243  -0.235  -0.235  -0.177
 -0.174  -0.171  -0.165  -0.160  -0.159  -0.150  -0.146  -0.144
 -0.137

          Ground-State Mulliken Net Atomic Charges

     Atom                 Charge (a.u.)
  ----------------------------------------
      1 O                    -0.217698
      2 C                     0.218386
      3 C                    -0.076228
      4 C                    -0.080591
      5 C                     0.214506
      6 O                    -0.181727
      7 C                    -0.053215
      8 C                    -0.051811
      9 O                    -0.186030
     10 C                     0.208653
     11 C                    -0.080511
     12 C                    -0.079597
     13 C                     0.205457
     14 O                    -0.196972
     15 O                    -0.172457
     16 O                    -0.173578
     17 O                    -0.192610
     18 C                    -0.129648
     19 C                     0.027218
     20 C                    -0.142767
     21 C                    -0.144816
     22 C                     0.026743
     23 O                    -0.184619
     24 H                     0.086743
     25 H                     0.086761
     26 H                     0.084862
     27 H                     0.078268
     28 H                     0.074829
     29 H                     0.078468
     30 H                     0.074437
     31 H                     0.083257
     32 O                    -0.207672
     33 C                    -0.129071
     34 C                     0.023935
     35 C                    -0.145717
     36 C                    -0.140811
     37 C                     0.026137
     38 O                    -0.188252
     39 H                     0.088510
     40 H                     0.083474
     41 H                     0.089342
     42 H                     0.082504
     43 H                     0.078821
     44 H                     0.074339
     45 H                     0.078822
     46 H                     0.074818
     47 H                     0.089423
     48 H                     0.087724
     49 H                     0.089388
     50 H                     0.088706
     51 H                     0.087276
     52 H                     0.090534
     53 H                     0.093845
     54 H                     0.087227
     55 H                     0.092790
     56 H                     0.100193
  ----------------------------------------
  Sum of atomic charges =    -0.000000

                    Cartesian Multipole Moments
 -----------------------------------------------------------------
    Charge (ESU x 10^10)
                -0.0000
    Dipole Moment (Debye)
         X       2.2952      Y      -0.5739      Z       1.4656
       Tot       2.7830
    Quadrupole Moments (Debye-Ang)
        XX    -149.4389     XY      -1.0054     YY    -151.1727
        XZ     -18.4987     YZ      -0.2011     ZZ    -166.7615

 Total job time:  77.07s(wall), 3664.27s(cpu)
        *  Thank you very much for using Q-Chem.  Have a nice day.  *
