 Q-Chem 5.0, Q-Chem, Inc., Pleasanton, CA (2017)
 Q-Chem 5.0.1 for Intel X86 EM64T Linux

User input:
--------------------------------------------------------------
$molecule
0  1
O 2.7885699905 -1.4143442313 0.7858199968
C 3.6985154557 -1.4754627497 -0.0681484505
C 4.813500913 -0.4177597055 -0.4066400799
C 4.418408383 1.0808121155 -0.1224877458
C 2.9166731046 1.5029061493 -0.3103713314
O 2.1530013297 0.4595723891 -0.9388764542
C 0.7914136654 0.3780544773 -0.3593939844
C -0.2305158016 0.0585346867 -1.511831919
O -1.2540932484 -0.8701297695 -0.9763906275
C -2.5816822332 -0.3155197313 -1.1309409398
C -3.4068709843 -0.6993581309 0.1489194492
C -4.4171954719 0.3823907131 0.7223391054
C -4.7668701071 1.6030205652 -0.1989848897
O -5.0945768969 1.6117517888 -1.4031805953
O 3.9156492191 -2.6116188175 -0.9163713711
O -4.6631590993 2.7885553504 0.6074897157
O -2.906524773 0.396073184 -2.1034979205
C -5.0139751926 3.9781457297 -0.2017137499
C -4.3816663486 -1.950219161 -0.0564663628
C -4.5886155933 -2.621442893 1.3569122242
C -5.5076325468 -1.5537033601 2.0574838875
C -5.7252407653 -0.5149980505 0.8856118892
O -5.6992789602 -1.3440569374 -0.3397788262
H -2.657823351 -0.9463074501 0.9213469065
H -4.0651160403 0.778561597 1.6909080659
H -4.0866701939 -2.6399315848 -0.8709676282
H -5.1044974081 -3.5892332682 1.2500062206
H -3.6363603869 -2.7826595196 1.8869250301
H -6.469976479 -1.9883819499 2.3708452166
H -5.0277504842 -1.0898082471 2.9342305908
H -6.6679961167 0.0629765964 0.9416849554
O 2.4225261528 2.5772840227 0.0975955437
C 2.9055897688 -3.6556011847 -0.6265464826
C 5.9030741025 -0.603321016 0.7445799298
C 7.1228737715 0.3822264662 0.5392885281
C 6.5399122427 1.7290582664 1.1114814339
C 5.0347777718 1.3132340016 1.3317018861
O 5.1688190124 -0.0440527526 1.9079603123
H 5.2006637432 -0.5857034591 -1.4258818183
H 4.9890231852 1.714094461 -0.8291643627
H 1.8752818366 -3.2867589382 -0.8081310354
H 6.1822851609 -1.6580064368 0.9350165244
H 7.998694472 0.040050852 1.1125430894
H 7.4074071731 0.4627704028 -0.5223477422
H 7.0075836086 1.9892065627 2.0747412235
H 6.6525263982 2.5779740325 0.4185442856
H 4.4372040415 1.9709377095 1.9925164664
H 2.9710534235 -4.0095973857 0.4227145376
H 3.1250907344 -4.4932498433 -1.3137205327
H -4.8716395627 4.8520861651 0.4602449218
H -6.0680004642 3.9420441822 -0.5459075614
H -4.3592723976 4.0741462731 -1.0918437622
H -0.7039749213 0.9738320219 -1.9239427151
H 0.3222339577 -0.4446455541 -2.3365396099
H 0.5363307597 1.3248251661 0.1612484851
H 0.7956456674 -0.4615704453 0.372912462
$end

$rem
JOBTYPE                   OPT
METHOD                    B3LYP
DFT_D                     d3_op
BASIS                     STO-3G
GEOM_OPT_MAX_CYCLES       100
GEOM_OPT_TOL_GRADIENT     300
GEOM_OPT_TOL_DISPLACEMENT 1200
GEOM_OPT_TOL_ENERGY       100
SYMMETRY                  False
THRESH                    12
SCF_CONVERGENCE           8
MAX_SUB_FILE_NUM          128
MEM_STATIC                400
MEM_TOTAL                 4000
$end
--------------------------------------------------------------

   16   -1510.2517994838      5.94E-09 Convergence criterion met
 Total energy in the final basis set = -1510.25179948
   14   -1510.2580845494      7.24E-09 Convergence criterion met
 Total energy in the final basis set = -1510.25808455
   14   -1510.2636653358      2.34E-09 Convergence criterion met
 Total energy in the final basis set = -1510.26366534
   14   -1510.2679578864      8.17E-09 Convergence criterion met
 Total energy in the final basis set = -1510.26795789
   13   -1510.2708201322      8.53E-09 Convergence criterion met
 Total energy in the final basis set = -1510.27082013
   13   -1510.2729134184      8.50E-09 Convergence criterion met
 Total energy in the final basis set = -1510.27291342
   13   -1510.2747230000      7.85E-09 Convergence criterion met
 Total energy in the final basis set = -1510.27472300
   13   -1510.2761979606      7.21E-09 Convergence criterion met
   12   -1510.2904814157      1.80E-09 Convergence criterion met
 Total energy in the final basis set = -1510.29048142
   11   -1510.2904828389      3.27E-09 Convergence criterion met
 Total energy in the final basis set = -1510.29048284
    9   -1510.2904874925      9.17E-09 Convergence criterion met
 Total energy in the final basis set = -1510.29048749
   11   -1510.2904887241      2.79E-09 Convergence criterion met
 Total energy in the final basis set = -1510.29048872
   11   -1510.2904901122      2.44E-09 Convergence criterion met
 Total energy in the final basis set = -1510.29049011
    9   -1510.2904925349      9.54E-09 Convergence criterion met
 Total energy in the final basis set = -1510.29049253

             Standard Nuclear Orientation (Angstroms)
    I     Atom           X                Y                Z
 ----------------------------------------------------------------
    1      O      -3.8385267223     1.2473215742     1.8727289711
    2      C      -4.1686118064     1.1709791487     0.6695910434
    3      C      -4.7009042590    -0.0858314678    -0.1070406016
    4      C      -3.5999369123    -1.2026274334    -0.3601665026
    5      C      -2.1959399364    -0.8672320185     0.2537819508
    6      O      -1.8701349617     0.4824197220    -0.0800424061
    7      C      -0.6250621973     0.9247771058     0.5969780635
    8      C       0.2273210933     1.7557043752    -0.4221913503
    9      O       1.5809716531     1.9449518341     0.1500780457
   10      C       2.5326740473     1.1294555141    -0.5560681545
   11      C       3.9009367918     1.2398947289     0.1883770826
   12      C       4.4620673336    -0.1599670534     0.6866085868
   13      C       3.5847424589    -1.3978385668     0.2739090768
   14      O       3.9751842302    -2.4139000155    -0.3393464513
   15      O      -4.1837210723     2.2858631795    -0.2338437499
   16      O       2.2421614807    -1.2024774816     0.7320686775
   17      O       2.2708606111     0.4901711916    -1.5985110464
   18      C       1.3964470663    -2.3437518836     0.3005585052
   19      C       5.0736317759     1.6944098372    -0.7873691361
   20      C       6.2864384122     2.1800184991     0.1006522065
   21      C       6.8445969332     0.8053426791     0.6269508202
   22      C       5.8552773125    -0.2115672485    -0.0639386691
   23      O       5.5533725875     0.4223782092    -1.3692689775
   24      H       3.7753214745     1.9439400116     1.0291008369
   25      H       4.5807259434    -0.1618260349     1.7858697900
   26      H       4.7611960351     2.3936321139    -1.5872330379
   27      H       7.0289215111     2.7074263550    -0.5190260154
   28      H       5.9640997409     2.8490669339     0.9145517403
   29      H       7.8773824667     0.6316002289     0.2856883519
   30      H       6.8179283565     0.7276082586     1.7256680437
   31      H       6.2390380570    -1.2392405221    -0.2151786998
   32      O      -1.4648066686    -1.6381454326     0.9158102383
   33      C      -3.6638252854     3.4921964208     0.4481863362
   34      C      -5.7503503660    -0.9103698959     0.7580009606
   35      C      -6.5362986238    -1.8826681556    -0.2085824192
   36      C      -5.4469460107    -2.9855636286    -0.4819734177
   37      C      -4.2422164304    -2.4445943391     0.3829287337
   38      O      -4.9013825469    -1.8242289847     1.5557144810
   39      H      -5.1360760950     0.2602705957    -1.0605428500
   40      H      -3.4689559477    -1.3881583294    -1.4427405338
   41      H      -2.5989862506     3.3696819161     0.7333309192
   42      H      -6.3825138658    -0.2913225580     1.4236455594
   43      H      -7.4174759612    -2.3027169253     0.3019864188
   44      H      -6.8680419636    -1.3748124637    -1.1281562558
   45      H      -5.7705458371    -3.9734279108    -0.1172566853
   46      H      -5.1866648126    -3.0714405652    -1.5491932502
   47      H      -3.4999000182    -3.1994495554     0.7082854023
   48      H      -4.2456280426     3.7305395745     1.3619436676
   49      H      -3.7567313414     4.3203585865    -0.2781901984
   50      H       0.3582501632    -2.1068922971     0.6213044117
   51      H       1.7319430464    -3.2901231617     0.7699981005
   52      H       1.4315534202    -2.4667529717    -0.8006284237
   53      H       0.3202337888     1.2024809515    -1.3828989013
   54      H      -0.2223746567     2.7538897300    -0.5982866728
   55      H      -0.0458269692     0.0443967197     0.9450460764
   56      H      -0.9041215722     1.5395111611     1.4795711855
 ----------------------------------------------------------------

    9   -1510.2904934095      6.59E-09 Convergence criterion met
 Total energy in the final basis set = -1510.29049341
 Final energy is   -1510.29049340948
 **  OPTIMIZATION CONVERGED  **

                    Orbital Energies (a.u.)
 --------------------------------------------------------------

 Alpha MOs
 -- Occupied --
-18.949 -18.933 -18.932 -18.927 -18.895 -18.890 -18.886 -18.877
-18.871 -18.868 -10.116 -10.101 -10.098 -10.094 -10.074 -10.071
-10.065 -10.062 -10.061 -10.060 -10.056 -10.045 -10.043 -10.039
-10.038 -10.036 -10.023 -10.022 -10.020 -10.019  -1.027  -1.014
 -1.007  -1.003  -0.972  -0.969  -0.952  -0.938  -0.933  -0.930
 -0.767  -0.762  -0.731  -0.723  -0.712  -0.707  -0.698  -0.664
 -0.652  -0.619  -0.599  -0.582  -0.549  -0.544  -0.540  -0.536
 -0.516  -0.508  -0.485  -0.477  -0.462  -0.460  -0.457  -0.450
 -0.440  -0.432  -0.430  -0.417  -0.413  -0.410  -0.403  -0.401
 -0.400  -0.387  -0.372  -0.368  -0.363  -0.361  -0.355  -0.351
 -0.346  -0.337  -0.334  -0.333  -0.330  -0.327  -0.326  -0.314
 -0.309  -0.309  -0.304  -0.303  -0.294  -0.289  -0.282  -0.276
 -0.271  -0.258  -0.253  -0.251  -0.245  -0.236  -0.233  -0.192
 -0.176  -0.175  -0.172  -0.169  -0.160  -0.150  -0.148  -0.146
 -0.143

          Ground-State Mulliken Net Atomic Charges

     Atom                 Charge (a.u.)
  ----------------------------------------
      1 O                    -0.219963
      2 C                     0.212060
      3 C                    -0.079629
      4 C                    -0.077447
      5 C                     0.223372
      6 O                    -0.169968
      7 C                    -0.054513
      8 C                    -0.055075
      9 O                    -0.172984
     10 C                     0.213691
     11 C                    -0.079461
     12 C                    -0.078484
     13 C                     0.211678
     14 O                    -0.209314
     15 O                    -0.169843
     16 O                    -0.177737
     17 O                    -0.213595
     18 C                    -0.143868
     19 C                     0.025910
     20 C                    -0.143618
     21 C                    -0.144394
     22 C                     0.024496
     23 O                    -0.186486
     24 H                     0.086710
     25 H                     0.084721
     26 H                     0.082943
     27 H                     0.078114
     28 H                     0.073429
     29 H                     0.078381
     30 H                     0.073206
     31 H                     0.091666
     32 O                    -0.209205
     33 C                    -0.128238
     34 C                     0.025514
     35 C                    -0.143811
     36 C                    -0.144054
     37 C                     0.024277
     38 O                    -0.186617
     39 H                     0.086584
     40 H                     0.087774
     41 H                     0.083851
     42 H                     0.084620
     43 H                     0.078707
     44 H                     0.073885
     45 H                     0.079204
     46 H                     0.073542
     47 H                     0.090809
     48 H                     0.089332
     49 H                     0.089156
     50 H                     0.106499
     51 H                     0.083424
     52 H                     0.086190
     53 H                     0.103496
     54 H                     0.085019
     55 H                     0.106136
     56 H                     0.089907
  ----------------------------------------
  Sum of atomic charges =     0.000000

                    Cartesian Multipole Moments
 -----------------------------------------------------------------
    Charge (ESU x 10^10)
                -0.0000
    Dipole Moment (Debye)
         X      -1.4653      Y       2.2723      Z      -0.1198
       Tot       2.7065
    Quadrupole Moments (Debye-Ang)
        XX    -147.6259     XY       8.9463     YY    -153.5549
        XZ      19.5144     YZ       2.0621     ZZ    -168.9461

 Total job time:  147.03s(wall), 6993.31s(cpu)
        *  Thank you very much for using Q-Chem.  Have a nice day.  *
