 Q-Chem 5.0, Q-Chem, Inc., Pleasanton, CA (2017)
 Q-Chem 5.0.1 for Intel X86 EM64T Linux

User input:
--------------------------------------------------------------
$molecule
0  1
O -1.4969138936 1.534755423 1.5976005006
C -1.8463233759 1.7565404311 0.4196205021
C -2.6616175508 0.8705308207 -0.5897378182
C -2.9700499458 -0.6381016528 -0.2108572265
C -2.3462010039 -1.2755667285 1.0948091495
O -1.9243404969 -2.6609920058 0.9880300509
C -1.1148812715 -3.039300041 -0.1842388665
C 0.4187467238 -3.2199699162 0.2143220548
O 1.3112164794 -2.7172071693 -0.8441928337
C 1.5983342355 -1.2971190657 -0.7969398268
C 2.0127207499 -0.6730225457 0.5911180519
C 3.5742621893 -0.3652460422 0.7070224161
C 4.4006574719 -0.7179742502 -0.5786686567
O 5.1509433932 -1.7074102152 -0.7332824011
O -1.5412807943 2.968000696 -0.2879483109
O 4.1906440946 0.2940959467 -1.5642598929
O 1.643405299 -0.6849481779 -1.8858971217
C 4.9043025458 -0.056307954 -2.8134775707
C 1.4097670505 0.7761867328 0.7994930053
C 1.4999655688 1.1197501715 2.3366834898
C 3.038682178 1.4149951626 2.4864239252
C 3.539047119 1.1970351456 1.0021742525
O 2.4051591791 1.6765318297 0.1801631962
H 1.7151366905 -1.3359271691 1.4170555711
H 4.0135001522 -0.934114715 1.545665224
H 0.415399065 0.9250951327 0.344802066
H 0.8830370448 2.002517678 2.5665442793
H 1.1583073062 0.2847044553 2.968314728
H 3.2226557935 2.4535392873 2.8045292724
H 3.5369153888 0.7355373917 3.1962233668
H 4.4686427513 1.7335243663 0.7315399603
O -2.4363899855 -0.8051270385 2.2474927549
C -0.7069551735 3.8612711984 0.5490044091
C -4.1427463072 1.4495105443 -0.7037518349
C -4.8362189561 0.8567643064 -1.9938427309
C -5.1848953267 -0.6001339842 -1.5117691497
C -4.5645783006 -0.588707725 -0.0611037059
O -4.8386561324 0.7814846728 0.4182611186
H -2.1403673404 0.9247377214 -1.5625294934
H -2.718615731 -1.2708161218 -1.0755744803
H 0.348776033 3.5173247284 0.5638646275
H -4.2018274947 2.550575301 -0.6022329894
H -5.7431515406 1.4307386389 -2.2416230732
H -4.1626752235 0.8680352971 -2.8657226779
H -6.2741787103 -0.7571741345 -1.4594400124
H -4.7446852427 -1.3815513004 -2.151393558
H -4.9840487837 -1.3368524851 0.6393043349
H -1.081654216 3.9125403602 1.5909106121
H -0.7573305444 4.8611045339 0.080089113
H 4.7491927431 0.7960123897 -3.4999040159
H 4.4887248201 -0.9781624853 -3.2692947278
H 5.9894732228 -0.2051277914 -2.6383926036
H 0.5766922091 -2.7409361725 1.2028387565
H 0.6541918793 -4.2986311253 0.3177326917
H -1.1616442441 -2.3014573943 -1.0117457319
H -1.5182251455 -4.0018325639 -0.5623909396
$end

$rem
JOBTYPE                   OPT
METHOD                    B3LYP
DFT_D                     d3_op
BASIS                     STO-3G
GEOM_OPT_MAX_CYCLES       100
GEOM_OPT_TOL_GRADIENT     300
GEOM_OPT_TOL_DISPLACEMENT 1200
GEOM_OPT_TOL_ENERGY       100
SYMMETRY                  False
THRESH                    12
SCF_CONVERGENCE           8
MAX_SUB_FILE_NUM          128
MEM_STATIC                400
MEM_TOTAL                 4000
$end
--------------------------------------------------------------

   16   -1510.2424247830      6.84E-09 Convergence criterion met
 Total energy in the final basis set = -1510.24242478
   15   -1510.2388691430      4.37E-09 Convergence criterion met
 Total energy in the final basis set = -1510.23886914
   14   -1510.2428827007      6.41E-09 Convergence criterion met
 Total energy in the final basis set = -1510.24288270
   15   -1510.2080709492      6.07E-09 Convergence criterion met
 Total energy in the final basis set = -1510.20807095
   15   -1510.2433253344      5.68E-09 Convergence criterion met
 Total energy in the final basis set = -1510.24332533
   14   -1510.2455547142      8.80E-09 Convergence criterion met
 Total energy in the final basis set = -1510.24555471
   13   -1510.2474458096      8.20E-09 Convergence criterion met
 Total energy in the final basis set = -1510.24744581
   13   -1510.2498796392      9.15E-09 Convergence criterion met
   11   -1510.2793267820      6.11E-09 Convergence criterion met
 Total energy in the final basis set = -1510.27932678
   11   -1510.2793378206      6.08E-09 Convergence criterion met
 Total energy in the final basis set = -1510.27933782
   10   -1510.2793447327      5.40E-09 Convergence criterion met
 Total energy in the final basis set = -1510.27934473
   11   -1510.2793491389      4.63E-09 Convergence criterion met
 Total energy in the final basis set = -1510.27934914
   11   -1510.2793510739      3.55E-09 Convergence criterion met
 Total energy in the final basis set = -1510.27935107
    9   -1510.2793521450      2.53E-09 Convergence criterion met
 Total energy in the final basis set = -1510.27935215

             Standard Nuclear Orientation (Angstroms)
    I     Atom           X                Y                Z
 ----------------------------------------------------------------
    1      O      -1.1574230475     1.1951978596     0.1315900149
    2      C      -1.4547576079     0.6312163623    -0.9488611413
    3      C      -2.7480751537    -0.2232513723    -1.1751300102
    4      C      -3.3260610329    -0.7621906562     0.1982637221
    5      C      -2.4355391824    -0.4213853710     1.4649061266
    6      O      -1.1635608432    -1.1235390415     1.6241016880
    7      C      -0.9819434985    -2.2967367315     0.7451122579
    8      C       0.5075879261    -2.8033708095     0.8959818932
    9      O       1.2682638350    -2.5176714391    -0.3376546018
   10      C       2.0680216412    -1.3272429591    -0.3696462585
   11      C       2.5019468381    -0.6163638421     0.9682116747
   12      C       3.6649146066     0.4354409648     0.7112189935
   13      C       4.2453311763     0.4480978656    -0.7558611759
   14      O       5.1785256815    -0.2683223862    -1.1801897333
   15      O      -0.6925910109     0.6707908765    -2.1410299122
   16      O       3.6621263181     1.5338350893    -1.4923528692
   17      O       2.4528138406    -0.9624166540    -1.5059695286
   18      C       4.1799822696     1.5272567806    -2.8771962533
   19      C       1.3668368966     0.3286925057     1.5607605109
   20      C       1.7988222521     0.7745177244     3.0110953870
   21      C       2.8964111667     1.8584194466     2.6991147298
   22      C       2.9483093881     1.7880305067     1.1256026240
   23      O       1.5270108440     1.5640758124     0.7611928187
   24      H       2.8207820908    -1.3808836082     1.6990711236
   25      H       4.5141867353     0.2145196644     1.3824362152
   26      H       0.3278073265    -0.0747274302     1.4921852062
   27      H       0.9383569188     1.2078027558     3.5450972310
   28      H       2.1913304389    -0.0690065508     3.6015476548
   29      H       2.5781739274     2.8603805812     3.0285122265
   30      H       3.8707279645     1.6267352550     3.1579509697
   31      H       3.3393687609     2.6879943828     0.6144903948
   32      O      -2.7791218799     0.3350860854     2.3941625289
   33      C       0.5246551536     1.5119829635    -1.9726535116
   34      C      -3.9451688467     0.7120897340    -1.6506418463
   35      C      -5.1496743347    -0.2032744947    -2.1061560072
   36      C      -5.7173470757    -0.6743034793    -0.7157335493
   37      C      -4.7045478671     0.0205735128     0.2751789553
   38      O      -4.4128126345     1.3146308679    -0.3832664231
   39      H      -2.5471733087    -1.0277346273    -1.9044140466
   40      H      -3.4994838691    -1.8515966577     0.1561796147
   41      H       1.2866182393     1.0834921213    -2.6480887676
   42      H      -3.6488236441     1.4976627518    -2.3729866499
   43      H      -5.8905272738     0.3864391856    -2.6687830629
   44      H      -4.8140100266    -1.0430896487    -2.7354283435
   45      H      -6.7379720046    -0.2950711520    -0.5485943125
   46      H      -5.7255257634    -1.7706020015    -0.6065145223
   47      H      -5.0683662433     0.1874700984     1.3075030586
   48      H       0.9025287478     1.5108168484    -0.9156129612
   49      H       0.2987811793     2.5514222568    -2.2847629695
   50      H       3.7341829158     2.4077961519    -3.3757026565
   51      H       3.8783985326     0.6042401365    -3.4137924881
   52      H       5.2862497956     1.6044179382    -2.9034426143
   53      H       0.9584804669    -2.3784295143     1.8144597964
   54      H       0.5056894175    -3.9094452273     0.9878859943
   55      H      -1.1478283076    -2.0620439209    -0.3275692411
   56      H      -1.6827580570    -3.1093188431     1.0380468234
 ----------------------------------------------------------------

    9   -1510.2793519194      1.58E-09 Convergence criterion met
 Total energy in the final basis set = -1510.27935192
 Final energy is   -1510.27935191935
 **  OPTIMIZATION CONVERGED  **

                    Orbital Energies (a.u.)
 --------------------------------------------------------------

 Alpha MOs
 -- Occupied --
-18.944 -18.936 -18.932 -18.918 -18.898 -18.891 -18.890 -18.882
-18.875 -18.853 -10.111 -10.106 -10.098 -10.092 -10.089 -10.087
-10.064 -10.061 -10.058 -10.053 -10.047 -10.042 -10.041 -10.041
-10.033 -10.027 -10.024 -10.023 -10.017 -10.015  -1.019  -1.012
 -1.004  -0.995  -0.973  -0.972  -0.950  -0.941  -0.933  -0.921
 -0.766  -0.762  -0.725  -0.723  -0.718  -0.708  -0.704  -0.651
 -0.647  -0.612  -0.599  -0.598  -0.554  -0.544  -0.541  -0.536
 -0.520  -0.508  -0.493  -0.480  -0.466  -0.462  -0.458  -0.451
 -0.443  -0.435  -0.430  -0.414  -0.410  -0.403  -0.402  -0.396
 -0.394  -0.389  -0.388  -0.368  -0.362  -0.360  -0.351  -0.346
 -0.339  -0.336  -0.335  -0.331  -0.329  -0.320  -0.320  -0.313
 -0.312  -0.306  -0.303  -0.300  -0.296  -0.289  -0.282  -0.280
 -0.273  -0.257  -0.252  -0.245  -0.240  -0.236  -0.224  -0.188
 -0.176  -0.171  -0.161  -0.158  -0.154  -0.150  -0.148  -0.146
 -0.136

          Ground-State Mulliken Net Atomic Charges

     Atom                 Charge (a.u.)
  ----------------------------------------
      1 O                    -0.205816
      2 C                     0.205948
      3 C                    -0.082634
      4 C                    -0.086584
      5 C                     0.220367
      6 O                    -0.179707
      7 C                    -0.051986
      8 C                    -0.047570
      9 O                    -0.170845
     10 C                     0.213833
     11 C                    -0.086819
     12 C                    -0.081660
     13 C                     0.214466
     14 O                    -0.224591
     15 O                    -0.170896
     16 O                    -0.173781
     17 O                    -0.192683
     18 C                    -0.128091
     19 C                     0.008240
     20 C                    -0.144145
     21 C                    -0.143402
     22 C                     0.026702
     23 O                    -0.182089
     24 H                     0.079983
     25 H                     0.082903
     26 H                     0.112520
     27 H                     0.084575
     28 H                     0.069162
     29 H                     0.079710
     30 H                     0.072686
     31 H                     0.091330
     32 O                    -0.192475
     33 C                    -0.152367
     34 C                     0.026338
     35 C                    -0.144153
     36 C                    -0.144103
     37 C                     0.025972
     38 O                    -0.185770
     39 H                     0.083556
     40 H                     0.077468
     41 H                     0.088038
     42 H                     0.086060
     43 H                     0.079453
     44 H                     0.073648
     45 H                     0.079455
     46 H                     0.071806
     47 H                     0.092085
     48 H                     0.125036
     49 H                     0.074586
     50 H                     0.086023
     51 H                     0.091549
     52 H                     0.086755
     53 H                     0.096157
     54 H                     0.093363
     55 H                     0.090923
     56 H                     0.081469
  ----------------------------------------
  Sum of atomic charges =    -0.000000

                    Cartesian Multipole Moments
 -----------------------------------------------------------------
    Charge (ESU x 10^10)
                 0.0000
    Dipole Moment (Debye)
         X      -1.1729      Y      -2.8567      Z       0.2593
       Tot       3.0990
    Quadrupole Moments (Debye-Ang)
        XX    -159.9185     XY      16.2775     YY    -155.4078
        XZ      14.3295     YZ      -9.2853     ZZ    -159.4981

 Total job time:  170.85s(wall), 8150.25s(cpu)
        *  Thank you very much for using Q-Chem.  Have a nice day.  *
