 Q-Chem 5.0, Q-Chem, Inc., Pleasanton, CA (2017)
 Q-Chem 5.0.1 for Intel X86 EM64T Linux

User input:
--------------------------------------------------------------
$molecule
0  1
O -3.94934 -3.66094 2.70899
C -3.26408 -4.56952 2.26188
C -3.36658 -6.02376 2.66595
C -4.25419 -6.35572 3.87665
C -5.08044 -5.22016 4.4387
O -5.1201 -5.30534 5.80127
C -3.83321 -5.5221 6.38964
C -3.31762 -4.23085 7.01652
O -1.90155 -4.11589 6.80577
C -1.5308 -3.56701 5.62238
C -2.28785 -2.30116 5.29808
C -1.49368 -1.00232 5.49951
C 0.00681 -1.16057 5.64165
O 0.632 -1.07971 6.6891
O -2.48292 -4.33736 1.16988
O 0.7067 -1.52269 4.52972
O -0.48884 -3.89623 5.07774
C 2.0673 -1.74763 4.49587
C -2.37252 -1.95813 3.75356
C -3.67603 -1.16793 3.49879
C -3.30266 0.14995 4.15762
C -1.79756 -0.0853 4.34373
O -1.459 -0.96455 3.3529
H -3.28195 -2.11457 5.70452
H -1.82082 -0.56674 6.47123
H -2.02612 -2.82953 3.21616
H -3.73462 -1.00662 2.39772
H -4.63952 -1.59683 3.84991
H -3.53639 0.97929 3.45494
H -3.77358 0.33354 5.14819
H -1.20617 0.8557 4.38587
O -5.98151 -4.66508 3.82393
C -2.46662 -3.17677 0.42259
C -4.02855 -6.83439 1.54107
C -3.72924 -8.3253 1.71406
C -4.68403 -8.66478 2.83324
C -5.27034 -7.28024 3.13191
O -5.39149 -6.72191 1.84681
H -2.31961 -6.34879 2.85608
H -3.83203 -7.11194 4.57118
H -2.12694 -2.31234 1.02237
H -3.7247 -6.50036 0.52488
H -4.03531 -8.88909 0.80463
H -2.65564 -8.51393 1.93185
H -5.50734 -9.28653 2.41337
H -4.23688 -9.19618 3.70055
H -6.22564 -7.40826 3.69034
H -3.47892 -2.97475 0.01257
H -1.76045 -3.30389 -0.42315
H 2.36367 -2.02624 3.46393
H 2.33478 -2.5798 5.18158
H 2.6145 -0.82661 4.78979
H -4.00609 -3.37821 6.96131
H -3.44004 -4.40599 8.10672
H -2.98536 -5.75938 5.72408
H -3.87048 -6.36487 7.11386
$end

$opt
CONSTRAINT
tors           1           2           3           4      -9.474
tors           3           4           5           6    -142.105
tors           4           5           6           7     +47.368
tors           5           6           7           8    +104.211
tors           6           7           8           9    -142.105
tors           7           8           9          10     +85.263
tors           8           9          10          11     +47.368
tors           9          10          11          12    +104.211
tors          11          12          13          14    -104.211
ENDCONSTRAINT
$end

$rem
JOBTYPE                   OPT
METHOD                    B3LYP
DFT_D                     d3_op
BASIS                     STO-3G
GEOM_OPT_MAX_CYCLES       100
GEOM_OPT_TOL_GRADIENT     300
GEOM_OPT_TOL_DISPLACEMENT 1200
GEOM_OPT_TOL_ENERGY       100
SYMMETRY                  False
THRESH                    12
SCF_CONVERGENCE           8
MAX_SUB_FILE_NUM          128
MEM_STATIC                400
MEM_TOTAL                 4000
$end
--------------------------------------------------------------

   15   -1510.0321412093      8.48E-09 Convergence criterion met
 Total energy in the final basis set = -1510.03214121
   15   -1510.1130650388      2.88E-09 Convergence criterion met
 Total energy in the final basis set = -1510.11306504
   14   -1510.1675659858      7.18E-09 Convergence criterion met
 Total energy in the final basis set = -1510.16756599
   14   -1510.1981895186      6.07E-09 Convergence criterion met
 Total energy in the final basis set = -1510.19818952
   13   -1510.2161144871      5.62E-09 Convergence criterion met
 Total energy in the final basis set = -1510.21611449
   13   -1510.2264917716      7.47E-09 Convergence criterion met
 Total energy in the final basis set = -1510.22649177
   13   -1510.2329208339      6.44E-09 Convergence criterion met
 Total energy in the final basis set = -1510.23292083
   13   -1510.2367916479      5.72E-09 Convergence criterion met
   11   -1510.2424879313      8.80E-09 Convergence criterion met
 Total energy in the final basis set = -1510.24248793
   11   -1510.2425487477      4.97E-09 Convergence criterion met
 Total energy in the final basis set = -1510.24254875
   11   -1510.2425931794      4.24E-09 Convergence criterion met
 Total energy in the final basis set = -1510.24259318
   11   -1510.2426152925      4.62E-09 Convergence criterion met
 Total energy in the final basis set = -1510.24261529
   10   -1510.2426217816      5.07E-09 Convergence criterion met
 Total energy in the final basis set = -1510.24262178
    9   -1510.2426235184      7.46E-09 Convergence criterion met
 Total energy in the final basis set = -1510.24262352

             Standard Nuclear Orientation (Angstroms)
    I     Atom           X                Y                Z
 ----------------------------------------------------------------
    1      O      -1.4969138936     1.5347554230     1.5976005006
    2      C      -1.8463233759     1.7565404311     0.4196205021
    3      C      -2.6616175508     0.8705308207    -0.5897378182
    4      C      -2.9700499458    -0.6381016528    -0.2108572265
    5      C      -2.3462010039    -1.2755667285     1.0948091495
    6      O      -1.9243404969    -2.6609920058     0.9880300509
    7      C      -1.1148812715    -3.0393000410    -0.1842388665
    8      C       0.4187467238    -3.2199699162     0.2143220548
    9      O       1.3112164794    -2.7172071693    -0.8441928337
   10      C       1.5983342355    -1.2971190657    -0.7969398268
   11      C       2.0127207499    -0.6730225457     0.5911180519
   12      C       3.5742621893    -0.3652460422     0.7070224161
   13      C       4.4006574719    -0.7179742502    -0.5786686567
   14      O       5.1509433932    -1.7074102152    -0.7332824011
   15      O      -1.5412807943     2.9680006960    -0.2879483109
   16      O       4.1906440946     0.2940959467    -1.5642598929
   17      O       1.6434052990    -0.6849481779    -1.8858971217
   18      C       4.9043025458    -0.0563079540    -2.8134775707
   19      C       1.4097670505     0.7761867328     0.7994930053
   20      C       1.4999655688     1.1197501715     2.3366834898
   21      C       3.0386821780     1.4149951626     2.4864239252
   22      C       3.5390471190     1.1970351456     1.0021742525
   23      O       2.4051591791     1.6765318297     0.1801631962
   24      H       1.7151366905    -1.3359271691     1.4170555711
   25      H       4.0135001522    -0.9341147150     1.5456652240
   26      H       0.4153990650     0.9250951327     0.3448020660
   27      H       0.8830370448     2.0025176780     2.5665442793
   28      H       1.1583073062     0.2847044553     2.9683147280
   29      H       3.2226557935     2.4535392873     2.8045292724
   30      H       3.5369153888     0.7355373917     3.1962233668
   31      H       4.4686427513     1.7335243663     0.7315399603
   32      O      -2.4363899855    -0.8051270385     2.2474927549
   33      C      -0.7069551735     3.8612711984     0.5490044091
   34      C      -4.1427463072     1.4495105443    -0.7037518349
   35      C      -4.8362189561     0.8567643064    -1.9938427309
   36      C      -5.1848953267    -0.6001339842    -1.5117691497
   37      C      -4.5645783006    -0.5887077250    -0.0611037059
   38      O      -4.8386561324     0.7814846728     0.4182611186
   39      H      -2.1403673404     0.9247377214    -1.5625294934
   40      H      -2.7186157310    -1.2708161218    -1.0755744803
   41      H       0.3487760330     3.5173247284     0.5638646275
   42      H      -4.2018274947     2.5505753010    -0.6022329894
   43      H      -5.7431515406     1.4307386389    -2.2416230732
   44      H      -4.1626752235     0.8680352971    -2.8657226779
   45      H      -6.2741787103    -0.7571741345    -1.4594400124
   46      H      -4.7446852427    -1.3815513004    -2.1513935580
   47      H      -4.9840487837    -1.3368524851     0.6393043349
   48      H      -1.0816542160     3.9125403602     1.5909106121
   49      H      -0.7573305444     4.8611045339     0.0800891130
   50      H       4.7491927431     0.7960123897    -3.4999040159
   51      H       4.4887248201    -0.9781624853    -3.2692947278
   52      H       5.9894732228    -0.2051277914    -2.6383926036
   53      H       0.5766922091    -2.7409361725     1.2028387565
   54      H       0.6541918793    -4.2986311253     0.3177326917
   55      H      -1.1616442441    -2.3014573943    -1.0117457319
   56      H      -1.5182251455    -4.0018325639    -0.5623909396
 ----------------------------------------------------------------

    9   -1510.2426242342      5.63E-09 Convergence criterion met
 Total energy in the final basis set = -1510.24262423
 Final energy is   -1510.24262423417
 **  OPTIMIZATION CONVERGED  **

                    Orbital Energies (a.u.)
 --------------------------------------------------------------

 Alpha MOs
 -- Occupied --
-18.933 -18.932 -18.927 -18.924 -18.896 -18.890 -18.890 -18.889
-18.883 -18.870 -10.105 -10.104 -10.103 -10.095 -10.080 -10.079
-10.067 -10.066 -10.062 -10.061 -10.059 -10.059 -10.045 -10.043
-10.040 -10.039 -10.026 -10.025 -10.019 -10.016  -1.015  -1.012
 -1.007  -1.004  -0.978  -0.971  -0.945  -0.940  -0.936  -0.931
 -0.768  -0.764  -0.727  -0.721  -0.715  -0.708  -0.706  -0.663
 -0.656  -0.610  -0.604  -0.600  -0.552  -0.548  -0.544  -0.538
 -0.522  -0.515  -0.485  -0.476  -0.468  -0.462  -0.457  -0.452
 -0.438  -0.438  -0.430  -0.418  -0.414  -0.411  -0.407  -0.404
 -0.398  -0.387  -0.379  -0.374  -0.364  -0.360  -0.354  -0.348
 -0.343  -0.341  -0.336  -0.335  -0.331  -0.322  -0.320  -0.316
 -0.312  -0.307  -0.306  -0.303  -0.302  -0.295  -0.290  -0.279
 -0.273  -0.254  -0.252  -0.244  -0.241  -0.237  -0.235  -0.190
 -0.179  -0.173  -0.169  -0.161  -0.154  -0.151  -0.147  -0.145
 -0.142

          Ground-State Mulliken Net Atomic Charges

     Atom                 Charge (a.u.)
  ----------------------------------------
      1 O                    -0.202083
      2 C                     0.206762
      3 C                    -0.079458
      4 C                    -0.086360
      5 C                     0.206345
      6 O                    -0.183567
      7 C                    -0.051141
      8 C                    -0.049097
      9 O                    -0.180530
     10 C                     0.203564
     11 C                    -0.084197
     12 C                    -0.078111
     13 C                     0.203543
     14 O                    -0.214943
     15 O                    -0.172854
     16 O                    -0.159886
     17 O                    -0.186325
     18 C                    -0.126595
     19 C                     0.023948
     20 C                    -0.143472
     21 C                    -0.145306
     22 C                     0.026981
     23 O                    -0.185518
     24 H                     0.079401
     25 H                     0.084447
     26 H                     0.081149
     27 H                     0.084184
     28 H                     0.077177
     29 H                     0.077084
     30 H                     0.073560
     31 H                     0.085096
     32 O                    -0.176984
     33 C                    -0.132678
     34 C                     0.026866
     35 C                    -0.144491
     36 C                    -0.143475
     37 C                     0.027298
     38 O                    -0.185421
     39 H                     0.088646
     40 H                     0.077576
     41 H                     0.093104
     42 H                     0.087655
     43 H                     0.079827
     44 H                     0.075537
     45 H                     0.079815
     46 H                     0.073451
     47 H                     0.086182
     48 H                     0.092391
     49 H                     0.090659
     50 H                     0.092384
     51 H                     0.090674
     52 H                     0.087680
     53 H                     0.086164
     54 H                     0.091842
     55 H                     0.083548
     56 H                     0.087952
  ----------------------------------------
  Sum of atomic charges =     0.000000

                    Cartesian Multipole Moments
 -----------------------------------------------------------------
    Charge (ESU x 10^10)
                -0.0000
    Dipole Moment (Debye)
         X      -0.4432      Y       0.1429      Z      -1.2522
       Tot       1.3360
    Quadrupole Moments (Debye-Ang)
        XX    -160.4711     XY       7.7156     YY    -154.9999
        XZ      15.6209     YZ       1.1837     ZZ    -163.9170

 Total job time:  66.50s(wall), 3171.73s(cpu)
        *  Thank you very much for using Q-Chem.  Have a nice day.  *
