 Q-Chem 5.0, Q-Chem, Inc., Pleasanton, CA (2017)
 Q-Chem 5.0.1 for Intel X86 EM64T Linux

User input:
--------------------------------------------------------------
$molecule
0  1
O -2.8112433798 -1.3210622232 1.3937480202
C -2.2396857643 -1.3042748332 0.3129861076
C -1.8167786273 -0.058831953 -0.4344189887
C -1.4958112859 1.1890450633 0.4044199662
C -1.4613736786 1.0023408176 1.9050964915
O -0.7746346272 2.0307094357 2.4849889426
C 0.2231124249 2.5956236142 1.6278862239
C 1.5197302214 1.799710639 1.7347993725
O 2.3524253354 2.0653304694 0.5950784999
C 1.8706725919 1.6260975881 -0.5940914583
C 0.9765816041 0.4168607279 -0.4562119866
C 1.7114750283 -0.9311281706 -0.4228521903
C 3.2047585966 -0.8636299127 -0.1733479866
O 3.7979830156 -1.4283781082 0.734238816
O -2.7480374196 -2.2429088108 -0.5623240177
O 3.9444048132 -0.153384396 -1.0700024719
O 2.1697071851 2.1482603652 -1.6567882935
C 5.3126140364 0.0053299534 -1.0024003346
C 0.3580759996 -1.0358754377 0.5172041202
C -0.2089903129 -2.4527750062 -0.3296317882
C 0.8796012905 -3.2997367757 -0.4513757663
C 1.6608748381 -2.3321281667 0.2896577451
O 1.1643863202 -1.7629336535 1.3818947358
H 0.5049244988 0.3579398498 -1.4342859334
H 1.8237804289 -1.202896427 -1.5154127757
H -0.2721877095 -0.755086015 1.3136861853
H -0.8118438488 -3.0915230803 0.3715675932
H -0.6260853854 -2.2770663929 -1.3500178753
H 0.7891854728 -4.2933352241 0.0652005752
H 1.2985544875 -3.417173375 -1.4776281965
H 2.5026861975 -3.0477929914 0.5036884559
O -2.3172828314 0.50971621 2.6275730327
C -3.5647043903 -3.3051482002 -0.2218480193
C -1.9337206654 0.4748234572 -1.9133760211
C -3.3002901322 1.0809395149 -2.277981539
C -3.2781121829 2.2984907083 -1.3504333844
C -1.8086853356 2.2426263224 -0.7941240192
O -1.1677541422 1.660545266 -1.8908952654
H -2.9176378969 0.0271510391 -0.3284864034
H -2.4361288512 1.6671254666 0.7567258965
H -4.5170450923 -2.9324536165 0.2115354301
H -1.5832777691 -0.2762338186 -2.6524547105
H -3.2332445176 1.4204560496 -3.3366968603
H -4.1789213827 0.4099786668 -2.1616851124
H -3.431726341 3.199932915 -1.9846747421
H -4.046947671 2.2932090883 -0.5478045541
H -1.5188641137 3.2970923505 -0.610705953
H -3.0543735496 -3.9663424167 0.5098576237
H -3.7956817109 -3.8917205635 -1.1343568052
H 5.6486334853 0.6287602894 -1.8561001821
H 5.8161085944 -0.9832579626 -1.0604743173
H 5.591337645 0.5151241519 -0.0554396027
H 2.0462380988 2.1182152051 2.6603070233
H 1.38267153 0.7271825112 1.9161392134
H 0.4753956407 3.5934732886 2.0468070828
H 0.0087500665 2.9419248725 0.6308736914
$end

$rem
JOBTYPE                   OPT
METHOD                    B3LYP
DFT_D                     d3_op
BASIS                     STO-3G
GEOM_OPT_MAX_CYCLES       100
GEOM_OPT_TOL_GRADIENT     300
GEOM_OPT_TOL_DISPLACEMENT 1200
GEOM_OPT_TOL_ENERGY       100
SYMMETRY                  False
THRESH                    12
SCF_CONVERGENCE           8
MAX_SUB_FILE_NUM          128
MEM_STATIC                400
MEM_TOTAL                 4000
$end
--------------------------------------------------------------

   17   -1509.3390833378      9.11E-09 Convergence criterion met
 Total energy in the final basis set = -1509.33908334
   15   -1509.4279979462      8.12E-09 Convergence criterion met
 Total energy in the final basis set = -1509.42799795
   14   -1509.5417350895      6.57E-09 Convergence criterion met
 Total energy in the final basis set = -1509.54173509
   14   -1509.6329204791      7.15E-09 Convergence criterion met
 Total energy in the final basis set = -1509.63292048
   14   -1509.7115958213      4.95E-09 Convergence criterion met
 Total energy in the final basis set = -1509.71159582
   14   -1509.7796491543      4.09E-09 Convergence criterion met
 Total energy in the final basis set = -1509.77964915
   14   -1509.8388673660      4.79E-09 Convergence criterion met
 Total energy in the final basis set = -1509.83886737
   14   -1509.8902625529      5.56E-09 Convergence criterion met
   11   -1510.2861089342      9.83E-09 Convergence criterion met
 Total energy in the final basis set = -1510.28610893
   11   -1510.2861327285      9.47E-09 Convergence criterion met
 Total energy in the final basis set = -1510.28613273
   11   -1510.2861466667      7.38E-09 Convergence criterion met
 Total energy in the final basis set = -1510.28614667
    9   -1510.2861484958      9.56E-09 Convergence criterion met
 Total energy in the final basis set = -1510.28614850
    9   -1510.2861520764      5.04E-09 Convergence criterion met
 Total energy in the final basis set = -1510.28615208
    9   -1510.2861533797      2.93E-09 Convergence criterion met
 Total energy in the final basis set = -1510.28615338

             Standard Nuclear Orientation (Angstroms)
    I     Atom           X                Y                Z
 ----------------------------------------------------------------
    1      O      -1.8804011721    -1.0068259290    -1.0670464468
    2      C      -2.3224442204    -0.0677609838    -1.7682861047
    3      C      -3.2932337195     1.0551579132    -1.2568023111
    4      C      -3.2808288218     1.2095896514     0.3205991963
    5      C      -2.4516503104     0.0921505830     1.1072684000
    6      O      -1.0323336912     0.1436277628     1.3177085516
    7      C      -0.2372863612     1.2216940114     0.6831866075
    8      C       1.1119815810     0.6246017658     0.1454011300
    9      O       0.8759359461    -0.1975819235    -1.0663595343
   10      C       0.8995868684    -1.6130559205    -0.9259527296
   11      C       1.4230578527    -2.3743399918     0.3601457680
   12      C       2.9969377209    -2.3101538625     0.5888793563
   13      C       3.7122409506    -1.2153778585    -0.2808336791
   14      O       4.3971472270    -0.2492573747     0.1169560622
   15      O      -2.0777336912     0.1392097322    -3.1481854232
   16      O       3.4381109984    -1.5063764124    -1.6543483042
   17      O       0.5151766155    -2.2763604140    -1.9260942802
   18      C       3.9526612396    -0.4261607426    -2.5264401981
   19      C       0.8808233483    -1.9247855504     1.7866607435
   20      C       1.0287364076    -3.1459524758     2.7649662490
   21      C       2.5920368730    -3.1914098177     2.9724603845
   22      C       3.0606467849    -1.9472423674     2.1232743252
   23      O       1.9337193853    -0.9929745153     2.2777971306
   24      H       1.1283187810    -3.4207629277     0.1679142034
   25      H       3.4608368700    -3.2892587366     0.3707141094
   26      H      -0.0915096485    -1.3753446630     1.7557720413
   27      H       0.5048088981    -2.9439981101     3.7129100617
   28      H       0.6296430486    -4.0768001043     2.3318418849
   29      H       2.8633608126    -3.0589593752     4.0318537162
   30      H       3.0413987597    -4.1293003120     2.6083368983
   31      H       4.0112720985    -1.4734907736     2.4367025486
   32      O      -3.0493909617    -0.8461796538     1.6822586290
   33      C      -1.2639498093    -0.9577151415    -3.7380458929
   34      C      -2.8936665546     2.5132428562    -1.7240144756
   35      C      -4.1280812681     3.4681391974    -1.5020868707
   36      C      -4.1186872805     3.6217327334     0.0658587529
   37      C      -2.8739752450     2.7380281662     0.4620061591
   38      O      -1.9411658803     2.9617071316    -0.6760791867
   39      H      -4.3077811419     0.8016448934    -1.6161484751
   40      H      -4.3055917017     1.0681934422     0.7066016870
   41      H      -1.9409747557    -1.7567700851    -4.1031566797
   42      H      -2.4197936705     2.5535465318    -2.7238322653
   43      H      -3.9636195466     4.4356332567    -2.0026614647
   44      H      -5.0636381505     3.0272205419    -1.8814226170
   45      H      -3.9554300469     4.6688910740     0.3667796558
   46      H      -5.0476917971     3.2607406093     0.5352331861
   47      H      -2.3895020647     3.0111007937     1.4187381725
   48      H      -0.5266410996    -1.3981252112    -3.0098310870
   49      H      -0.7409414867    -0.5114279576    -4.6038769112
   50      H       3.8532171419    -0.7954535332    -3.5635263628
   51      H       5.0143477522    -0.1938274248    -2.3075126882
   52      H       3.3502966654     0.4976815926    -2.4049866738
   53      H       1.7416300282     1.4751570467    -0.1907489202
   54      H       1.6362797723     0.0712040644     0.9716889801
   55      H       0.0289426909     1.9550995702     1.4776236263
   56      H      -0.8016101884     1.7749735940    -0.1122253462
 ----------------------------------------------------------------

    9   -1510.2861542644      2.56E-09 Convergence criterion met
 Total energy in the final basis set = -1510.28615426
 Final energy is   -1510.28615426444
 **  OPTIMIZATION CONVERGED  **

                    Orbital Energies (a.u.)
 --------------------------------------------------------------

 Alpha MOs
 -- Occupied --
-18.939 -18.929 -18.925 -18.922 -18.914 -18.901 -18.880 -18.873
-18.866 -18.855 -10.103 -10.099 -10.098 -10.094 -10.072 -10.071
-10.064 -10.064 -10.045 -10.045 -10.043 -10.041 -10.040 -10.038
-10.033 -10.031 -10.029 -10.026 -10.021 -10.017  -1.016  -1.008
 -0.998  -0.993  -0.987  -0.978  -0.941  -0.932  -0.929  -0.920
 -0.770  -0.763  -0.727  -0.722  -0.714  -0.703  -0.695  -0.663
 -0.647  -0.599  -0.596  -0.581  -0.556  -0.549  -0.546  -0.536
 -0.521  -0.508  -0.485  -0.477  -0.465  -0.462  -0.447  -0.444
 -0.438  -0.435  -0.416  -0.412  -0.410  -0.407  -0.402  -0.394
 -0.385  -0.377  -0.375  -0.369  -0.366  -0.352  -0.350  -0.350
 -0.347  -0.341  -0.337  -0.330  -0.328  -0.321  -0.317  -0.315
 -0.313  -0.308  -0.304  -0.294  -0.293  -0.284  -0.280  -0.278
 -0.273  -0.255  -0.254  -0.246  -0.241  -0.229  -0.226  -0.180
 -0.175  -0.171  -0.164  -0.159  -0.153  -0.147  -0.147  -0.137
 -0.135

          Ground-State Mulliken Net Atomic Charges

     Atom                 Charge (a.u.)
  ----------------------------------------
      1 O                    -0.209313
      2 C                     0.212893
      3 C                    -0.081658
      4 C                    -0.086755
      5 C                     0.215411
      6 O                    -0.181560
      7 C                    -0.071540
      8 C                    -0.075176
      9 O                    -0.178201
     10 C                     0.225825
     11 C                    -0.084992
     12 C                    -0.081852
     13 C                     0.207039
     14 O                    -0.211596
     15 O                    -0.174179
     16 O                    -0.167319
     17 O                    -0.208936
     18 C                    -0.127903
     19 C                     0.006891
     20 C                    -0.142565
     21 C                    -0.143542
     22 C                     0.024277
     23 O                    -0.190096
     24 H                     0.091070
     25 H                     0.088373
     26 H                     0.121731
     27 H                     0.081542
     28 H                     0.077275
     29 H                     0.079152
     30 H                     0.074425
     31 H                     0.090660
     32 O                    -0.212139
     33 C                    -0.152502
     34 C                     0.024556
     35 C                    -0.142619
     36 C                    -0.142385
     37 C                     0.021396
     38 O                    -0.187106
     39 H                     0.087767
     40 H                     0.088379
     41 H                     0.073517
     42 H                     0.096734
     43 H                     0.080734
     44 H                     0.077530
     45 H                     0.080649
     46 H                     0.078008
     47 H                     0.086534
     48 H                     0.128149
     49 H                     0.076799
     50 H                     0.093807
     51 H                     0.091427
     52 H                     0.091150
     53 H                     0.078479
     54 H                     0.117472
     55 H                     0.072751
     56 H                     0.111528
  ----------------------------------------
  Sum of atomic charges =    -0.000000

                    Cartesian Multipole Moments
 -----------------------------------------------------------------
    Charge (ESU x 10^10)
                 0.0000
    Dipole Moment (Debye)
         X      -0.0631      Y       1.8930      Z      -0.4491
       Tot       1.9466
    Quadrupole Moments (Debye-Ang)
        XX    -149.6708     XY     -16.5956     YY    -153.1808
        XZ       2.8175     YZ      -4.2795     ZZ    -159.1915

 Total job time:  258.38s(wall), 12330.37s(cpu)
        *  Thank you very much for using Q-Chem.  Have a nice day.  *
