 Q-Chem 5.0, Q-Chem, Inc., Pleasanton, CA (2017)
 Q-Chem 5.0.1 for Intel X86 EM64T Linux

User input:
--------------------------------------------------------------
$molecule
0  1
O -3.94934 -3.66094 2.70899
C -3.26408 -4.56952 2.26188
C -3.36658 -6.02376 2.66595
C -4.77372 -6.64113 2.71769
C -5.90468 -5.78727 2.1886
O -5.43425 -4.93673 1.22907
C -5.69269 -3.55946 1.52163
C -6.48083 -2.91928 0.3836
O -5.76786 -1.78133 -0.12593
C -6.25606 -0.57239 0.24725
C -5.25179 0.54359 0.08387
C -4.95382 1.33875 1.36341
C -5.40867 0.69915 2.65985
O -6.35624 -0.06396 2.77948
O -2.30142 -4.2733 1.34431
O -4.83421 1.17989 3.79546
O -7.43627 -0.36858 0.50773
C -5.16212 0.76783 5.07031
C -3.82448 0.12258 -0.33614
C -3.1059 1.29986 -0.99415
C -2.86133 2.18594 0.20553
C -3.40825 1.2918 1.32224
O -3.13719 -0.01338 0.87938
H -5.66792 1.20058 -0.7126
H -5.32517 2.38693 1.35804
H -3.78934 -0.74759 -1.02565
H -2.12401 0.92465 -1.36268
H -3.65409 1.77753 -1.83451
H -1.76283 2.32145 0.32231
H -3.36593 3.17595 0.17906
H -2.93558 1.57946 2.28629
O -6.93664 -5.59271 2.81799
C -1.96533 -3.0138 0.89741
C -2.66317 -7.00083 1.70019
C -2.37571 -8.32933 2.40484
C -3.76137 -8.93507 2.44077
C -4.56702 -7.82998 1.75778
O -3.6769 -7.33364 0.78623
H -2.90232 -6.06901 3.67596
H -5.06565 -7.00762 3.7278
H -1.67183 -2.36818 1.75226
H -1.71849 -6.60804 1.26776
H -1.7356 -8.95586 1.74359
H -1.88309 -8.20776 3.39365
H -3.76892 -9.83476 1.78505
H -4.13904 -9.20536 3.45042
H -5.52718 -8.24097 1.37361
H -2.80473 -2.5605 0.3406
H -1.10559 -3.0967 0.20171
H -4.53782 1.31946 5.80269
H -4.96711 -0.32042 5.18136
H -6.23208 0.98146 5.27949
H -6.54813 -3.62807 -0.47172
H -7.53449 -2.74158 0.69483
H -4.80439 -3.11181 1.03643
H -6.11967 -3.2381 2.51004
$end

$opt
CONSTRAINT
tors           1           2           3           4     +47.368
tors           3           4           5           6     +28.421
tors           4           5           6           7    -123.158
tors           5           6           7           8    -123.158
tors           6           7           8           9    -123.158
tors           7           8           9          10    -104.211
tors           8           9          10          11    +161.053
tors           9          10          11          12    -123.158
tors          11          12          13          14     -28.421
ENDCONSTRAINT
$end

$rem
JOBTYPE                   OPT
METHOD                    B3LYP
DFT_D                     d3_op
BASIS                     STO-3G
GEOM_OPT_MAX_CYCLES       100
GEOM_OPT_TOL_GRADIENT     300
GEOM_OPT_TOL_DISPLACEMENT 1200
GEOM_OPT_TOL_ENERGY       100
SYMMETRY                  False
THRESH                    12
SCF_CONVERGENCE           8
MAX_SUB_FILE_NUM          128
MEM_STATIC                400
MEM_TOTAL                 4000
$end
--------------------------------------------------------------

   16   -1510.0638049943      1.85E-09 Convergence criterion met
 Total energy in the final basis set = -1510.06380499
   14   -1510.1375034455      9.34E-09 Convergence criterion met
 Total energy in the final basis set = -1510.13750345
   14   -1510.1939521532      3.22E-09 Convergence criterion met
 Total energy in the final basis set = -1510.19395215
   14   -1510.2237624963      1.63E-09 Convergence criterion met
 Total energy in the final basis set = -1510.22376250
   13   -1510.2390997775      7.19E-09 Convergence criterion met
 Total energy in the final basis set = -1510.23909978
   13   -1510.2467304442      4.53E-09 Convergence criterion met
 Total energy in the final basis set = -1510.24673044
    2   -1510.2467304441      2.40E-09 Convergence criterion met
 Total energy in the final basis set = -1510.24673044
   13   -1510.2508633065      3.14E-09 Convergence criterion met
   12   -1510.2592128565      3.18E-09 Convergence criterion met
 Total energy in the final basis set = -1510.25921286
   11   -1510.2592552559      5.22E-09 Convergence criterion met
 Total energy in the final basis set = -1510.25925526
   11   -1510.2592793841      4.60E-09 Convergence criterion met
 Total energy in the final basis set = -1510.25927938
   10   -1510.2592916473      7.18E-09 Convergence criterion met
 Total energy in the final basis set = -1510.25929165
   11   -1510.2592998044      2.60E-09 Convergence criterion met
 Total energy in the final basis set = -1510.25929980
    9   -1510.2593039624      9.54E-09 Convergence criterion met
 Total energy in the final basis set = -1510.25930396

             Standard Nuclear Orientation (Angstroms)
    I     Atom           X                Y                Z
 ----------------------------------------------------------------
    1      O       0.9856597057    -0.4068675230     1.7925749724
    2      C       1.7798662875     0.4372458334     1.3134575432
    3      C       3.3275440084     0.2356820057     1.1318612830
    4      C       3.7886854513    -1.1239855033     0.4686474850
    5      C       2.7897034900    -1.7930166226    -0.5525887645
    6      O       1.9469267196    -0.8296340964    -1.2219758221
    7      C       0.5175762251    -1.1296757967    -1.0187428887
    8      C      -0.3232854690    -1.3247212462    -2.3474877900
    9      O      -1.4167831236    -0.3302561132    -2.2553063220
   10      C      -2.6523743641    -0.9698951911    -1.9134043963
   11      C      -3.6175311618     0.1478330226    -1.3604926568
   12      C      -4.1415283387    -0.1712906250     0.0972404034
   13      C      -2.9815571334    -0.9237938683     0.8730325476
   14      O      -2.0971526890    -1.6428253697     0.3522477006
   15      O       1.4147041013     1.7717370539     0.9718766578
   16      O      -3.0149128865    -0.6235300030     2.2626848791
   17      O      -2.9521820263    -2.1492302271    -2.1990678066
   18      C      -1.8117667406    -1.1957205610     2.9235160456
   19      C      -3.0679788869     1.6251274864    -1.1804397188
   20      C      -4.2998918765     2.5879224144    -1.3760809081
   21      C      -5.1463886446     2.2341529174    -0.0955260929
   22      C      -4.1528190950     1.2961152828     0.6957784648
   23      O      -2.7989408744     1.7532742516     0.2731231080
   24      H      -4.4836754331     0.1668058807    -2.0485019337
   25      H      -5.0995786667    -0.7192677866     0.1305072843
   26      H      -2.1605375562     1.8577780814    -1.7693771796
   27      H      -3.9705409759     3.6395181492    -1.3595229598
   28      H      -4.8422529850     2.3992144426    -2.3163317467
   29      H      -5.3883041854     3.1315514680     0.4955019792
   30      H      -6.0852683409     1.7125500626    -0.3419015177
   31      H      -4.2411278686     1.3278048838     1.7983701047
   32      O       2.7051720180    -3.0259073733    -0.7421434787
   33      C       0.0195834360     2.0637929125     1.3896230604
   34      C       4.1257066493     1.3083554643     0.2693868581
   35      C       5.5635636851     1.4182972780     0.9087837679
   36      C       6.1475857347     0.0034064706     0.5390521318
   37      C       5.0101638574    -0.5715308914    -0.3986207500
   38      O       4.4031304900     0.6310429856    -1.0175807157
   39      H       3.7243258309     0.2504448943     2.1660872020
   40      H       4.0880740189    -1.8865672783     1.2088421216
   41      H      -0.1465797164     1.7837354003     2.4490670402
   42      H       3.5855777586     2.2608075710     0.1084257838
   43      H       6.1352659199     2.2265536393     0.4249738798
   44      H       5.5351838901     1.6025503446     1.9945412425
   45      H       7.0978186443     0.0850471155    -0.0118506321
   46      H       6.3090966349    -0.6330518411     1.4241192953
   47      H       5.3613974609    -1.2741605256    -1.1796457300
   48      H      -0.7544236904     1.5595288270     0.7682006816
   49      H      -0.0989090678     3.1569974134     1.2764348138
   50      H      -1.8670799898    -0.8622961282     3.9758176955
   51      H      -0.8660420354    -0.8326666823     2.4548475308
   52      H      -1.8258801742    -2.3037895822     2.8879003188
   53      H       0.2932759886    -1.0876592886    -3.2397171880
   54      H      -0.7427336571    -2.3482905037    -2.4366450614
   55      H       0.0644134918    -0.2504632886    -0.5140229363
   56      H       0.3732067072    -2.0093659358    -0.3587377912
 ----------------------------------------------------------------

    9   -1510.2593047299      6.05E-09 Convergence criterion met
 Total energy in the final basis set = -1510.25930473
 Final energy is   -1510.25930472985
 **  OPTIMIZATION CONVERGED  **

                    Orbital Energies (a.u.)
 --------------------------------------------------------------

 Alpha MOs
 -- Occupied --
-18.940 -18.939 -18.915 -18.906 -18.892 -18.886 -18.886 -18.880
-18.876 -18.859 -10.107 -10.102 -10.101 -10.092 -10.063 -10.060
-10.060 -10.058 -10.057 -10.056 -10.055 -10.052 -10.042 -10.040
-10.038 -10.032 -10.024 -10.022 -10.021 -10.019  -1.017  -1.015
 -1.002  -0.997  -0.975  -0.969  -0.939  -0.938  -0.932  -0.923
 -0.765  -0.762  -0.726  -0.723  -0.710  -0.705  -0.685  -0.660
 -0.657  -0.608  -0.597  -0.576  -0.547  -0.545  -0.539  -0.537
 -0.514  -0.508  -0.485  -0.479  -0.467  -0.464  -0.451  -0.439
 -0.435  -0.433  -0.417  -0.413  -0.407  -0.405  -0.401  -0.394
 -0.394  -0.376  -0.374  -0.372  -0.362  -0.356  -0.350  -0.345
 -0.341  -0.337  -0.334  -0.330  -0.328  -0.324  -0.320  -0.313
 -0.312  -0.308  -0.304  -0.300  -0.297  -0.289  -0.281  -0.276
 -0.268  -0.261  -0.250  -0.240  -0.237  -0.234  -0.230  -0.181
 -0.180  -0.169  -0.159  -0.156  -0.152  -0.151  -0.148  -0.141
 -0.141

          Ground-State Mulliken Net Atomic Charges

     Atom                 Charge (a.u.)
  ----------------------------------------
      1 O                    -0.224795
      2 C                     0.216069
      3 C                    -0.077908
      4 C                    -0.077508
      5 C                     0.219849
      6 O                    -0.189681
      7 C                    -0.047777
      8 C                    -0.052777
      9 O                    -0.183024
     10 C                     0.217428
     11 C                    -0.083375
     12 C                    -0.075494
     13 C                     0.214760
     14 O                    -0.212111
     15 O                    -0.166702
     16 O                    -0.169843
     17 O                    -0.218758
     18 C                    -0.139612
     19 C                     0.020451
     20 C                    -0.140986
     21 C                    -0.145889
     22 C                     0.022814
     23 O                    -0.198869
     24 H                     0.081065
     25 H                     0.089903
     26 H                     0.094890
     27 H                     0.077734
     28 H                     0.075310
     29 H                     0.078375
     30 H                     0.075220
     31 H                     0.091568
     32 O                    -0.194665
     33 C                    -0.135210
     34 C                     0.024707
     35 C                    -0.142085
     36 C                    -0.145633
     37 C                     0.024630
     38 O                    -0.186699
     39 H                     0.083066
     40 H                     0.087406
     41 H                     0.084741
     42 H                     0.093801
     43 H                     0.078043
     44 H                     0.072332
     45 H                     0.078498
     46 H                     0.073396
     47 H                     0.083251
     48 H                     0.104129
     49 H                     0.090324
     50 H                     0.084843
     51 H                     0.111947
     52 H                     0.086470
     53 H                     0.088975
     54 H                     0.100286
     55 H                     0.087546
     56 H                     0.095574
  ----------------------------------------
  Sum of atomic charges =    -0.000000

                    Cartesian Multipole Moments
 -----------------------------------------------------------------
    Charge (ESU x 10^10)
                 0.0000
    Dipole Moment (Debye)
         X      -0.4484      Y       2.8275      Z       2.6896
       Tot       3.9281
    Quadrupole Moments (Debye-Ang)
        XX    -140.3281     XY      -5.9774     YY    -167.1726
        XZ       6.2574     YZ      -3.0078     ZZ    -158.0845

 Total job time:  79.39s(wall), 3781.91s(cpu)
        *  Thank you very much for using Q-Chem.  Have a nice day.  *
