 Q-Chem 5.0, Q-Chem, Inc., Pleasanton, CA (2017)
 Q-Chem 5.0.1 for Intel X86 EM64T Linux

User input:
--------------------------------------------------------------
$molecule
0  1
O 0.9856597057 -0.406867523 1.7925749724
C 1.7798662875 0.4372458334 1.3134575432
C 3.3275440084 0.2356820057 1.131861283
C 3.7886854513 -1.1239855033 0.468647485
C 2.78970349 -1.7930166226 -0.5525887645
O 1.9469267196 -0.8296340964 -1.2219758221
C 0.5175762251 -1.1296757967 -1.0187428887
C -0.323285469 -1.3247212462 -2.34748779
O -1.4167831236 -0.3302561132 -2.255306322
C -2.6523743641 -0.9698951911 -1.9134043963
C -3.6175311618 0.1478330226 -1.3604926568
C -4.1415283387 -0.171290625 0.0972404034
C -2.9815571334 -0.9237938683 0.8730325476
O -2.097152689 -1.6428253697 0.3522477006
O 1.4147041013 1.7717370539 0.9718766578
O -3.0149128865 -0.623530003 2.2626848791
O -2.9521820263 -2.1492302271 -2.1990678066
C -1.8117667406 -1.195720561 2.9235160456
C -3.0679788869 1.6251274864 -1.1804397188
C -4.2998918765 2.5879224144 -1.3760809081
C -5.1463886446 2.2341529174 -0.0955260929
C -4.152819095 1.2961152828 0.6957784648
O -2.7989408744 1.7532742516 0.273123108
H -4.4836754331 0.1668058807 -2.0485019337
H -5.0995786667 -0.7192677866 0.1305072843
H -2.1605375562 1.8577780814 -1.7693771796
H -3.9705409759 3.6395181492 -1.3595229598
H -4.842252985 2.3992144426 -2.3163317467
H -5.3883041854 3.131551468 0.4955019792
H -6.0852683409 1.7125500626 -0.3419015177
H -4.2411278686 1.3278048838 1.7983701047
O 2.705172018 -3.0259073733 -0.7421434787
C 0.019583436 2.0637929125 1.3896230604
C 4.1257066493 1.3083554643 0.2693868581
C 5.5635636851 1.418297278 0.9087837679
C 6.1475857347 0.0034064706 0.5390521318
C 5.0101638574 -0.5715308914 -0.39862075
O 4.40313049 0.6310429856 -1.0175807157
H 3.7243258309 0.2504448943 2.166087202
H 4.0880740189 -1.8865672783 1.2088421216
H -0.1465797164 1.7837354003 2.4490670402
H 3.5855777586 2.260807571 0.1084257838
H 6.1352659199 2.2265536393 0.4249738798
H 5.5351838901 1.6025503446 1.9945412425
H 7.0978186443 0.0850471155 -0.0118506321
H 6.3090966349 -0.6330518411 1.4241192953
H 5.3613974609 -1.2741605256 -1.17964573
H -0.7544236904 1.559528827 0.7682006816
H -0.0989090678 3.1569974134 1.2764348138
H -1.8670799898 -0.8622961282 3.9758176955
H -0.8660420354 -0.8326666823 2.4548475308
H -1.8258801742 -2.3037895822 2.8879003188
H 0.2932759886 -1.0876592886 -3.239717188
H -0.7427336571 -2.3482905037 -2.4366450614
H 0.0644134918 -0.2504632886 -0.5140229363
H 0.3732067072 -2.0093659358 -0.3587377912
$end

$rem
JOBTYPE                   OPT
METHOD                    B3LYP
DFT_D                     d3_op
BASIS                     STO-3G
GEOM_OPT_MAX_CYCLES       100
GEOM_OPT_TOL_GRADIENT     300
GEOM_OPT_TOL_DISPLACEMENT 1200
GEOM_OPT_TOL_ENERGY       100
SYMMETRY                  False
THRESH                    12
SCF_CONVERGENCE           8
MAX_SUB_FILE_NUM          128
MEM_STATIC                400
MEM_TOTAL                 4000
$end
--------------------------------------------------------------

   16   -1510.2593580964      5.30E-09 Convergence criterion met
 Total energy in the final basis set = -1510.25935810
   14   -1510.2437985258      8.39E-09 Convergence criterion met
 Total energy in the final basis set = -1510.24379853
   14   -1510.2594898312      6.07E-09 Convergence criterion met
 Total energy in the final basis set = -1510.25948983
   14   -1510.2649583224      6.04E-09 Convergence criterion met
 Total energy in the final basis set = -1510.26495832
   14   -1510.2671136178      7.77E-09 Convergence criterion met
 Total energy in the final basis set = -1510.26711362
   13   -1510.2743364258      9.98E-09 Convergence criterion met
 Total energy in the final basis set = -1510.27433643
   13   -1510.2790279094      6.04E-09 Convergence criterion met
 Total energy in the final basis set = -1510.27902791
   13   -1510.2831657523      2.64E-09 Convergence criterion met
   11   -1510.3033063754      2.68E-09 Convergence criterion met
 Total energy in the final basis set = -1510.30330638
   11   -1510.3033078126      3.64E-09 Convergence criterion met
 Total energy in the final basis set = -1510.30330781
   10   -1510.3033073652      9.08E-09 Convergence criterion met
 Total energy in the final basis set = -1510.30330737
   10   -1510.3033076436      7.41E-09 Convergence criterion met
 Total energy in the final basis set = -1510.30330764
   10   -1510.3033086958      7.30E-09 Convergence criterion met
 Total energy in the final basis set = -1510.30330870
    9   -1510.3033104016      7.46E-09 Convergence criterion met
 Total energy in the final basis set = -1510.30331040

             Standard Nuclear Orientation (Angstroms)
    I     Atom           X                Y                Z
 ----------------------------------------------------------------
    1      O       1.1746321249     1.0184242677     1.9152690922
    2      C       1.8274842388     1.2387955801     0.8663074885
    3      C       3.3978256303     1.1429330280     0.7620603049
    4      C       3.9255166248    -0.3512997937     0.8910113610
    5      C       2.7846064583    -1.4148238381     1.0205293932
    6      O       1.7761555278    -1.0875463608     0.0599258588
    7      C       0.6317087932    -2.0268956774     0.1372677514
    8      C      -0.1098761134    -1.9743842660    -1.2468040433
    9      O      -1.2518323522    -1.0275668081    -1.2179185921
   10      C      -2.4487303189    -1.7288668707    -0.8155084684
   11      C      -3.6826688053    -0.7555820795    -0.8278470585
   12      C      -3.7934003657     0.2014796528     0.4277248017
   13      C      -2.6083543605     0.0113963798     1.4387853603
   14      O      -1.8443824115    -0.9822073692     1.4971742642
   15      O       1.2893892107     1.6915503971    -0.3658542942
   16      O      -2.5483828483     1.1274031624     2.3094036408
   17      O      -2.4966446658    -2.9652120838    -0.6368688562
   18      C      -1.4239058535     0.9713407918     3.2713318257
   19      C      -3.6290439337     0.3098616471    -2.0066451581
   20      C      -5.0828232745     0.8968668721    -2.2082368611
   21      C      -5.2053088417     1.8407376593    -0.9536158025
   22      C      -3.7969500426     1.6265002003    -0.2722487337
   23      O      -2.8822669936     1.4444520242    -1.4203633970
   24      H      -4.5793701884    -1.3946473554    -0.9082446848
   25      H      -4.7376577847     0.0312799462     0.9778610476
   26      H      -3.1296594658    -0.0470409612    -2.9277998118
   27      H      -5.1383422850     1.4674133033    -3.1489213215
   28      H      -5.8520303427     0.1081424047    -2.2265320269
   29      H      -5.3318512524     2.8938454159    -1.2512540815
   30      H      -6.0367009588     1.5604322151    -0.2872739446
   31      H      -3.4486564036     2.4490040263     0.3817938338
   32      O       2.7459090153    -2.4038368326     1.7835830147
   33      C      -0.1941130821     1.6908277900    -0.3531711864
   34      C       3.9720757488     1.5426313788    -0.6592039328
   35      C       5.5275929662     1.7795008296    -0.5173734422
   36      C       6.0530259417     0.3008700091    -0.3995896544
   37      C       4.7000177081    -0.5092371224    -0.4918838762
   38      O       3.8821273298     0.2829780356    -1.4352604862
   39      H       3.8245446325     1.7701846638     1.5658116253
   40      H       4.6044540556    -0.4743707120     1.7526749920
   41      H      -0.5919340117     2.0166091992     0.6272171608
   42      H       3.4095615521     2.3487562673    -1.1667198483
   43      H       5.9248284714     2.2785822392    -1.4154873656
   44      H       5.7759464662     2.3906226917     0.3650290824
   45      H       6.7154066741     0.0386369788    -1.2399308393
   46      H       6.5883423549     0.1117958639     0.5447711997
   47      H       4.7993559901    -1.5541516842    -0.8449282912
   48      H      -0.5971806032     0.6806721272    -0.6068940552
   49      H      -0.5099038895     2.4045713528    -1.1352805157
   50      H      -1.4925935996     1.8427854724     3.9469453813
   51      H      -0.4391818874     0.9685481926     2.7392813427
   52      H      -1.5334598593     0.0380963736     3.8585869095
   53      H       0.5848185153    -1.6067612224    -2.0294677114
   54      H      -0.4861434060    -2.9865708303    -1.5053015094
   55      H      -0.0800928218    -1.7110781562     0.9374107666
   56      H       0.9960595993    -3.0518856140     0.3602224477
 ----------------------------------------------------------------

    9   -1510.3033112533      2.22E-09 Convergence criterion met
 Total energy in the final basis set = -1510.30331125
 Final energy is   -1510.30331125333
 **  OPTIMIZATION CONVERGED  **

                    Orbital Energies (a.u.)
 --------------------------------------------------------------

 Alpha MOs
 -- Occupied --
-18.941 -18.930 -18.929 -18.928 -18.892 -18.885 -18.883 -18.872
-18.870 -18.863 -10.108 -10.100 -10.099 -10.095 -10.065 -10.064
-10.063 -10.059 -10.056 -10.054 -10.042 -10.042 -10.039 -10.036
-10.034 -10.033 -10.024 -10.022 -10.018 -10.017  -1.018  -1.011
 -1.005  -1.000  -0.975  -0.967  -0.941  -0.936  -0.930  -0.928
 -0.767  -0.760  -0.727  -0.722  -0.712  -0.705  -0.691  -0.656
 -0.647  -0.610  -0.594  -0.577  -0.548  -0.543  -0.540  -0.534
 -0.515  -0.510  -0.488  -0.474  -0.466  -0.464  -0.444  -0.436
 -0.433  -0.430  -0.423  -0.417  -0.412  -0.406  -0.396  -0.395
 -0.391  -0.378  -0.371  -0.367  -0.360  -0.352  -0.347  -0.344
 -0.342  -0.339  -0.333  -0.330  -0.326  -0.326  -0.319  -0.314
 -0.308  -0.306  -0.300  -0.298  -0.294  -0.292  -0.282  -0.278
 -0.271  -0.256  -0.253  -0.240  -0.238  -0.236  -0.230  -0.183
 -0.177  -0.168  -0.163  -0.161  -0.153  -0.151  -0.146  -0.145
 -0.139

          Ground-State Mulliken Net Atomic Charges

     Atom                 Charge (a.u.)
  ----------------------------------------
      1 O                    -0.233636
      2 C                     0.224431
      3 C                    -0.077768
      4 C                    -0.079485
      5 C                     0.210014
      6 O                    -0.171878
      7 C                    -0.060594
      8 C                    -0.052109
      9 O                    -0.174340
     10 C                     0.215033
     11 C                    -0.081733
     12 C                    -0.078696
     13 C                     0.217490
     14 O                    -0.214506
     15 O                    -0.166682
     16 O                    -0.170262
     17 O                    -0.214896
     18 C                    -0.149472
     19 C                     0.026200
     20 C                    -0.143907
     21 C                    -0.143791
     22 C                     0.024068
     23 O                    -0.190466
     24 H                     0.085750
     25 H                     0.087196
     26 H                     0.086201
     27 H                     0.078534
     28 H                     0.074375
     29 H                     0.078527
     30 H                     0.074217
     31 H                     0.089763
     32 O                    -0.211088
     33 C                    -0.142936
     34 C                     0.025012
     35 C                    -0.144540
     36 C                    -0.143733
     37 C                     0.025612
     38 O                    -0.186752
     39 H                     0.082472
     40 H                     0.084799
     41 H                     0.081223
     42 H                     0.091997
     43 H                     0.077155
     44 H                     0.072582
     45 H                     0.077473
     46 H                     0.073723
     47 H                     0.081641
     48 H                     0.109904
     49 H                     0.090213
     50 H                     0.083245
     51 H                     0.122181
     52 H                     0.083736
     53 H                     0.097206
     54 H                     0.097580
     55 H                     0.111124
     56 H                     0.092595
  ----------------------------------------
  Sum of atomic charges =    -0.000000

                    Cartesian Multipole Moments
 -----------------------------------------------------------------
    Charge (ESU x 10^10)
                -0.0000
    Dipole Moment (Debye)
         X      -0.8585      Y       2.1544      Z      -0.6115
       Tot       2.3984
    Quadrupole Moments (Debye-Ang)
        XX    -135.8952     XY      -0.3534     YY    -164.7001
        XZ       2.4426     YZ       6.4319     ZZ    -161.4225

 Total job time:  135.43s(wall), 6464.13s(cpu)
        *  Thank you very much for using Q-Chem.  Have a nice day.  *
