 Q-Chem 5.0, Q-Chem, Inc., Pleasanton, CA (2017)
 Q-Chem 5.0.1 for Intel X86 EM64T Linux

User input:
--------------------------------------------------------------
$molecule
0  1
O -3.94934 -3.66094 2.70899
C -3.26408 -4.56952 2.26188
C -3.36658 -6.02376 2.66595
C -4.66266 -6.76517 2.29943
C -5.63801 -6.02118 1.41441
O -5.30015 -6.19539 0.10256
C -5.87692 -5.21174 -0.76289
C -6.29496 -5.85269 -2.08219
O -6.61978 -7.23602 -1.87299
C -7.00826 -7.91752 -2.97923
C -6.40755 -7.36688 -4.25069
C -6.49954 -5.8415 -4.4024
C -6.83917 -5.0714 -3.14212
O -6.3693 -3.98824 -2.82503
O -2.33014 -4.25975 1.32263
O -8.26127 -5.06616 -3.11329
O -7.76302 -8.87547 -2.92978
C -9.06828 -4.22373 -2.3684
C -4.89562 -7.5943 -4.51055
C -4.64207 -7.58737 -6.01951
C -4.86278 -6.11558 -6.334
C -5.06062 -5.55736 -4.91625
O -4.2551 -6.40098 -4.13475
H -6.94573 -7.89839 -5.06881
H -7.23136 -5.53813 -5.18699
H -4.50944 -8.5284 -4.04866
H -3.56353 -7.82428 -6.16583
H -5.25096 -8.29718 -6.61975
H -3.93259 -5.71393 -6.79363
H -5.73481 -5.89424 -6.98654
H -4.8111 -4.47485 -4.88272
O -6.72748 -5.61538 1.79913
C -2.12345 -2.99456 0.81412
C -2.33243 -6.96102 1.99224
C -2.1078 -8.2009 2.85866
C -3.41081 -8.93992 2.64122
C -4.0819 -8.02087 1.61629
O -3.0054 -7.49457 0.87816
H -3.17603 -6.03431 3.76268
H -5.23119 -7.03004 3.21927
H -1.83356 -2.29663 1.62836
H -1.35308 -6.47632 1.78944
H -1.28747 -8.78845 2.38702
H -1.84695 -7.9972 3.91945
H -3.18276 -9.92813 2.18321
H -4.03669 -9.07799 3.5493
H -4.85106 -8.58006 1.03907
H -3.04634 -2.62874 0.31491
H -1.3047 -3.03252 0.06672
H -9.71097 -4.83507 -1.70219
H -9.71507 -3.63847 -3.05355
H -8.48205 -3.52145 -1.73936
H -7.19666 -5.99574 -1.27646
H -5.16869 -6.13751 -2.15808
H -5.04076 -4.48742 -0.95486
H -6.58014 -4.47168 -0.25714
$end

$opt
CONSTRAINT
tors           1           2           3           4     +66.316
tors           3           4           5           6     +85.263
tors           4           5           6           7    -161.053
tors           5           6           7           8    -142.105
tors           6           7           8           9     +28.421
tors           7           8           9          10    -180.000
tors           8           9          10          11     +28.421
tors           9          10          11          12     -47.368
tors          11          12          13          14    +142.105
ENDCONSTRAINT
$end

$rem
JOBTYPE                   OPT
METHOD                    B3LYP
DFT_D                     d3_op
BASIS                     STO-3G
GEOM_OPT_MAX_CYCLES       100
GEOM_OPT_TOL_GRADIENT     300
GEOM_OPT_TOL_DISPLACEMENT 1200
GEOM_OPT_TOL_ENERGY       100
SYMMETRY                  False
THRESH                    12
SCF_CONVERGENCE           8
MAX_SUB_FILE_NUM          128
MEM_STATIC                400
MEM_TOTAL                 4000
$end
--------------------------------------------------------------

   18   -1509.7482983040      5.56E-09 Convergence criterion met
 Total energy in the final basis set = -1509.74829830
   16   -1509.8534676044      2.15E-09 Convergence criterion met
 Total energy in the final basis set = -1509.85346760
   15   -1509.9242748180      7.93E-09 Convergence criterion met
 Total energy in the final basis set = -1509.92427482
   15   -1509.9714806202      5.82E-09 Convergence criterion met
 Total energy in the final basis set = -1509.97148062
   15   -1510.0028157207      4.22E-09 Convergence criterion met
 Total energy in the final basis set = -1510.00281572
   15   -1510.0264590399      2.96E-09 Convergence criterion met
 Total energy in the final basis set = -1510.02645904
   15   -1510.0473069106      2.80E-09 Convergence criterion met
 Total energy in the final basis set = -1510.04730691
   15   -1510.0675993485      2.46E-09 Convergence criterion met
   10   -1510.2547896666      9.70E-09 Convergence criterion met
 Total energy in the final basis set = -1510.25478967
   11   -1510.2547997569      2.73E-09 Convergence criterion met
 Total energy in the final basis set = -1510.25479976
    9   -1510.2548042134      6.17E-09 Convergence criterion met
 Total energy in the final basis set = -1510.25480421
    9   -1510.2548011026      8.54E-09 Convergence criterion met
 Total energy in the final basis set = -1510.25480110
   10   -1510.2548034012      6.99E-09 Convergence criterion met
 Total energy in the final basis set = -1510.25480340
   11   -1510.2548048497      1.87E-09 Convergence criterion met
 Total energy in the final basis set = -1510.25480485

             Standard Nuclear Orientation (Angstroms)
    I     Atom           X                Y                Z
 ----------------------------------------------------------------
    1      O       3.9020785223    -2.1245138935     0.8101570058
    2      C       3.9511067032    -0.8945797587     1.0341344932
    3      C       4.4779241409     0.2121854460     0.0472028968
    4      C       3.5497330925     0.3589582702    -1.2405861654
    5      C       2.4448264143    -0.7464894229    -1.3303954892
    6      O       1.3140268041    -0.3209471214    -0.5591207968
    7      C       0.4458915867    -1.4764733453    -0.2308659379
    8      C      -1.0509796682    -1.0068664454    -0.3147654811
    9      O      -1.0797428389     0.0915482073    -1.3034291205
   10      C      -2.3412290791     0.7039997458    -1.5704699617
   11      C      -3.5522304423     0.8007481632    -0.5252879303
   12      C      -4.1425814189    -0.3645304554     0.3830119177
   13      C      -3.8899583250    -1.8529288024    -0.0260632168
   14      O      -3.6581126638    -2.8149456651     0.7391194912
   15      O       3.5002097924    -0.2967821618     2.2526455280
   16      O      -4.0183356198    -1.9522891631    -1.4492276414
   17      O      -2.4199113808     1.3612971644    -2.6355028374
   18      C      -3.8405118899    -3.3550503544    -1.8960284963
   19      C      -3.0019764712     1.7435808024     0.6497121116
   20      C      -4.1948423291     2.3433094909     1.4936784309
   21      C      -4.5826522285     1.1223664917     2.4091217626
   22      C      -3.6266281294     0.0134096306     1.8322760340
   23      O      -2.3744720137     0.7645831298     1.5786036051
   24      H      -4.3616025640     1.2887801250    -1.0950466386
   25      H      -5.2443137580    -0.2531313032     0.3605088300
   26      H      -2.2503262857     2.4865700305     0.3181565565
   27      H      -3.8496124316     3.2031776055     2.0891663476
   28      H      -5.0262557313     2.6735494769     0.8503483100
   29      H      -4.3449879314     1.3205928782     3.4666002121
   30      H      -5.6456893173     0.8444649998     2.3293588266
   31      H      -3.4375805449    -0.8609089019     2.4860258391
   32      O       2.5172251077    -1.8346585070    -1.9423254881
   33      C       2.9601681552    -1.3386778222     3.1554353300
   34      C       4.3643974336     1.6742146064     0.6463605122
   35      C       5.1431704676     2.6771415480    -0.2960797938
   36      C       4.1286657862     2.8342867240    -1.4886000525
   37      C       2.9907535502     1.8331081270    -1.0458201409
   38      O       2.9387861140     2.0093677864     0.4232621736
   39      H       5.5111402944    -0.0501453133    -0.2450469751
   40      H       4.1647611502     0.2844763439    -2.1549984688
   41      H       3.7407675945    -2.0685637707     3.4534090177
   42      H       4.6146670417     1.7456984211     1.7216347924
   43      H       5.3141135038     3.6352235453     0.2198574808
   44      H       6.1166146017     2.2722190438    -0.6165865349
   45      H       3.7336256282     3.8609801261    -1.5489210115
   46      H       4.5665784300     2.5647325059    -2.4627598755
   47      H       1.9943467783     2.0099539492    -1.4945286074
   48      H       2.1240438498    -1.8929465789     2.6823855095
   49      H       2.5909176962    -0.8041864134     4.0498279783
   50      H      -2.9865926993    -3.3995485840    -2.6003126750
   51      H      -4.7609038861    -3.6834398861    -2.4171233850
   52      H      -3.6468609805    -4.0046530430    -1.0185627536
   53      H      -1.6748218146    -1.8589939430    -0.6461906370
   54      H      -1.4160680524    -0.6015658636     0.6604983208
   55      H       0.6786934802    -1.8327326324     0.7962539319
   56      H       0.6587315749    -2.2944082428    -0.9526662566
 ----------------------------------------------------------------

    9   -1510.2548054021      7.35E-09 Convergence criterion met
 Total energy in the final basis set = -1510.25480540
 Final energy is   -1510.25480540209
 **  OPTIMIZATION CONVERGED  **

                    Orbital Energies (a.u.)
 --------------------------------------------------------------

 Alpha MOs
 -- Occupied --
-18.944 -18.935 -18.924 -18.923 -18.907 -18.887 -18.880 -18.871
-18.870 -18.863 -10.113 -10.096 -10.095 -10.093 -10.071 -10.068
-10.066 -10.064 -10.063 -10.058 -10.053 -10.052 -10.048 -10.040
-10.035 -10.031 -10.029 -10.028 -10.015 -10.014  -1.022  -1.011
 -1.005  -0.996  -0.984  -0.963  -0.948  -0.934  -0.933  -0.922
 -0.770  -0.758  -0.729  -0.720  -0.714  -0.708  -0.692  -0.668
 -0.659  -0.607  -0.601  -0.576  -0.553  -0.544  -0.541  -0.531
 -0.523  -0.510  -0.487  -0.478  -0.471  -0.465  -0.446  -0.439
 -0.438  -0.427  -0.426  -0.421  -0.417  -0.412  -0.409  -0.403
 -0.390  -0.382  -0.381  -0.371  -0.365  -0.356  -0.355  -0.345
 -0.342  -0.341  -0.335  -0.331  -0.326  -0.325  -0.321  -0.317
 -0.312  -0.306  -0.304  -0.301  -0.290  -0.284  -0.282  -0.274
 -0.272  -0.257  -0.254  -0.250  -0.239  -0.231  -0.226  -0.186
 -0.176  -0.171  -0.167  -0.165  -0.154  -0.152  -0.145  -0.139
 -0.136

          Ground-State Mulliken Net Atomic Charges

     Atom                 Charge (a.u.)
  ----------------------------------------
      1 O                    -0.215454
      2 C                     0.205960
      3 C                    -0.077217
      4 C                    -0.078554
      5 C                     0.210956
      6 O                    -0.166342
      7 C                    -0.049867
      8 C                    -0.060568
      9 O                    -0.169935
     10 C                     0.207981
     11 C                    -0.081991
     12 C                    -0.083390
     13 C                     0.209531
     14 O                    -0.215987
     15 O                    -0.164345
     16 O                    -0.169283
     17 O                    -0.206222
     18 C                    -0.137819
     19 C                     0.023546
     20 C                    -0.144706
     21 C                    -0.141670
     22 C                     0.022079
     23 O                    -0.187890
     24 H                     0.090755
     25 H                     0.087944
     26 H                     0.089154
     27 H                     0.081416
     28 H                     0.076933
     29 H                     0.080674
     30 H                     0.075658
     31 H                     0.091648
     32 O                    -0.208564
     33 C                    -0.126366
     34 C                     0.024625
     35 C                    -0.145234
     36 C                    -0.143457
     37 C                     0.025819
     38 O                    -0.186143
     39 H                     0.085184
     40 H                     0.083688
     41 H                     0.088402
     42 H                     0.088868
     43 H                     0.076658
     44 H                     0.071933
     45 H                     0.077247
     46 H                     0.073121
     47 H                     0.091598
     48 H                     0.086880
     49 H                     0.091995
     50 H                     0.090062
     51 H                     0.089014
     52 H                     0.101627
     53 H                     0.078039
     54 H                     0.103877
     55 H                     0.080465
     56 H                     0.097670
  ----------------------------------------
  Sum of atomic charges =     0.000000

                    Cartesian Multipole Moments
 -----------------------------------------------------------------
    Charge (ESU x 10^10)
                 0.0000
    Dipole Moment (Debye)
         X      -1.7746      Y       0.4595      Z       2.3625
       Tot       2.9903
    Quadrupole Moments (Debye-Ang)
        XX    -137.0675     XY       8.4057     YY    -161.1893
        XZ      -2.5065     YZ       1.5417     ZZ    -162.4725

 Total job time:  110.18s(wall), 5247.04s(cpu)
        *  Thank you very much for using Q-Chem.  Have a nice day.  *
