 Q-Chem 5.0, Q-Chem, Inc., Pleasanton, CA (2017)
 Q-Chem 5.0.1 for Intel X86 EM64T Linux

User input:
--------------------------------------------------------------
$molecule
0  1
O 3.9020785223 -2.1245138935 0.8101570058
C 3.9511067032 -0.8945797587 1.0341344932
C 4.4779241409 0.212185446 0.0472028968
C 3.5497330925 0.3589582702 -1.2405861654
C 2.4448264143 -0.7464894229 -1.3303954892
O 1.3140268041 -0.3209471214 -0.5591207968
C 0.4458915867 -1.4764733453 -0.2308659379
C -1.0509796682 -1.0068664454 -0.3147654811
O -1.0797428389 0.0915482073 -1.3034291205
C -2.3412290791 0.7039997458 -1.5704699617
C -3.5522304423 0.8007481632 -0.5252879303
C -4.1425814189 -0.3645304554 0.3830119177
C -3.889958325 -1.8529288024 -0.0260632168
O -3.6581126638 -2.8149456651 0.7391194912
O 3.5002097924 -0.2967821618 2.252645528
O -4.0183356198 -1.9522891631 -1.4492276414
O -2.4199113808 1.3612971644 -2.6355028374
C -3.8405118899 -3.3550503544 -1.8960284963
C -3.0019764712 1.7435808024 0.6497121116
C -4.1948423291 2.3433094909 1.4936784309
C -4.5826522285 1.1223664917 2.4091217626
C -3.6266281294 0.0134096306 1.832276034
O -2.3744720137 0.7645831298 1.5786036051
H -4.361602564 1.288780125 -1.0950466386
H -5.244313758 -0.2531313032 0.36050883
H -2.2503262857 2.4865700305 0.3181565565
H -3.8496124316 3.2031776055 2.0891663476
H -5.0262557313 2.6735494769 0.85034831
H -4.3449879314 1.3205928782 3.4666002121
H -5.6456893173 0.8444649998 2.3293588266
H -3.4375805449 -0.8609089019 2.4860258391
O 2.5172251077 -1.834658507 -1.9423254881
C 2.9601681552 -1.3386778222 3.15543533
C 4.3643974336 1.6742146064 0.6463605122
C 5.1431704676 2.677141548 -0.2960797938
C 4.1286657862 2.834286724 -1.4886000525
C 2.9907535502 1.833108127 -1.0458201409
O 2.938786114 2.0093677864 0.4232621736
H 5.5111402944 -0.0501453133 -0.2450469751
H 4.1647611502 0.2844763439 -2.1549984688
H 3.7407675945 -2.0685637707 3.4534090177
H 4.6146670417 1.7456984211 1.7216347924
H 5.3141135038 3.6352235453 0.2198574808
H 6.1166146017 2.2722190438 -0.6165865349
H 3.7336256282 3.8609801261 -1.5489210115
H 4.56657843 2.5647325059 -2.4627598755
H 1.9943467783 2.0099539492 -1.4945286074
H 2.1240438498 -1.8929465789 2.6823855095
H 2.5909176962 -0.8041864134 4.0498279783
H -2.9865926993 -3.399548584 -2.600312675
H -4.7609038861 -3.6834398861 -2.417123385
H -3.6468609805 -4.004653043 -1.0185627536
H -1.6748218146 -1.858993943 -0.646190637
H -1.4160680524 -0.6015658636 0.6604983208
H 0.6786934802 -1.8327326324 0.7962539319
H 0.6587315749 -2.2944082428 -0.9526662566
$end

$rem
JOBTYPE                   OPT
METHOD                    B3LYP
DFT_D                     d3_op
BASIS                     STO-3G
GEOM_OPT_MAX_CYCLES       100
GEOM_OPT_TOL_GRADIENT     300
GEOM_OPT_TOL_DISPLACEMENT 1200
GEOM_OPT_TOL_ENERGY       100
SYMMETRY                  False
THRESH                    12
SCF_CONVERGENCE           8
MAX_SUB_FILE_NUM          128
MEM_STATIC                400
MEM_TOTAL                 4000
$end
--------------------------------------------------------------

   16   -1510.2545878663      6.75E-09 Convergence criterion met
 Total energy in the final basis set = -1510.25458787
   15   -1510.2581227416      2.29E-09 Convergence criterion met
 Total energy in the final basis set = -1510.25812274
   14   -1510.2625033424      8.56E-09 Convergence criterion met
 Total energy in the final basis set = -1510.26250334
   14   -1510.2663776511      8.95E-09 Convergence criterion met
 Total energy in the final basis set = -1510.26637765
   14   -1510.2694484336      5.09E-09 Convergence criterion met
 Total energy in the final basis set = -1510.26944843
   13   -1510.2722625145      9.86E-09 Convergence criterion met
 Total energy in the final basis set = -1510.27226251
   14   -1510.2748399052      6.62E-09 Convergence criterion met
 Total energy in the final basis set = -1510.27483991
   14   -1510.2779917600      3.71E-09 Convergence criterion met
   12   -1510.2996732801      3.74E-09 Convergence criterion met
 Total energy in the final basis set = -1510.29967328
   11   -1510.2996801251      9.59E-09 Convergence criterion met
 Total energy in the final basis set = -1510.29968013
   11   -1510.2996964263      2.74E-09 Convergence criterion met
 Total energy in the final basis set = -1510.29969643
   11   -1510.2996993541      5.35E-09 Convergence criterion met
 Total energy in the final basis set = -1510.29969935
   11   -1510.2997035478      3.13E-09 Convergence criterion met
 Total energy in the final basis set = -1510.29970355
    9   -1510.2997012403      7.01E-09 Convergence criterion met
 Total energy in the final basis set = -1510.29970124

             Standard Nuclear Orientation (Angstroms)
    I     Atom           X                Y                Z
 ----------------------------------------------------------------
    1      O       3.3847169990    -1.2737884592     2.1379807393
    2      C       2.9183461697    -0.2318643061     1.6297613266
    3      C       3.4290728220     0.4830608135     0.3234428072
    4      C       2.8949872142    -0.1963911457    -1.0130479979
    5      C       2.0837787925    -1.5144015401    -0.8039309203
    6      O       1.1000252098    -1.3025917990     0.2210221443
    7      C       0.3472068239    -2.5505023724     0.5045505102
    8      C      -1.1833474549    -2.2442932501     0.3585816456
    9      O      -1.4637938581    -1.8620040828    -1.0456165615
   10      C      -1.0677852992    -0.5095138134    -1.3421954345
   11      C      -1.5667217330     0.6820691585    -0.4199908949
   12      C      -3.0977172499     0.5777291918     0.0007701455
   13      C      -3.7962516507    -0.7513071210    -0.4616578408
   14      O      -4.2213406112    -1.6788673153     0.2594937452
   15      O       1.8358664317     0.5178520180     2.2043790571
   16      O      -3.9101419927    -0.7035222530    -1.8877202548
   17      O      -0.4974226693    -0.2977823861    -2.4400394874
   18      C      -4.4183487732    -1.9973529901    -2.3970488481
   19      C      -0.8806191076     0.8722255135     0.9982433022
   20      C      -1.2017938820     2.3282139752     1.5082787471
   21      C      -2.7089407664     2.1920127023     1.9492894135
   22      C      -2.9978185679     0.6901754315     1.5753735480
   23      O      -1.7075383672     0.0252628587     1.8996973624
   24      H      -1.3974432326     1.5850956867    -1.0323562608
   25      H      -3.6655569830     1.4244169700    -0.4250050159
   26      H       0.1943363383     0.5900716980     1.0511110779
   27      H      -0.5515412267     2.5826260869     2.3603717154
   28      H      -1.0522794901     3.0805384944     0.7179938129
   29      H      -2.8282524270     2.3486316053     3.0332531488
   30      H      -3.3762580963     2.8874198370     1.4156957314
   31      H      -3.8283713202     0.2000057890     2.1200527092
   32      O       2.2321418745    -2.5931885465    -1.4174820946
   33      C       1.3292908644    -0.1665702175     3.4161119320
   34      C       2.8577073725     1.9496973366     0.1520539101
   35      C       3.6533127831     2.6740846924    -1.0071806516
   36      C       3.0036287247     2.0220095236    -2.2848819693
   37      C       2.0147590716     0.9873723240    -1.6250527980
   38      O       1.5199705223     1.7130070110    -0.4338328194
   39      H       4.5337203771     0.4649195701     0.3475832218
   40      H       3.7340043504    -0.4478655405    -1.6852953307
   41      H       2.0659934640    -0.1212776664     4.2439681322
   42      H       2.7729988584     2.5196403874     1.0967240491
   43      H       3.4802238892     3.7613421554    -0.9733404471
   44      H       4.7371801153     2.4875117345    -0.9412802855
   45      H       2.4419818171     2.7644826517    -2.8741847476
   46      H       3.7426441621     1.5368937121    -2.9419578121
   47      H       1.1493232453     0.6466177601    -2.2382167464
   48      H       1.0899318863    -1.2288123077     3.2119176433
   49      H       0.4061452994     0.3684683529     3.7051143846
   50      H      -3.6887695206    -2.8091476133    -2.1980241542
   51      H      -4.5430667567    -1.8702983064    -3.4880260192
   52      H      -5.3908337850    -2.2668896766    -1.9370886147
   53      H      -1.7641900422    -3.1709012563     0.5404976653
   54      H      -1.4917609147    -1.4392838764     1.0865051931
   55      H       0.5785251475    -2.8728830003     1.5422796271
   56      H       0.6837105238    -3.3291051643    -0.2140335383
 ----------------------------------------------------------------

    9   -1510.2997004886      4.52E-09 Convergence criterion met
 Total energy in the final basis set = -1510.29970049
 Final energy is   -1510.29970048856
 **  OPTIMIZATION CONVERGED  **

                    Orbital Energies (a.u.)
 --------------------------------------------------------------

 Alpha MOs
 -- Occupied --
-18.938 -18.935 -18.930 -18.915 -18.908 -18.886 -18.882 -18.878
-18.873 -18.872 -10.103 -10.102 -10.099 -10.098 -10.066 -10.064
-10.061 -10.060 -10.058 -10.049 -10.049 -10.044 -10.039 -10.038
-10.037 -10.033 -10.024 -10.020 -10.019 -10.017  -1.019  -1.011
 -1.008  -0.997  -0.982  -0.970  -0.942  -0.937  -0.934  -0.930
 -0.765  -0.763  -0.724  -0.722  -0.708  -0.704  -0.693  -0.661
 -0.658  -0.606  -0.597  -0.580  -0.551  -0.544  -0.538  -0.536
 -0.515  -0.508  -0.488  -0.476  -0.471  -0.459  -0.441  -0.437
 -0.435  -0.431  -0.427  -0.414  -0.411  -0.406  -0.405  -0.401
 -0.396  -0.381  -0.375  -0.366  -0.362  -0.357  -0.352  -0.350
 -0.347  -0.339  -0.339  -0.334  -0.329  -0.322  -0.316  -0.314
 -0.309  -0.305  -0.304  -0.302  -0.294  -0.290  -0.284  -0.276
 -0.274  -0.256  -0.252  -0.249  -0.244  -0.233  -0.223  -0.185
 -0.178  -0.173  -0.168  -0.162  -0.154  -0.152  -0.147  -0.145
 -0.144

          Ground-State Mulliken Net Atomic Charges

     Atom                 Charge (a.u.)
  ----------------------------------------
      1 O                    -0.217231
      2 C                     0.213835
      3 C                    -0.079453
      4 C                    -0.081042
      5 C                     0.213954
      6 O                    -0.181079
      7 C                    -0.059656
      8 C                    -0.075679
      9 O                    -0.184962
     10 C                     0.217540
     11 C                    -0.083978
     12 C                    -0.083919
     13 C                     0.209798
     14 O                    -0.216922
     15 O                    -0.169144
     16 O                    -0.171561
     17 O                    -0.204630
     18 C                    -0.128224
     19 C                     0.013503
     20 C                    -0.141857
     21 C                    -0.143732
     22 C                     0.024207
     23 O                    -0.191238
     24 H                     0.090723
     25 H                     0.087183
     26 H                     0.123001
     27 H                     0.077322
     28 H                     0.078847
     29 H                     0.077381
     30 H                     0.075023
     31 H                     0.090432
     32 O                    -0.203630
     33 C                    -0.127773
     34 C                     0.024861
     35 C                    -0.145039
     36 C                    -0.143408
     37 C                     0.013169
     38 O                    -0.194821
     39 H                     0.085211
     40 H                     0.087132
     41 H                     0.086584
     42 H                     0.085928
     43 H                     0.076552
     44 H                     0.072904
     45 H                     0.077921
     46 H                     0.074683
     47 H                     0.105715
     48 H                     0.091096
     49 H                     0.094726
     50 H                     0.094686
     51 H                     0.090642
     52 H                     0.087918
     53 H                     0.084373
     54 H                     0.117362
     55 H                     0.082621
     56 H                     0.102145
  ----------------------------------------
  Sum of atomic charges =     0.000000

                    Cartesian Multipole Moments
 -----------------------------------------------------------------
    Charge (ESU x 10^10)
                -0.0000
    Dipole Moment (Debye)
         X      -0.3539      Y       3.0152      Z       1.5204
       Tot       3.3954
    Quadrupole Moments (Debye-Ang)
        XX    -153.8143     XY       5.2008     YY    -160.1102
        XZ       0.0740     YZ       0.1863     ZZ    -160.5895

 Total job time:  156.92s(wall), 7461.19s(cpu)
        *  Thank you very much for using Q-Chem.  Have a nice day.  *
