 Q-Chem 5.0, Q-Chem, Inc., Pleasanton, CA (2017)
 Q-Chem 5.0.1 for Intel X86 EM64T Linux

User input:
--------------------------------------------------------------
$molecule
0  1
O -3.94934 -3.66094 2.70899
C -3.26408 -4.56952 2.26188
C -3.36658 -6.02376 2.66595
C -4.41631 -6.88207 1.94122
C -5.12384 -6.23632 0.77054
O -4.95227 -6.99578 -0.35161
C -4.77384 -6.21503 -1.53813
C -6.05128 -6.22553 -2.3713
O -6.73866 -4.97248 -2.22906
C -5.9668 -3.86549 -2.36302
C -6.15489 -3.17444 -3.69258
C -5.30155 -1.91354 -3.89319
C -4.1532 -1.73129 -2.9212
O -3.18536 -1.00507 -3.09569
O -2.08271 -4.22251 1.68401
O -3.89687 -2.60836 -1.92725
O -6.09188 -3.1367 -1.38515
C -2.82557 -2.58017 -1.06906
C -5.79014 -3.95254 -4.9769
C -6.52869 -3.35567 -6.17879
C -5.77273 -2.06184 -6.36823
C -4.70677 -2.2101 -5.28294
O -4.45662 -3.59424 -5.23233
H -7.2377 -2.91461 -3.74026
H -5.89113 -0.97085 -3.87136
H -6.02213 -5.02625 -4.96657
H -6.32675 -4.00967 -7.05782
H -7.62741 -3.25079 -6.04898
H -5.29608 -2.07574 -7.37395
H -6.37377 -1.13499 -6.24499
H -3.83169 -1.56732 -5.52452
O -5.77131 -5.19928 0.81714
C -1.45118 -3.00832 1.88073
C -2.09645 -6.87306 2.38901
C -2.03854 -8.05282 3.35689
C -3.16102 -8.91024 2.82118
C -3.5483 -8.11044 1.57143
O -2.34717 -7.50906 1.15944
H -3.52056 -6.01015 3.76883
H -5.23487 -7.16319 2.63999
H -1.16043 -2.90671 2.94804
H -1.14267 -6.3076 2.4628
H -1.07351 -8.57703 3.16985
H -2.1088 -7.79659 4.43585
H -2.7416 -9.90326 2.54469
H -4.02701 -9.04145 3.50554
H -4.03315 -8.79907 0.84643
H -2.11427 -2.16163 1.61407
H -0.53337 -2.96711 1.25899
H -2.92308 -3.44377 -0.39866
H -2.84317 -1.63642 -0.48766
H -1.87099 -2.66859 -1.62743
H -5.73836 -6.34041 -3.4202
H -6.7076 -7.09524 -2.15603
H -4.04261 -6.82133 -2.11608
H -4.20638 -5.27102 -1.40164
$end

$opt
CONSTRAINT
tors           1           2           3           4     +85.263
tors           3           4           5           6    +123.158
tors           4           5           6           7    -142.105
tors           5           6           7           8    -104.211
tors           6           7           8           9    +104.211
tors           7           8           9          10     +47.368
tors           8           9          10          11    +104.211
tors           9          10          11          12    -180.000
tors          11          12          13          14    +161.053
ENDCONSTRAINT
$end

$rem
JOBTYPE                   OPT
METHOD                    B3LYP
DFT_D                     d3_op
BASIS                     STO-3G
GEOM_OPT_MAX_CYCLES       100
GEOM_OPT_TOL_GRADIENT     300
GEOM_OPT_TOL_DISPLACEMENT 1200
GEOM_OPT_TOL_ENERGY       100
SYMMETRY                  False
THRESH                    12
SCF_CONVERGENCE           8
MAX_SUB_FILE_NUM          128
MEM_STATIC                400
MEM_TOTAL                 4000
$end
--------------------------------------------------------------

   15   -1510.0382441549      9.47E-09 Convergence criterion met
 Total energy in the final basis set = -1510.03824415
   14   -1510.1202214799      5.18E-09 Convergence criterion met
 Total energy in the final basis set = -1510.12022148
   15   -1510.1608501740      2.89E-09 Convergence criterion met
 Total energy in the final basis set = -1510.16085017
   15   -1510.1909570568      2.58E-09 Convergence criterion met
 Total energy in the final basis set = -1510.19095706
   14   -1510.2031298966      6.20E-09 Convergence criterion met
 Total energy in the final basis set = -1510.20312990
   14   -1510.2132994663      3.30E-09 Convergence criterion met
 Total energy in the final basis set = -1510.21329947
   13   -1510.2202714300      9.79E-09 Convergence criterion met
 Total energy in the final basis set = -1510.22027143
   13   -1510.2255040586      5.64E-09 Convergence criterion met
   11   -1510.2395539854      5.49E-09 Convergence criterion met
 Total energy in the final basis set = -1510.23955399
   11   -1510.2395686564      5.64E-09 Convergence criterion met
 Total energy in the final basis set = -1510.23956866
    9   -1510.2395772346      9.40E-09 Convergence criterion met
 Total energy in the final basis set = -1510.23957723
   10   -1510.2395856320      9.08E-09 Convergence criterion met
 Total energy in the final basis set = -1510.23958563
    9   -1510.2395893199      6.93E-09 Convergence criterion met
 Total energy in the final basis set = -1510.23958932
    9   -1510.2395905448      6.60E-09 Convergence criterion met
 Total energy in the final basis set = -1510.23959054

             Standard Nuclear Orientation (Angstroms)
    I     Atom           X                Y                Z
 ----------------------------------------------------------------
    1      O      -3.0784799214    -1.5848406274     2.4726702106
    2      C      -3.1706980185    -1.2652855752     1.2665254446
    3      C      -4.2354171128    -0.2881249194     0.6549725251
    4      C      -3.8330416272     1.2509959456     0.7364423057
    5      C      -2.2738397934     1.3970793784     0.9433202092
    6      O      -1.6898277021     2.1969591643    -0.0997128295
    7      C      -0.3663922745     1.6563891823    -0.4815764043
    8      C       0.8466175957     2.5058027289     0.0860119123
    9      O       1.5617802785     1.9144450247     1.2443507585
   10      C       1.8574960084     0.5098620315     0.9846326755
   11      C       3.3671700905     0.2635220700     0.6219326262
   12      C       3.8086119398    -1.2200182643     0.3195275297
   13      C       2.8640679157    -2.0806364084    -0.6211087514
   14      O       3.2286945469    -3.1184445632    -1.2180301915
   15      O      -2.2697521180    -1.6951236113     0.2409789596
   16      O       1.6257300349    -1.4230555639    -0.8961897610
   17      O       1.0290221204    -0.3825483202     1.2646111128
   18      C       0.8817270732    -2.1531283611    -1.9490288126
   19      C       4.0740974545     1.0579424216    -0.5719912069
   20      C       5.5185185134     1.4162047048    -0.0518438990
   21      C       6.1399130909    -0.0273149026     0.0559666415
   22      C       5.0323855170    -0.9058704699    -0.6494827303
   23      O       4.3630843595     0.0288343370    -1.5973530950
   24      H       3.8868961672     0.5665371701     1.5528173739
   25      H       4.0771191960    -1.7862054185     1.2290149915
   26      H       3.4972119337     1.8951772371    -1.0059682898
   27      H       6.0521918742     2.0269550184    -0.7980004278
   28      H       5.5050601679     1.9552100410     0.9089416013
   29      H       7.0969443172    -0.1030266988    -0.4834963798
   30      H       6.3006282857    -0.3393391370     1.1006595225
   31      H       5.4038302563    -1.7996081915    -1.1875389674
   32      O      -1.5970483083     0.8185152114     1.8203166925
   33      C      -1.1783954102    -2.5122692821     0.8280393703
   34      C      -4.5352031375    -0.4414391173    -0.8986213203
   35      C      -6.0045808347     0.0807787980    -1.1403929003
   36      C      -5.8069468882     1.6235855987    -0.9015954305
   37      C      -4.2383844386     1.7178490125    -0.7201590539
   38      O      -3.7082016235     0.6037338551    -1.5461341845
   39      H      -5.1624464321    -0.4438682436     1.2360399591
   40      H      -4.3805134609     1.7713756550     1.5433354352
   41      H      -1.4676707602    -2.8446624596     1.8444094266
   42      H      -4.3016434333    -1.4382267801    -1.3188722844
   43      H      -6.3193298514    -0.1275269865    -2.1757034533
   44      H      -6.7339298271    -0.3715608345    -0.4497201200
   45      H      -6.1320956667     2.2155105506    -1.7715012431
   46      H      -6.3443635488     1.9845900265    -0.0099867436
   47      H      -3.7819608640     2.6769226123    -1.0281804329
   48      H      -0.2540222466    -1.8981176751     0.8912092967
   49      H      -1.0146396987    -3.3837557445     0.1671577072
   50      H      -0.1220481891    -1.6903421794    -1.9857841897
   51      H       0.7884262801    -3.2318256864    -1.7135698440
   52      H       1.3788552792    -2.0485747567    -2.9352942989
   53      H       1.5597790026     2.6931510662    -0.7484992976
   54      H       0.4709434586     3.4881798910     0.4413589462
   55      H      -0.3388769439     1.6986529710    -1.5904479563
   56      H      -0.2616299395     0.6015930323    -0.1521003600
 ----------------------------------------------------------------

    9   -1510.2395910159      3.39E-09 Convergence criterion met
 Total energy in the final basis set = -1510.23959102
 Final energy is   -1510.23959101591
 **  OPTIMIZATION CONVERGED  **

                    Orbital Energies (a.u.)
 --------------------------------------------------------------

 Alpha MOs
 -- Occupied --
-18.936 -18.920 -18.919 -18.911 -18.905 -18.892 -18.882 -18.880
-18.870 -18.862 -10.115 -10.099 -10.097 -10.089 -10.072 -10.068
-10.065 -10.063 -10.062 -10.055 -10.055 -10.043 -10.041 -10.036
-10.036 -10.031 -10.026 -10.025 -10.018 -10.017  -1.016  -1.009
 -1.005  -0.996  -0.976  -0.966  -0.940  -0.934  -0.931  -0.922
 -0.768  -0.759  -0.728  -0.721  -0.710  -0.705  -0.693  -0.662
 -0.644  -0.614  -0.599  -0.582  -0.550  -0.542  -0.541  -0.534
 -0.517  -0.508  -0.485  -0.479  -0.461  -0.454  -0.447  -0.440
 -0.437  -0.431  -0.422  -0.418  -0.413  -0.406  -0.402  -0.399
 -0.393  -0.380  -0.374  -0.368  -0.364  -0.359  -0.349  -0.344
 -0.341  -0.338  -0.333  -0.330  -0.326  -0.324  -0.320  -0.316
 -0.310  -0.306  -0.304  -0.303  -0.299  -0.287  -0.277  -0.275
 -0.271  -0.263  -0.245  -0.241  -0.237  -0.234  -0.230  -0.181
 -0.175  -0.163  -0.162  -0.155  -0.150  -0.149  -0.148  -0.143
 -0.138

          Ground-State Mulliken Net Atomic Charges

     Atom                 Charge (a.u.)
  ----------------------------------------
      1 O                    -0.211543
      2 C                     0.209338
      3 C                    -0.081230
      4 C                    -0.076164
      5 C                     0.212769
      6 O                    -0.181173
      7 C                    -0.056028
      8 C                    -0.050378
      9 O                    -0.191224
     10 C                     0.230019
     11 C                    -0.084593
     12 C                    -0.075653
     13 C                     0.212178
     14 O                    -0.217899
     15 O                    -0.177482
     16 O                    -0.168854
     17 O                    -0.170951
     18 C                    -0.128534
     19 C                     0.024387
     20 C                    -0.140320
     21 C                    -0.146478
     22 C                     0.022715
     23 O                    -0.192421
     24 H                     0.087210
     25 H                     0.087459
     26 H                     0.081760
     27 H                     0.078640
     28 H                     0.075911
     29 H                     0.080186
     30 H                     0.075245
     31 H                     0.090421
     32 O                    -0.195646
     33 C                    -0.147094
     34 C                     0.023467
     35 C                    -0.142525
     36 C                    -0.145949
     37 C                     0.023812
     38 O                    -0.192332
     39 H                     0.082549
     40 H                     0.085611
     41 H                     0.097119
     42 H                     0.086648
     43 H                     0.076645
     44 H                     0.073159
     45 H                     0.076923
     46 H                     0.072934
     47 H                     0.090533
     48 H                     0.106751
     49 H                     0.076250
     50 H                     0.095714
     51 H                     0.091648
     52 H                     0.088664
     53 H                     0.072240
     54 H                     0.093644
     55 H                     0.087408
     56 H                     0.104512
  ----------------------------------------
  Sum of atomic charges =    -0.000000

                    Cartesian Multipole Moments
 -----------------------------------------------------------------
    Charge (ESU x 10^10)
                 0.0000
    Dipole Moment (Debye)
         X       0.5868      Y       1.6299      Z      -1.2497
       Tot       2.1361
    Quadrupole Moments (Debye-Ang)
        XX    -138.1241     XY       1.8430     YY    -158.7555
        XZ       8.5513     YZ      -0.3125     ZZ    -169.8802

 Total job time:  90.28s(wall), 4299.66s(cpu)
        *  Thank you very much for using Q-Chem.  Have a nice day.  *
