 Q-Chem 5.0, Q-Chem, Inc., Pleasanton, CA (2017)
 Q-Chem 5.0.1 for Intel X86 EM64T Linux

User input:
--------------------------------------------------------------
$molecule
0  1
O -3.0784799214 -1.5848406274 2.4726702106
C -3.1706980185 -1.2652855752 1.2665254446
C -4.2354171128 -0.2881249194 0.6549725251
C -3.8330416272 1.2509959456 0.7364423057
C -2.2738397934 1.3970793784 0.9433202092
O -1.6898277021 2.1969591643 -0.0997128295
C -0.3663922745 1.6563891823 -0.4815764043
C 0.8466175957 2.5058027289 0.0860119123
O 1.5617802785 1.9144450247 1.2443507585
C 1.8574960084 0.5098620315 0.9846326755
C 3.3671700905 0.26352207 0.6219326262
C 3.8086119398 -1.2200182643 0.3195275297
C 2.8640679157 -2.0806364084 -0.6211087514
O 3.2286945469 -3.1184445632 -1.2180301915
O -2.269752118 -1.6951236113 0.2409789596
O 1.6257300349 -1.4230555639 -0.896189761
O 1.0290221204 -0.3825483202 1.2646111128
C 0.8817270732 -2.1531283611 -1.9490288126
C 4.0740974545 1.0579424216 -0.5719912069
C 5.5185185134 1.4162047048 -0.051843899
C 6.1399130909 -0.0273149026 0.0559666415
C 5.032385517 -0.9058704699 -0.6494827303
O 4.3630843595 0.028834337 -1.597353095
H 3.8868961672 0.5665371701 1.5528173739
H 4.077119196 -1.7862054185 1.2290149915
H 3.4972119337 1.8951772371 -1.0059682898
H 6.0521918742 2.0269550184 -0.7980004278
H 5.5050601679 1.955210041 0.9089416013
H 7.0969443172 -0.1030266988 -0.4834963798
H 6.3006282857 -0.339339137 1.1006595225
H 5.4038302563 -1.7996081915 -1.1875389674
O -1.5970483083 0.8185152114 1.8203166925
C -1.1783954102 -2.5122692821 0.8280393703
C -4.5352031375 -0.4414391173 -0.8986213203
C -6.0045808347 0.080778798 -1.1403929003
C -5.8069468882 1.6235855987 -0.9015954305
C -4.2383844386 1.7178490125 -0.7201590539
O -3.7082016235 0.6037338551 -1.5461341845
H -5.1624464321 -0.4438682436 1.2360399591
H -4.3805134609 1.771375655 1.5433354352
H -1.4676707602 -2.8446624596 1.8444094266
H -4.3016434333 -1.4382267801 -1.3188722844
H -6.3193298514 -0.1275269865 -2.1757034533
H -6.7339298271 -0.3715608345 -0.44972012
H -6.1320956667 2.2155105506 -1.7715012431
H -6.3443635488 1.9845900265 -0.0099867436
H -3.781960864 2.6769226123 -1.0281804329
H -0.2540222466 -1.8981176751 0.8912092967
H -1.0146396987 -3.3837557445 0.1671577072
H -0.1220481891 -1.6903421794 -1.9857841897
H 0.7884262801 -3.2318256864 -1.713569844
H 1.3788552792 -2.0485747567 -2.9352942989
H 1.5597790026 2.6931510662 -0.7484992976
H 0.4709434586 3.488179891 0.4413589462
H -0.3388769439 1.698652971 -1.5904479563
H -0.2616299395 0.6015930323 -0.15210036
$end

$rem
JOBTYPE                   OPT
METHOD                    B3LYP
DFT_D                     d3_op
BASIS                     STO-3G
GEOM_OPT_MAX_CYCLES       100
GEOM_OPT_TOL_GRADIENT     300
GEOM_OPT_TOL_DISPLACEMENT 1200
GEOM_OPT_TOL_ENERGY       100
SYMMETRY                  False
THRESH                    12
SCF_CONVERGENCE           8
MAX_SUB_FILE_NUM          128
MEM_STATIC                400
MEM_TOTAL                 4000
$end
--------------------------------------------------------------

   16   -1510.2396638168      5.59E-09 Convergence criterion met
 Total energy in the final basis set = -1510.23966382
   14   -1510.2433504738      6.54E-09 Convergence criterion met
 Total energy in the final basis set = -1510.24335047
   14   -1510.2475197622      3.00E-09 Convergence criterion met
 Total energy in the final basis set = -1510.24751976
   14   -1510.2513580915      9.77E-09 Convergence criterion met
 Total energy in the final basis set = -1510.25135809
   14   -1510.2555172775      2.14E-09 Convergence criterion met
 Total energy in the final basis set = -1510.25551728
   14   -1510.2595670221      3.02E-09 Convergence criterion met
 Total energy in the final basis set = -1510.25956702
   14   -1510.2631079434      2.00E-09 Convergence criterion met
 Total energy in the final basis set = -1510.26310794
   14   -1510.2667127205      2.18E-09 Convergence criterion met
   11   -1510.2892870439      6.20E-09 Convergence criterion met
 Total energy in the final basis set = -1510.28928704
   12   -1510.2892819640      2.41E-09 Convergence criterion met
 Total energy in the final basis set = -1510.28928196
   11   -1510.2892900491      4.83E-09 Convergence criterion met
 Total energy in the final basis set = -1510.28929005
   11   -1510.2892904854      1.94E-09 Convergence criterion met
 Total energy in the final basis set = -1510.28929049
   11   -1510.2892876306      2.83E-09 Convergence criterion met
 Total energy in the final basis set = -1510.28928763
   11   -1510.2892894262      1.46E-09 Convergence criterion met
 Total energy in the final basis set = -1510.28928943

             Standard Nuclear Orientation (Angstroms)
    I     Atom           X                Y                Z
 ----------------------------------------------------------------
    1      O      -1.0801934877    -0.6419618953     2.5087114408
    2      C      -1.9426495409    -0.6178415362     1.6023540616
    3      C      -3.1139396747     0.4276831102     1.4482466731
    4      C      -2.9811156080     1.3587957874     0.1637532772
    5      C      -1.6967728545     0.9794815682    -0.6498750684
    6      O      -1.8775687817     1.1681109608    -2.0500126981
    7      C      -0.8968991377     0.3699013088    -2.8312601372
    8      C       0.5658220223     0.9509728997    -2.9676347437
    9      O       1.3655813173     1.0160354559    -1.7242519414
   10      C       1.4498506689    -0.2591728322    -1.0765683572
   11      C       2.1683798310    -0.1171387401     0.3160413169
   12      C       3.5013304932    -0.9758734165     0.4048688321
   13      C       3.8386272096    -1.7209550228    -0.9274779252
   14      O       4.1300858583    -2.9262580215    -1.0782832538
   15      O      -2.0886358548    -1.6126779225     0.5799151914
   16      O       3.7635227031    -0.7686936296    -1.9998160355
   17      O       0.9920035992    -1.3320013111    -1.5432581205
   18      C       3.9207896883    -1.4508927395    -3.3029915150
   19      C       2.7176241082     1.3347515811     0.6190072529
   20      C       3.0352842193     1.4261025203     2.1635580738
   21      C       4.3621874925     0.5845311620     2.2513045085
   22      C       4.5586865105     0.1663594788     0.7402130367
   23      O       4.0584207255     1.3361442809    -0.0136387789
   24      H       1.4386824105    -0.4396283175     1.0822860595
   25      H       3.4484710782    -1.7310610308     1.2084252591
   26      H       2.0918004672     2.1487944825     0.2078854834
   27      H       3.2012037471     2.4732058982     2.4626172072
   28      H       2.2219387546     1.0070452024     2.7774665780
   29      H       5.2102000670     1.1993684519     2.5926482250
   30      H       4.2702911111    -0.2900235621     2.9149819819
   31      H       5.6000731509    -0.0700272916     0.4471955780
   32      O      -0.6544205917     0.5284057654    -0.1217883027
   33      C      -0.9174186280    -2.5227289969     0.5592231458
   34      C      -4.5137816977    -0.2646382328     1.1527073019
   35      C      -5.6584784190     0.7910799023     1.4205721069
   36      C      -5.5215312939     1.7182442091     0.1564570088
   37      C      -4.3258012188     1.0207872815    -0.6040645405
   38      O      -4.5243673895    -0.4188745701    -0.3206389405
   39      H      -3.1432400374     1.0307066522     2.3725429016
   40      H      -2.9274813108     2.4271525125     0.4448053923
   41      H      -0.4305758421    -2.5466123263     1.5540770156
   42      H      -4.6535605417    -1.2468367431     1.6439830117
   43      H      -6.6405289951     0.2928406673     1.4502015361
   44      H      -5.5100549790     1.3352710270     2.3669741043
   45      H      -6.4338572821     1.6976824869    -0.4604337189
   46      H      -5.2937787159     2.7642602033     0.4167705040
   47      H      -4.2760848245     1.2011996618    -1.6950446506
   48      H      -0.1813127850    -2.1800180918    -0.2090469170
   49      H      -1.2899896544    -3.5294888226     0.2933713614
   50      H       4.0000773091    -0.6504596479    -4.0614403693
   51      H       3.0387379648    -2.0869671714    -3.5255017679
   52      H       4.8301628859    -2.0843328663    -3.3289695490
   53      H       1.0828214877     0.3198713100    -3.7255729090
   54      H       0.5325401385     1.9952032193    -3.3396383425
   55      H      -1.3296214665     0.3222531884    -3.8515745286
   56      H      -0.8080905525    -0.6565730163    -2.4170980871
 ----------------------------------------------------------------

    9   -1510.2892901028      3.39E-09 Convergence criterion met
 Total energy in the final basis set = -1510.28929010
 Final energy is   -1510.28929010284
 **  OPTIMIZATION CONVERGED  **

                    Orbital Energies (a.u.)
 --------------------------------------------------------------

 Alpha MOs
 -- Occupied --
-18.948 -18.934 -18.932 -18.913 -18.892 -18.887 -18.881 -18.874
-18.862 -18.857 -10.115 -10.104 -10.095 -10.089 -10.078 -10.076
-10.061 -10.060 -10.059 -10.056 -10.050 -10.042 -10.035 -10.033
-10.032 -10.029 -10.021 -10.019 -10.014 -10.012  -1.028  -1.011
 -1.002  -0.994  -0.969  -0.963  -0.950  -0.935  -0.932  -0.920
 -0.763  -0.757  -0.728  -0.720  -0.714  -0.704  -0.694  -0.657
 -0.644  -0.621  -0.594  -0.581  -0.545  -0.541  -0.537  -0.530
 -0.515  -0.507  -0.487  -0.476  -0.466  -0.461  -0.445  -0.433
 -0.428  -0.426  -0.423  -0.418  -0.411  -0.405  -0.404  -0.400
 -0.390  -0.386  -0.375  -0.367  -0.363  -0.359  -0.348  -0.343
 -0.339  -0.337  -0.332  -0.329  -0.325  -0.324  -0.317  -0.313
 -0.306  -0.301  -0.299  -0.296  -0.294  -0.289  -0.281  -0.274
 -0.269  -0.260  -0.250  -0.246  -0.236  -0.233  -0.227  -0.200
 -0.175  -0.172  -0.160  -0.155  -0.151  -0.144  -0.143  -0.140
 -0.136

          Ground-State Mulliken Net Atomic Charges

     Atom                 Charge (a.u.)
  ----------------------------------------
      1 O                    -0.225017
      2 C                     0.212117
      3 C                    -0.080068
      4 C                    -0.077823
      5 C                     0.223784
      6 O                    -0.168960
      7 C                    -0.056745
      8 C                    -0.048835
      9 O                    -0.165428
     10 C                     0.236689
     11 C                    -0.076374
     12 C                    -0.080763
     13 C                     0.210396
     14 O                    -0.210273
     15 O                    -0.176862
     16 O                    -0.167785
     17 O                    -0.238565
     18 C                    -0.129369
     19 C                     0.025648
     20 C                    -0.144603
     21 C                    -0.143672
     22 C                     0.025830
     23 O                    -0.188074
     24 H                     0.096911
     25 H                     0.085706
     26 H                     0.091259
     27 H                     0.075745
     28 H                     0.078500
     29 H                     0.076393
     30 H                     0.074051
     31 H                     0.081105
     32 O                    -0.209209
     33 C                    -0.145396
     34 C                     0.026324
     35 C                    -0.144191
     36 C                    -0.144142
     37 C                     0.023578
     38 O                    -0.186784
     39 H                     0.082617
     40 H                     0.086236
     41 H                     0.088582
     42 H                     0.085332
     43 H                     0.077819
     44 H                     0.073585
     45 H                     0.078027
     46 H                     0.072736
     47 H                     0.089845
     48 H                     0.099178
     49 H                     0.081345
     50 H                     0.089050
     51 H                     0.088656
     52 H                     0.091821
     53 H                     0.088132
     54 H                     0.091073
     55 H                     0.091275
     56 H                     0.109593
  ----------------------------------------
  Sum of atomic charges =    -0.000000

                    Cartesian Multipole Moments
 -----------------------------------------------------------------
    Charge (ESU x 10^10)
                -0.0000
    Dipole Moment (Debye)
         X      -1.4438      Y       2.1667      Z      -0.7482
       Tot       2.7091
    Quadrupole Moments (Debye-Ang)
        XX    -155.9532     XY      -5.5872     YY    -164.0160
        XZ      -2.1238     YZ      -0.1925     ZZ    -149.4377

 Total job time:  108.86s(wall), 5187.16s(cpu)
        *  Thank you very much for using Q-Chem.  Have a nice day.  *
