 Q-Chem 5.0, Q-Chem, Inc., Pleasanton, CA (2017)
 Q-Chem 5.0.1 for Intel X86 EM64T Linux

User input:
--------------------------------------------------------------
$molecule
0  1
O 0.5637538263 -1.5074350772 1.6992115905
C 1.5728759566 -1.1434738162 1.1125166419
C 1.6533005205 -0.794993276 -0.3574105656
C 1.7272419941 0.6965924407 -0.722873122
C 1.8917342017 1.6653746877 0.4271271889
O 1.5270336181 2.920866756 0.0319522781
C 0.2458117498 3.3185411746 0.5315413002
C -0.773969479 2.2068282393 0.3072997186
O -0.4359121338 1.0637066443 1.1084692315
C -0.26119021 -0.0953247977 0.4263743214
C -1.4270958368 -1.0443062729 0.5704569147
C -2.8091242079 -0.4082628096 0.3613050192
C -2.815578529 0.9562476329 -0.2980692133
O -2.8000271964 1.1611917093 -1.5031962726
O 2.7246314556 -1.0572327754 1.835133661
O -3.5617898054 1.841264736 0.4358316241
O -0.4371945782 0.1025667522 -0.8042555367
C -3.9848810996 3.0962119159 0.0235746639
C -1.5486134187 -2.2857523071 -0.363976113
C -2.4217606472 -3.3636046184 0.2824966025
C -3.7907204961 -2.7311224335 0.1666815172
C -3.4381944748 -1.4488938135 -0.5911574274
O -2.3637796476 -1.8328434144 -1.4162917436
H -1.5443600291 -1.3943284838 1.625049223
H -3.4087348384 -0.3345071573 1.3007141848
H -0.5903958632 -2.7551151785 -0.6476879496
H -2.3929072415 -4.2592461229 -0.3793299712
H -2.116694245 -3.6590444343 1.3092291606
H -4.4281508796 -3.3856772118 -0.4687390585
H -4.3038498212 -2.5264011167 1.1310532998
H -4.3381455644 -1.0528599678 -1.1116280327
O 2.6550361076 1.5077238715 1.3674129825
C 2.8159347337 -1.2858354435 3.1919780803
C 3.036549283 -1.2773314266 -0.8860866461
C 3.0431128766 -1.4083087268 -2.4154306745
C 3.0591574176 0.0449183867 -2.8084565515
C 3.1214113991 0.6988714148 -1.418970817
O 3.8886392956 -0.1934532606 -0.6614494145
H 1.0684357301 -1.5178413313 -0.9691912569
H 1.1833754023 1.1854896801 -1.5732600207
H 2.5129355289 -2.3279471535 3.4282765303
H 3.3601925418 -2.2439383442 -0.4373238785
H 4.0109859073 -1.8677770821 -2.7173344888
H 2.209616132 -2.0066714366 -2.8441823867
H 4.00012543 0.246855819 -3.3664312072
H 2.190094308 0.3808119741 -3.4156189426
H 3.5485691624 1.723445397 -1.5182240104
H 2.166764467 -0.5701904147 3.7410089315
H 3.8660827213 -1.1334865237 3.5154731531
H -3.6717151785 3.8516323437 0.774073824
H -5.0903848907 3.1078998472 -0.0498923105
H -3.5490437736 3.3894344669 -0.9557661104
H -1.5959713433 2.7311269125 0.8024570104
H -0.8195602896 2.2037340972 -0.8047048618
H -0.061744711 4.263897279 0.0319291278
H 0.3353434012 3.5215997054 1.6239778079
$end

$rem
JOBTYPE                   OPT
METHOD                    B3LYP
DFT_D                     d3_op
BASIS                     STO-3G
GEOM_OPT_MAX_CYCLES       100
GEOM_OPT_TOL_GRADIENT     300
GEOM_OPT_TOL_DISPLACEMENT 1200
GEOM_OPT_TOL_ENERGY       100
SYMMETRY                  False
THRESH                    12
SCF_CONVERGENCE           8
MAX_SUB_FILE_NUM          128
MEM_STATIC                400
MEM_TOTAL                 4000
$end
--------------------------------------------------------------

   17   -1509.8501601551      4.62E-09 Convergence criterion met
 Total energy in the final basis set = -1509.85016016
   15   -1509.9647724739      8.29E-09 Convergence criterion met
 Total energy in the final basis set = -1509.96477247
   15   -1510.0504071377      5.42E-09 Convergence criterion met
 Total energy in the final basis set = -1510.05040714
   15   -1510.1109894038      2.66E-09 Convergence criterion met
 Total energy in the final basis set = -1510.11098940
   15   -1510.1550466813      2.43E-09 Convergence criterion met
 Total energy in the final basis set = -1510.15504668
   14   -1510.1890697903      3.37E-09 Convergence criterion met
 Total energy in the final basis set = -1510.18906979
   14   -1510.2149935477      8.50E-09 Convergence criterion met
 Total energy in the final basis set = -1510.21499355
   14   -1510.2337366059      6.58E-09 Convergence criterion met
   11   -1510.3014949877      5.54E-09 Convergence criterion met
 Total energy in the final basis set = -1510.30149499
   11   -1510.3015321791      6.30E-09 Convergence criterion met
 Total energy in the final basis set = -1510.30153218
   11   -1510.3015560397      8.44E-09 Convergence criterion met
 Total energy in the final basis set = -1510.30155604
   10   -1510.3015667961      8.12E-09 Convergence criterion met
 Total energy in the final basis set = -1510.30156680
   10   -1510.3015680548      8.49E-09 Convergence criterion met
 Total energy in the final basis set = -1510.30156805
    9   -1510.3015665207      7.27E-09 Convergence criterion met
 Total energy in the final basis set = -1510.30156652

             Standard Nuclear Orientation (Angstroms)
    I     Atom           X                Y                Z
 ----------------------------------------------------------------
    1      O       0.4751190365    -1.3344087539     1.7049428797
    2      C       1.6399310860    -1.2679429414     1.2325901760
    3      C       2.0215727559    -1.3287758801    -0.2941346751
    4      C       2.0645555470     0.0844197097    -1.0058432892
    5      C       1.7931829314     1.2594597252    -0.0116502328
    6      O       1.6527144800     2.4656963612    -0.7611718937
    7      C       1.0601976658     3.5316122001     0.0826723383
    8      C      -0.5101911947     3.4564858720    -0.0253255257
    9      O      -0.9899622525     2.1528727723     0.4800902839
   10      C      -1.1950095484     1.2315166675    -0.6137006459
   11      C      -1.5915559501    -0.1551018441    -0.0019743197
   12      C      -3.0349203562    -0.2046865881     0.6387168221
   13      C      -3.8592655366     1.0920444032     0.3563720986
   14      O      -3.5692810179     2.0071266581    -0.4489648905
   15      O       2.8166747940    -1.2914663477     2.0349189690
   16      O      -5.0485547221     1.0644406745     1.1509785116
   17      O      -0.9535239841     1.4972801651    -1.8106351404
   18      C      -5.8834848555     2.2578259732     0.8748524919
   19      C      -1.7136782471    -1.2850949598    -1.1061750160
   20      C      -1.5776709742    -2.6696872802    -0.3593004586
   21      C      -2.9810157079    -2.7643101717     0.3463337431
   22      C      -3.6689319531    -1.4329741448    -0.1528858657
   23      O      -3.1366433127    -1.2492450271    -1.5205446878
   24      H      -0.8176707349    -0.4528988757     0.7459618139
   25      H      -3.0114407863    -0.3897876502     1.7274572865
   26      H      -1.0556000717    -1.1394384909    -1.9847209750
   27      H      -1.4260613019    -3.4932792800    -1.0749135127
   28      H      -0.7477252013    -2.6505963582     0.3673215034
   29      H      -3.5516232277    -3.6421885523     0.0036915530
   30      H      -2.9007202215    -2.7998813453     1.4445208328
   31      H      -4.7764730196    -1.4464789152    -0.1595187168
   32      O       1.7145146015     1.1751609967     1.2365862309
   33      C       2.4484326991    -1.1870765210     3.4653577764
   34      C       3.5007747584    -1.8402538131    -0.5613052484
   35      C       3.5996903007    -2.2800330192    -2.0759402785
   36      C       3.6233469115    -0.8823208012    -2.7984843502
   37      C       3.5529970781     0.0995111318    -1.5628531159
   38      O       4.3149141044    -0.6034530356    -0.5071968852
   39      H       1.2765062354    -1.9791589475    -0.7851107384
   40      H       1.3265387741     0.1583975759    -1.8259074393
   41      H       1.7849719458    -2.0193648868     3.7774538773
   42      H       3.8706272219    -2.5796037937     0.1743557766
   43      H       4.5305924445    -2.8423335253    -2.2520839917
   44      H       2.7457763651    -2.9042670994    -2.3841018991
   45      H       4.5591196933    -0.7311741410    -3.3598731204
   46      H       2.7722285234    -0.7416990790    -3.4835984639
   47      H       3.9639620128     1.1127818421    -1.7375288207
   48      H       1.9363642500    -0.2255099645     3.6726996725
   49      H       3.3986268613    -1.2344284546     4.0280832641
   50      H      -6.0528260804     2.8018672397     1.8245543870
   51      H      -6.8579694450     1.9297607390     0.4623651047
   52      H      -5.3621150347     2.9101550956     0.1454394396
   53      H      -0.9661073798     4.2474292341     0.6049738549
   54      H      -0.8138716533     3.5840918221    -1.0862385665
   55      H       1.4278111949     4.4991994146    -0.3147673429
   56      H       1.3794042372     3.4034118697     1.1388264246
 ----------------------------------------------------------------

    8   -1510.3015659959      6.67E-09 Convergence criterion met
 Total energy in the final basis set = -1510.30156600
 Final energy is   -1510.30156599587
 **  OPTIMIZATION CONVERGED  **

                    Orbital Energies (a.u.)
 --------------------------------------------------------------

 Alpha MOs
 -- Occupied --
-18.941 -18.938 -18.933 -18.915 -18.889 -18.887 -18.878 -18.877
-18.872 -18.858 -10.107 -10.105 -10.098 -10.086 -10.072 -10.064
-10.062 -10.062 -10.060 -10.057 -10.052 -10.045 -10.040 -10.038
-10.030 -10.021 -10.020 -10.011 -10.010 -10.006  -1.022  -1.011
 -1.010  -0.994  -0.972  -0.960  -0.945  -0.935  -0.935  -0.923
 -0.765  -0.752  -0.726  -0.717  -0.711  -0.701  -0.691  -0.660
 -0.658  -0.615  -0.594  -0.574  -0.547  -0.539  -0.535  -0.528
 -0.514  -0.501  -0.490  -0.471  -0.467  -0.454  -0.445  -0.442
 -0.435  -0.424  -0.422  -0.415  -0.411  -0.410  -0.408  -0.404
 -0.395  -0.378  -0.370  -0.369  -0.360  -0.357  -0.350  -0.348
 -0.339  -0.336  -0.334  -0.331  -0.327  -0.322  -0.315  -0.314
 -0.307  -0.301  -0.299  -0.295  -0.292  -0.286  -0.281  -0.269
 -0.262  -0.256  -0.249  -0.246  -0.235  -0.235  -0.225  -0.192
 -0.176  -0.174  -0.164  -0.157  -0.153  -0.152  -0.145  -0.140
 -0.135

          Ground-State Mulliken Net Atomic Charges

     Atom                 Charge (a.u.)
  ----------------------------------------
      1 O                    -0.227053
      2 C                     0.223756
      3 C                    -0.082874
      4 C                    -0.080473
      5 C                     0.214025
      6 O                    -0.168774
      7 C                    -0.052070
      8 C                    -0.053086
      9 O                    -0.179060
     10 C                     0.211000
     11 C                    -0.098871
     12 C                    -0.077009
     13 C                     0.216112
     14 O                    -0.210899
     15 O                    -0.161979
     16 O                    -0.170412
     17 O                    -0.221505
     18 C                    -0.136479
     19 C                     0.021843
     20 C                    -0.149263
     21 C                    -0.143274
     22 C                     0.025169
     23 O                    -0.193161
     24 H                     0.111574
     25 H                     0.088869
     26 H                     0.079647
     27 H                     0.070187
     28 H                     0.081969
     29 H                     0.074848
     30 H                     0.074829
     31 H                     0.081556
     32 O                    -0.206911
     33 C                    -0.126240
     34 C                     0.025973
     35 C                    -0.144119
     36 C                    -0.143602
     37 C                     0.025903
     38 O                    -0.187708
     39 H                     0.084736
     40 H                     0.095057
     41 H                     0.088223
     42 H                     0.088275
     43 H                     0.078161
     44 H                     0.073747
     45 H                     0.078641
     46 H                     0.076547
     47 H                     0.086575
     48 H                     0.096498
     49 H                     0.091053
     50 H                     0.085695
     51 H                     0.085609
     52 H                     0.102783
     53 H                     0.086541
     54 H                     0.101622
     55 H                     0.090044
     56 H                     0.097757
  ----------------------------------------
  Sum of atomic charges =    -0.000000

                    Cartesian Multipole Moments
 -----------------------------------------------------------------
    Charge (ESU x 10^10)
                -0.0000
    Dipole Moment (Debye)
         X       0.4335      Y      -0.2228      Z       1.2583
       Tot       1.3494
    Quadrupole Moments (Debye-Ang)
        XX    -157.6362     XY      -4.0700     YY    -146.4011
        XZ      -7.8029     YZ       3.0070     ZZ    -160.2883

 Total job time:  136.50s(wall), 6513.61s(cpu)
        *  Thank you very much for using Q-Chem.  Have a nice day.  *
