 Q-Chem 5.0, Q-Chem, Inc., Pleasanton, CA (2017)
 Q-Chem 5.0.1 for Intel X86 EM64T Linux

User input:
--------------------------------------------------------------
$molecule
0  1
O 3.9374726056 -2.9213405196 -0.9722313007
C 3.5742393437 -1.8433214777 -0.4512673283
C 4.5215331618 -0.6666739072 -0.0484940156
C 4.273356252 0.7875785261 -0.6504669507
C 2.8923717294 1.0421834696 -1.3881058237
O 1.9515378741 1.8146599521 -0.6016355241
C 0.8896055918 0.9601958382 -0.0364086985
C -0.0605435526 0.3339776984 -1.1454524743
O -1.4173485104 0.9104678347 -1.3276005095
C -2.1506232904 1.1099987988 -0.1188480483
C -3.6584841172 1.2376258921 -0.5390818759
C -4.3406043534 -0.1989887763 -0.6673536254
C -3.3425577297 -1.3478372883 -0.2709266258
O -2.4998854475 -1.9030596754 -1.01152052
O 2.2360794242 -1.6095154481 0.0012750342
O -3.4961868428 -1.6498395513 1.1186330522
O -1.6956760519 1.1088770694 1.0466206443
C -2.485178346 -2.646972763 1.5365389841
C -4.5672780308 1.90529057 0.572288288
C -5.9292597574 2.3257675793 -0.1081282729
C -6.6218541117 0.9231416681 -0.2847091885
C -5.5424756855 -0.0386083294 0.3546065033
O -4.9533726257 0.7722760605 1.4448728683
H -3.7104533873 1.7801783069 -1.4995551988
H -4.6827378958 -0.383001911 -1.7013863353
H -4.0629639554 2.6927923944 1.1649453217
H -6.5096745154 2.9812776724 0.5604922361
H -5.7724187824 2.8459146199 -1.0665681576
H -7.5670026853 0.8650628444 0.2780445945
H -6.8242696384 0.6778375343 -1.3396273706
H -5.9364585206 -0.9940189149 0.750714272
O 2.6393469867 0.6658423265 -2.5547567815
C 1.3972896759 -2.7997917457 -0.2753353997
C 4.4930381728 -0.3570281738 1.5178311067
C 5.901056413 0.239024339 1.9073226702
C 5.8094016113 1.662606176 1.2440750985
C 4.3340346006 1.6513771338 0.679412861
O 3.5868050728 0.8033600818 1.6402346102
H 5.5304383649 -1.0030552467 -0.3479089017
H 5.0863676135 1.0382354426 -1.3563855159
H 1.8518077165 -3.7205541916 0.1426341232
H 4.1389393298 -1.1963596189 2.1471355075
H 5.9960602127 0.3095782599 3.0027860595
H 6.7351541569 -0.3652716091 1.5168226191
H 5.9303336982 2.4649132323 1.9888896077
H 6.5551006552 1.8081060776 0.4461306898
H 3.8491373768 2.641523046 0.5889223801
H 1.24320235 -2.944372645 -1.3642197618
H 0.422999018 -2.6104304981 0.2112816276
H -2.7224442511 -2.9007384192 2.5858625791
H -1.4603835029 -2.2245424128 1.4845048006
H -2.5246247026 -3.5619599341 0.9107407154
H 0.4369062441 0.4337982208 -2.1339482026
H -0.1939313358 -0.7484840438 -0.9352247809
H 0.3029726159 1.5951690112 0.6547825489
H 1.3484672642 0.1181090944 0.5269176236
$end

$rem
JOBTYPE                   OPT
METHOD                    B3LYP
DFT_D                     d3_op
BASIS                     STO-3G
GEOM_OPT_MAX_CYCLES       100
GEOM_OPT_TOL_GRADIENT     300
GEOM_OPT_TOL_DISPLACEMENT 1200
GEOM_OPT_TOL_ENERGY       100
SYMMETRY                  False
THRESH                    12
SCF_CONVERGENCE           8
MAX_SUB_FILE_NUM          128
MEM_STATIC                400
MEM_TOTAL                 4000
$end
--------------------------------------------------------------

   16   -1510.2569638440      5.86E-09 Convergence criterion met
 Total energy in the final basis set = -1510.25696384
   15   -1510.2577302013      2.74E-09 Convergence criterion met
 Total energy in the final basis set = -1510.25773020
   14   -1510.2618570254      9.83E-09 Convergence criterion met
 Total energy in the final basis set = -1510.26185703
   15   -1510.2657700256      3.08E-09 Convergence criterion met
 Total energy in the final basis set = -1510.26577003
   15   -1510.2686072667      2.38E-09 Convergence criterion met
 Total energy in the final basis set = -1510.26860727
   14   -1510.2712679298      3.72E-09 Convergence criterion met
 Total energy in the final basis set = -1510.27126793
   14   -1510.2738537092      8.20E-09 Convergence criterion met
 Total energy in the final basis set = -1510.27385371
   15   -1510.2762318029      3.96E-09 Convergence criterion met
   12   -1510.2882772246      7.04E-09 Convergence criterion met
 Total energy in the final basis set = -1510.28827722
   12   -1510.2883418495      5.27E-09 Convergence criterion met
 Total energy in the final basis set = -1510.28834185
   13   -1510.2885348994      3.43E-09 Convergence criterion met
 Total energy in the final basis set = -1510.28853490
   13   -1510.2886035195      3.79E-09 Convergence criterion met
 Total energy in the final basis set = -1510.28860352
   12   -1510.2886030352      8.01E-09 Convergence criterion met
 Total energy in the final basis set = -1510.28860304
   11   -1510.2886246529      8.93E-09 Convergence criterion met
 Total energy in the final basis set = -1510.28862465

             Standard Nuclear Orientation (Angstroms)
    I     Atom           X                Y                Z
 ----------------------------------------------------------------
    1      O       5.9668071061    -2.1585100503     0.6294673610
    2      C       5.0163573210    -1.3515418703     0.7124823915
    3      C       4.7801914116    -0.0665423663    -0.1470445286
    4      C       3.2926013973     0.0907898751    -0.6883687422
    5      C       2.3519909355    -1.0952174229    -0.2577621803
    6      O       1.3837864733    -0.6277642202     0.6877225404
    7      C       0.4962873859    -1.7367409101     1.1036068093
    8      C      -0.6527124216    -1.9794761764     0.0571352480
    9      O      -1.3727173851    -0.7271245357    -0.2705529534
   10      C      -2.3185927502    -0.4099612413     0.7620112182
   11      C      -3.0664773504     0.9094847352     0.3570288115
   12      C      -3.7746123558     0.8393319163    -1.0607457551
   13      C      -3.6011008861    -0.5365474731    -1.7853612063
   14      O      -3.2215811479    -0.7370688121    -2.9587003706
   15      O       3.9466112432    -1.4643921047     1.6605173186
   16      O      -3.9951842111    -1.5753856651    -0.8774683516
   17      O      -2.4672779630    -1.0745229291     1.8089637438
   18      C      -3.8361120725    -2.8992122638    -1.5191762781
   19      C      -4.3045636033     1.1669670594     1.3097376024
   20      C      -4.7600798280     2.6687574894     1.1436902656
   21      C      -5.4583220528     2.6183295803    -0.2661420895
   22      C      -5.2900782282     1.0906156363    -0.6369974131
   23      O      -5.3972134137     0.4001613538     0.6662030519
   24      H      -2.3410187510     1.7433081051     0.3904823761
   25      H      -3.4037377367     1.6260382156    -1.7404601681
   26      H      -4.1484543916     0.8167234749     2.3486345113
   27      H      -5.4726993246     2.9454851079     1.9368347850
   28      H      -3.9089377302     3.3675684208     1.1727378675
   29      H      -6.5259277755     2.8816411166    -0.1987945754
   30      H      -4.9777202853     3.2797795580    -1.0044908615
   31      H      -6.0379866872     0.6937015773    -1.3507907951
   32      O       2.3936000317    -2.2676762900    -0.6929949243
   33      C       4.0694344273    -2.7251493248     2.4260124003
   34      C       4.9187949416     1.2666718911     0.7162799393
   35      C       5.1025610716     2.4780540257    -0.2810705625
   36      C       3.6406615374     2.6283322059    -0.8438226797
   37      C       2.8883230279     1.4848383120    -0.0542913019
   38      O       3.5616991490     1.4699751146     1.2655615105
   39      H       5.5099737583    -0.0832421397    -0.9753494211
   40      H       3.2901102448     0.1291538304    -1.7931503638
   41      H       5.0610448347    -2.8137287827     2.9140011636
   42      H       5.6646592606     1.2101567328     1.5328826725
   43      H       5.4197893519     3.3799888414     0.2662454598
   44      H       5.8445475504     2.2615143399    -1.0659705428
   45      H       3.2128610356     3.6127591006    -0.5965737165
   46      H       3.5870843776     2.4826591239    -1.9345814751
   47      H       1.7981873686     1.6277241516     0.0687885140
   48      H       3.9166513046    -3.6080214900     1.7712998791
   49      H       3.2762341829    -2.6937963357     3.1954696090
   50      H      -4.0494171843    -3.6468073732    -0.7332044195
   51      H      -2.8074693841    -3.0454996512    -1.9065108584
   52      H      -4.5490378285    -3.0326494914    -2.3586030883
   53      H      -0.2183415756    -2.3360580695    -0.8981716696
   54      H      -1.3505374588    -2.7447534996     0.4604457221
   55      H       0.0589727565    -1.4301015940     2.0745283998
   56      H       1.0713500153    -2.6792343340     1.2292631475
 ----------------------------------------------------------------

   10   -1510.2886256012      6.03E-09 Convergence criterion met
 Total energy in the final basis set = -1510.28862560
 Final energy is   -1510.28862560123
 **  OPTIMIZATION CONVERGED  **

                    Orbital Energies (a.u.)
 --------------------------------------------------------------

 Alpha MOs
 -- Occupied --
-18.937 -18.933 -18.933 -18.932 -18.888 -18.887 -18.878 -18.876
-18.873 -18.866 -10.101 -10.100 -10.099 -10.098 -10.073 -10.071
-10.065 -10.063 -10.061 -10.061 -10.058 -10.057 -10.038 -10.038
-10.037 -10.037 -10.021 -10.021 -10.019 -10.019  -1.018  -1.014
 -1.007  -1.003  -0.970  -0.970  -0.940  -0.938  -0.934  -0.931
 -0.764  -0.763  -0.728  -0.723  -0.713  -0.705  -0.696  -0.661
 -0.660  -0.619  -0.599  -0.584  -0.547  -0.545  -0.538  -0.536
 -0.516  -0.510  -0.487  -0.475  -0.470  -0.460  -0.447  -0.437
 -0.434  -0.431  -0.424  -0.422  -0.414  -0.412  -0.408  -0.406
 -0.393  -0.378  -0.372  -0.366  -0.362  -0.358  -0.357  -0.349
 -0.345  -0.342  -0.336  -0.331  -0.331  -0.325  -0.322  -0.309
 -0.308  -0.305  -0.304  -0.301  -0.295  -0.293  -0.288  -0.276
 -0.274  -0.258  -0.251  -0.249  -0.245  -0.234  -0.233  -0.187
 -0.178  -0.175  -0.167  -0.158  -0.156  -0.149  -0.147  -0.143
 -0.143

          Ground-State Mulliken Net Atomic Charges

     Atom                 Charge (a.u.)
  ----------------------------------------
      1 O                    -0.209739
      2 C                     0.209890
      3 C                    -0.079622
      4 C                    -0.077974
      5 C                     0.214541
      6 O                    -0.166738
      7 C                    -0.050555
      8 C                    -0.052153
      9 O                    -0.175414
     10 C                     0.216922
     11 C                    -0.078146
     12 C                    -0.079143
     13 C                     0.212039
     14 O                    -0.213367
     15 O                    -0.166414
     16 O                    -0.168670
     17 O                    -0.214339
     18 C                    -0.128521
     19 C                     0.024800
     20 C                    -0.144067
     21 C                    -0.143891
     22 C                     0.026155
     23 O                    -0.185960
     24 H                     0.084964
     25 H                     0.085017
     26 H                     0.090557
     27 H                     0.078265
     28 H                     0.073206
     29 H                     0.078026
     30 H                     0.073664
     31 H                     0.082452
     32 O                    -0.227411
     33 C                    -0.128764
     34 C                     0.026154
     35 C                    -0.143652
     36 C                    -0.144616
     37 C                     0.025373
     38 O                    -0.185714
     39 H                     0.085742
     40 H                     0.084457
     41 H                     0.091862
     42 H                     0.082602
     43 H                     0.077891
     44 H                     0.074179
     45 H                     0.077260
     46 H                     0.073443
     47 H                     0.091084
     48 H                     0.089811
     49 H                     0.091168
     50 H                     0.091309
     51 H                     0.088584
     52 H                     0.087817
     53 H                     0.094332
     54 H                     0.092631
     55 H                     0.096000
     56 H                     0.092673
  ----------------------------------------
  Sum of atomic charges =    -0.000000

                    Cartesian Multipole Moments
 -----------------------------------------------------------------
    Charge (ESU x 10^10)
                -0.0000
    Dipole Moment (Debye)
         X      -0.0702      Y       1.7484      Z      -0.2455
       Tot       1.7670
    Quadrupole Moments (Debye-Ang)
        XX    -164.3594     XY       3.1788     YY    -150.7132
        XZ       3.1687     YZ      -4.5691     ZZ    -164.2216

 Total job time:  97.66s(wall), 4652.65s(cpu)
        *  Thank you very much for using Q-Chem.  Have a nice day.  *
