 Q-Chem 5.0, Q-Chem, Inc., Pleasanton, CA (2017)
 Q-Chem 5.0.1 for Intel X86 EM64T Linux

User input:
--------------------------------------------------------------
$molecule
0  1
O -3.94934 -3.66094 2.70899
C -3.26408 -4.56952 2.26188
C -3.36658 -6.02376 2.66595
C -3.63629 -7.04588 1.54953
C -3.59671 -6.52161 0.1312
O -2.43316 -6.9047 -0.47279
C -1.47917 -5.84297 -0.58181
C -1.99603 -4.76739 -1.53161
O -1.31615 -4.86087 -2.79332
C 0.03348 -4.97272 -2.72156
C 0.72322 -4.61458 -4.01641
C 1.00447 -3.117 -4.20735
C 0.89111 -2.25947 -2.96297
O -0.14248 -1.76936 -2.53165
O -2.16093 -4.16236 1.60332
O 2.04637 -1.94305 -2.31274
O 0.67658 -4.78424 -1.69106
C 2.11705 -1.17003 -1.17241
C 2.13572 -5.21282 -4.16283
C 2.48831 -5.33088 -5.644
C 2.64596 -3.86964 -6.01078
C 2.49228 -3.22245 -4.62765
O 2.99737 -4.18887 -3.73843
H 0.08821 -5.02245 -4.83628
H 0.4051 -2.63106 -5.00807
H 2.25234 -6.19547 -3.65549
H 3.48633 -5.8225 -5.69819
H 1.76742 -5.90052 -6.26907
H 3.67291 -3.7191 -6.41159
H 1.89333 -3.47463 -6.72703
H 3.00281 -2.23404 -4.61564
O -4.46062 -5.81317 -0.36136
C -1.79494 -2.84253 1.40589
C -2.07766 -6.58161 3.29458
C -2.41577 -7.75574 4.21048
C -2.79257 -8.8076 3.18846
C -2.49806 -8.05056 1.88674
O -1.41949 -7.21434 2.22697
H -4.18603 -6.05931 3.41976
H -4.61622 -7.56209 1.65408
H -1.6564 -2.3336 2.38369
H -1.49346 -5.81355 3.84732
H -1.47043 -8.06773 4.70975
H -3.18665 -7.5461 4.98298
H -2.09627 -9.66843 3.30095
H -3.84445 -9.16317 3.23611
H -2.31643 -8.78295 1.06992
H -2.57078 -2.31289 0.81263
H -0.8311 -2.80652 0.85778
H 3.17752 -1.07867 -0.86034
H 1.54193 -1.6487 -0.35088
H 1.71368 -0.15439 -1.37209
H -3.07664 -4.68064 -1.70738
H -1.6985 -3.7902 -1.10446
H -0.60891 -6.41293 -0.94277
H -1.07962 -5.52854 0.37751
$end

$opt
CONSTRAINT
tors           1           2           3           4    +123.158
tors           3           4           5           6    +104.211
tors           4           5           6           7    -104.211
tors           5           6           7           8     -66.316
tors           6           7           8           9    -104.211
tors           7           8           9          10     -47.368
tors           8           9          10          11    -161.053
tors           9          10          11          12     +85.263
tors          11          12          13          14     -85.263
ENDCONSTRAINT
$end

$rem
JOBTYPE                   OPT
METHOD                    B3LYP
DFT_D                     d3_op
BASIS                     STO-3G
GEOM_OPT_MAX_CYCLES       100
GEOM_OPT_TOL_GRADIENT     300
GEOM_OPT_TOL_DISPLACEMENT 1200
GEOM_OPT_TOL_ENERGY       100
SYMMETRY                  False
THRESH                    12
SCF_CONVERGENCE           8
MAX_SUB_FILE_NUM          128
MEM_STATIC                400
MEM_TOTAL                 4000
$end
--------------------------------------------------------------

   16   -1510.0937430913      2.96E-09 Convergence criterion met
 Total energy in the final basis set = -1510.09374309
   14   -1510.1717078607      7.83E-09 Convergence criterion met
 Total energy in the final basis set = -1510.17170786
   15   -1510.2156322783      1.82E-09 Convergence criterion met
 Total energy in the final basis set = -1510.21563228
   14   -1510.2373217236      8.75E-09 Convergence criterion met
 Total energy in the final basis set = -1510.23732172
   15   -1510.2484582564      1.83E-09 Convergence criterion met
 Total energy in the final basis set = -1510.24845826
   14   -1510.2527178241      3.39E-09 Convergence criterion met
 Total energy in the final basis set = -1510.25271782
   14   -1510.2551668395      2.85E-09 Convergence criterion met
 Total energy in the final basis set = -1510.25516684
   13   -1510.2562600042      9.87E-09 Convergence criterion met
   11   -1510.2570562149      7.15E-09 Convergence criterion met
 Total energy in the final basis set = -1510.25705621
   11   -1510.2570661989      5.54E-09 Convergence criterion met
 Total energy in the final basis set = -1510.25706620
   11   -1510.2570731550      3.96E-09 Convergence criterion met
 Total energy in the final basis set = -1510.25707315
   11   -1510.2570801460      4.28E-09 Convergence criterion met
 Total energy in the final basis set = -1510.25708015
   11   -1510.2570834171      4.28E-09 Convergence criterion met
 Total energy in the final basis set = -1510.25708342
   11   -1510.2570873874      3.32E-09 Convergence criterion met
 Total energy in the final basis set = -1510.25708739

             Standard Nuclear Orientation (Angstroms)
    I     Atom           X                Y                Z
 ----------------------------------------------------------------
    1      O       3.9374726056    -2.9213405196    -0.9722313007
    2      C       3.5742393437    -1.8433214777    -0.4512673283
    3      C       4.5215331618    -0.6666739072    -0.0484940156
    4      C       4.2733562520     0.7875785261    -0.6504669507
    5      C       2.8923717294     1.0421834696    -1.3881058237
    6      O       1.9515378741     1.8146599521    -0.6016355241
    7      C       0.8896055918     0.9601958382    -0.0364086985
    8      C      -0.0605435526     0.3339776984    -1.1454524743
    9      O      -1.4173485104     0.9104678347    -1.3276005095
   10      C      -2.1506232904     1.1099987988    -0.1188480483
   11      C      -3.6584841172     1.2376258921    -0.5390818759
   12      C      -4.3406043534    -0.1989887763    -0.6673536254
   13      C      -3.3425577297    -1.3478372883    -0.2709266258
   14      O      -2.4998854475    -1.9030596754    -1.0115205200
   15      O       2.2360794242    -1.6095154481     0.0012750342
   16      O      -3.4961868428    -1.6498395513     1.1186330522
   17      O      -1.6956760519     1.1088770694     1.0466206443
   18      C      -2.4851783460    -2.6469727630     1.5365389841
   19      C      -4.5672780308     1.9052905700     0.5722882880
   20      C      -5.9292597574     2.3257675793    -0.1081282729
   21      C      -6.6218541117     0.9231416681    -0.2847091885
   22      C      -5.5424756855    -0.0386083294     0.3546065033
   23      O      -4.9533726257     0.7722760605     1.4448728683
   24      H      -3.7104533873     1.7801783069    -1.4995551988
   25      H      -4.6827378958    -0.3830019110    -1.7013863353
   26      H      -4.0629639554     2.6927923944     1.1649453217
   27      H      -6.5096745154     2.9812776724     0.5604922361
   28      H      -5.7724187824     2.8459146199    -1.0665681576
   29      H      -7.5670026853     0.8650628444     0.2780445945
   30      H      -6.8242696384     0.6778375343    -1.3396273706
   31      H      -5.9364585206    -0.9940189149     0.7507142720
   32      O       2.6393469867     0.6658423265    -2.5547567815
   33      C       1.3972896759    -2.7997917457    -0.2753353997
   34      C       4.4930381728    -0.3570281738     1.5178311067
   35      C       5.9010564130     0.2390243390     1.9073226702
   36      C       5.8094016113     1.6626061760     1.2440750985
   37      C       4.3340346006     1.6513771338     0.6794128610
   38      O       3.5868050728     0.8033600818     1.6402346102
   39      H       5.5304383649    -1.0030552467    -0.3479089017
   40      H       5.0863676135     1.0382354426    -1.3563855159
   41      H       1.8518077165    -3.7205541916     0.1426341232
   42      H       4.1389393298    -1.1963596189     2.1471355075
   43      H       5.9960602127     0.3095782599     3.0027860595
   44      H       6.7351541569    -0.3652716091     1.5168226191
   45      H       5.9303336982     2.4649132323     1.9888896077
   46      H       6.5551006552     1.8081060776     0.4461306898
   47      H       3.8491373768     2.6415230460     0.5889223801
   48      H       1.2432023500    -2.9443726450    -1.3642197618
   49      H       0.4229990180    -2.6104304981     0.2112816276
   50      H      -2.7224442511    -2.9007384192     2.5858625791
   51      H      -1.4603835029    -2.2245424128     1.4845048006
   52      H      -2.5246247026    -3.5619599341     0.9107407154
   53      H       0.4369062441     0.4337982208    -2.1339482026
   54      H      -0.1939313358    -0.7484840438    -0.9352247809
   55      H       0.3029726159     1.5951690112     0.6547825489
   56      H       1.3484672642     0.1181090944     0.5269176236
 ----------------------------------------------------------------

   10   -1510.2570870896      8.77E-09 Convergence criterion met
 Total energy in the final basis set = -1510.25708709
 Final energy is   -1510.25708708958
 **  OPTIMIZATION CONVERGED  **

                    Orbital Energies (a.u.)
 --------------------------------------------------------------

 Alpha MOs
 -- Occupied --
-18.946 -18.938 -18.927 -18.899 -18.895 -18.892 -18.884 -18.883
-18.874 -18.874 -10.108 -10.107 -10.100 -10.098 -10.072 -10.066
-10.065 -10.060 -10.057 -10.056 -10.056 -10.050 -10.044 -10.040
-10.037 -10.034 -10.024 -10.022 -10.018 -10.017  -1.021  -1.014
 -1.006  -1.003  -0.974  -0.966  -0.944  -0.937  -0.935  -0.930
 -0.766  -0.761  -0.725  -0.722  -0.712  -0.705  -0.687  -0.669
 -0.662  -0.611  -0.600  -0.582  -0.548  -0.545  -0.540  -0.534
 -0.518  -0.511  -0.489  -0.477  -0.468  -0.453  -0.439  -0.437
 -0.433  -0.429  -0.423  -0.420  -0.412  -0.411  -0.408  -0.404
 -0.397  -0.380  -0.375  -0.373  -0.361  -0.359  -0.352  -0.351
 -0.347  -0.345  -0.334  -0.332  -0.329  -0.328  -0.324  -0.312
 -0.310  -0.307  -0.305  -0.304  -0.296  -0.292  -0.282  -0.278
 -0.276  -0.264  -0.254  -0.241  -0.238  -0.231  -0.231  -0.188
 -0.178  -0.176  -0.166  -0.158  -0.153  -0.149  -0.145  -0.142
 -0.140

          Ground-State Mulliken Net Atomic Charges

     Atom                 Charge (a.u.)
  ----------------------------------------
      1 O                    -0.208302
      2 C                     0.207269
      3 C                    -0.081888
      4 C                    -0.081253
      5 C                     0.219939
      6 O                    -0.200205
      7 C                    -0.061171
      8 C                    -0.061166
      9 O                    -0.171891
     10 C                     0.207313
     11 C                    -0.078077
     12 C                    -0.077617
     13 C                     0.204224
     14 O                    -0.218972
     15 O                    -0.172886
     16 O                    -0.161155
     17 O                    -0.212047
     18 C                    -0.126808
     19 C                     0.024561
     20 C                    -0.143626
     21 C                    -0.144538
     22 C                     0.025980
     23 O                    -0.184874
     24 H                     0.086501
     25 H                     0.085657
     26 H                     0.086462
     27 H                     0.077562
     28 H                     0.073198
     29 H                     0.077457
     30 H                     0.072789
     31 H                     0.086117
     32 O                    -0.187407
     33 C                    -0.128339
     34 C                     0.025354
     35 C                    -0.142688
     36 C                    -0.145629
     37 C                     0.024985
     38 O                    -0.187873
     39 H                     0.087571
     40 H                     0.084795
     41 H                     0.092876
     42 H                     0.083149
     43 H                     0.078915
     44 H                     0.074645
     45 H                     0.079053
     46 H                     0.074037
     47 H                     0.093389
     48 H                     0.094646
     49 H                     0.091219
     50 H                     0.094127
     51 H                     0.084281
     52 H                     0.088462
     53 H                     0.101074
     54 H                     0.082217
     55 H                     0.105803
     56 H                     0.102786
  ----------------------------------------
  Sum of atomic charges =    -0.000000

                    Cartesian Multipole Moments
 -----------------------------------------------------------------
    Charge (ESU x 10^10)
                -0.0000
    Dipole Moment (Debye)
         X       0.3120      Y      -0.5540      Z       0.5195
       Tot       0.8211
    Quadrupole Moments (Debye-Ang)
        XX    -137.3267     XY       3.7291     YY    -156.5121
        XZ      11.7759     YZ      -6.9960     ZZ    -169.6111

 Total job time:  60.93s(wall), 2899.50s(cpu)
        *  Thank you very much for using Q-Chem.  Have a nice day.  *
