 Q-Chem 5.0, Q-Chem, Inc., Pleasanton, CA (2017)
 Q-Chem 5.0.1 for Intel X86 EM64T Linux

User input:
--------------------------------------------------------------
$molecule
0  1
O 2.5835637544 -2.2642053951 -1.5880511723
C 2.6607547499 -1.0283646952 -1.4145425583
C 3.9903025134 -0.2267195153 -1.151598294
C 3.8761005082 1.105484537 -0.2945003878
C 2.4275823315 1.6592902025 -0.0618602967
O 1.8918127843 1.1097142478 1.1536669607
C 0.7322981376 1.9138737199 1.6052114709
C -0.5733132693 1.1899702902 1.1243101344
O -1.7177213469 1.6994438045 1.9083820616
C -2.9813283592 1.2089484766 1.4060843337
C -3.3146286283 -0.3520438087 1.2947006261
C -4.4603093302 -0.5625922301 0.225498679
C -4.2831148888 0.3317131355 -1.0638552393
O -4.9922039158 0.2882813985 -2.0918103977
O 1.5317229399 -0.1529280333 -1.4627986791
O -3.0279113902 1.0298485596 -1.0129148402
O -3.9315387557 2.0242174343 1.3885974028
C -2.8161345385 1.7998456252 -2.2593466455
C -2.3527812267 -1.5802070801 0.9410719309
C -2.9395809304 -2.8301799115 1.7084263966
C -4.2696881274 -3.0713086878 0.902834671
C -4.1128893369 -2.0300636152 -0.2733338098
O -2.644247253 -1.91260623 -0.4717288968
H -3.7410096696 -0.56471717 2.2946774621
H -5.479997291 -0.4548040031 0.6342603415
H -1.2690223807 -1.4321992552 1.0840929341
H -2.2531214725 -3.6866781612 1.6111332419
H -3.1111566449 -2.6324623093 2.7785135157
H -4.3283155125 -4.0978932563 0.5081662736
H -5.1710525072 -2.8730106146 1.5053115207
H -4.6114125876 -2.3083023689 -1.222246461
O 1.8781153617 2.5774796491 -0.7097816163
C 0.2925345683 -0.9286314336 -1.715048921
C 4.9167180174 -1.1026524461 -0.2069471582
C 6.3773179162 -0.504039271 -0.1997517921
C 6.1906776579 0.7513179103 0.7317089583
C 4.6421766832 0.6753346539 1.0302324571
O 4.3895729579 -0.7792424076 1.1402471138
H 4.4663808666 -0.0280979525 -2.1300316824
H 4.4199829075 1.9147457032 -0.8144424235
H 0.1661735162 -1.7478193658 -0.9797828227
H 4.8404831929 -2.189819737 -0.4053892887
H 7.0885881134 -1.2268523051 0.2302486449
H 6.7167894058 -0.2348530014 -1.2129000499
H 6.7666823412 0.6489568635 1.6653507988
H 6.4773230443 1.6950269069 0.2411778382
H 4.3039222127 1.1976807376 1.9453498701
H 0.2951154832 -1.3678888287 -2.7332527367
H -0.5488383893 -0.2177315964 -1.6220417105
H -1.8286246155 2.2862674694 -2.154280347
H -3.597595539 2.5744089902 -2.3962941514
H -2.8146767496 1.1361178776 -3.1480302027
H -0.725981633 1.3603842927 0.0375944102
H -0.411106429 0.1053837415 1.2840649176
H 0.7842586726 2.9450303576 1.1989760428
H 0.7652851615 1.932624741 2.7140067019
$end

$rem
JOBTYPE                   OPT
METHOD                    B3LYP
DFT_D                     d3_op
BASIS                     STO-3G
GEOM_OPT_MAX_CYCLES       100
GEOM_OPT_TOL_GRADIENT     300
GEOM_OPT_TOL_DISPLACEMENT 1200
GEOM_OPT_TOL_ENERGY       100
SYMMETRY                  False
THRESH                    12
SCF_CONVERGENCE           8
MAX_SUB_FILE_NUM          128
MEM_STATIC                400
MEM_TOTAL                 4000
$end
--------------------------------------------------------------

   15   -1510.2514450439      8.78E-09 Convergence criterion met
 Total energy in the final basis set = -1510.25144504
   14   -1510.2511792473      8.00E-09 Convergence criterion met
 Total energy in the final basis set = -1510.25117925
   14   -1510.2544868328      5.24E-09 Convergence criterion met
 Total energy in the final basis set = -1510.25448683
   15   -1510.2475618622      8.30E-09 Convergence criterion met
 Total energy in the final basis set = -1510.24756186
   13   -1510.2545699549      8.32E-09 Convergence criterion met
 Total energy in the final basis set = -1510.25456995
   14   -1510.2617355808      6.87E-09 Convergence criterion met
 Total energy in the final basis set = -1510.26173558
   14   -1510.2499905854      4.69E-09 Convergence criterion met
 Total energy in the final basis set = -1510.24999059
   14   -1510.2622791755      5.85E-09 Convergence criterion met
   11   -1510.2843482548      9.95E-09 Convergence criterion met
 Total energy in the final basis set = -1510.28434825
   11   -1510.2843419461      6.75E-09 Convergence criterion met
 Total energy in the final basis set = -1510.28434195
    9   -1510.2843449729      8.25E-09 Convergence criterion met
 Total energy in the final basis set = -1510.28434497
    9   -1510.2843448815      9.11E-09 Convergence criterion met
 Total energy in the final basis set = -1510.28434488
   10   -1510.2843430692      8.57E-09 Convergence criterion met
 Total energy in the final basis set = -1510.28434307
   11   -1510.2843398006      2.63E-09 Convergence criterion met
 Total energy in the final basis set = -1510.28433980

             Standard Nuclear Orientation (Angstroms)
    I     Atom           X                Y                Z
 ----------------------------------------------------------------
    1      O       1.8715180639    -2.2913387624     0.1768388264
    2      C       2.1910658074    -1.4241367334    -0.6633447799
    3      C       3.5963560182    -0.7691786454    -0.8941912940
    4      C       3.5415210467     0.8150128829    -0.9379538100
    5      C       2.1243156397     1.4004919496    -0.6151280433
    6      O       1.7135114866     0.8968559549     0.6578799151
    7      C       0.4744602323     1.5606601543     1.1349301276
    8      C      -0.4543413021     0.5076241821     1.8364392735
    9      O      -1.5452489401     1.2537824958     2.5167317150
   10      C      -2.7134627307     1.3782592435     1.6735001785
   11      C      -3.5805308957     0.0624894125     1.4364948559
   12      C      -3.8579363541    -0.2701203242    -0.0920134535
   13      C      -3.3178607434     0.7759959532    -1.1245981389
   14      O      -4.0084714767     1.4049086178    -1.9548855061
   15      O       1.3096890819    -0.8564253794    -1.6381595845
   16      O      -1.8934785193     0.9202448311    -1.0121688256
   17      O      -3.1244359476     2.5075297246     1.3304472971
   18      C      -1.4105079048     1.9287452914    -1.9933603378
   19      C      -2.9254779405    -1.2882240197     1.9271237513
   20      C      -4.0272896708    -2.4166308405     1.9684816582
   21      C      -4.1848318919    -2.7550152459     0.4392137535
   22      C      -3.1923568548    -1.7130107106    -0.2049443225
   23      O      -2.0763137994    -1.6767891037     0.7713102465
   24      H      -4.5393007349     0.2450453975     1.9567819694
   25      H      -4.9445061841    -0.3373327456    -0.2759627559
   26      H      -2.3148964908    -1.1924096430     2.8446787801
   27      H      -3.6651518547    -3.2863106266     2.5392188231
   28      H      -4.9649425207    -2.0610847440     2.4245821466
   29      H      -3.8543138918    -3.7826292216     0.2187742535
   30      H      -5.2169927792    -2.6284740713     0.0756667350
   31      H      -2.8197535105    -1.9774460747    -1.2127754101
   32      O       1.4746551791     2.2140524557    -1.3138694621
   33      C      -0.0629300576    -1.3963580654    -1.5011560231
   34      C       4.5929581828    -1.0166756025     0.3112257103
   35      C       6.0589836468    -0.7355373219    -0.2011062587
   36      C       6.0378053721     0.8340611257    -0.3199360614
   37      C       4.5854291483     1.1652539350     0.2099033364
   38      O       4.3310348790     0.1199221735     1.2258010835
   39      H       4.0059411142    -1.1663885914    -1.8413962062
   40      H       3.8534905562     1.2100978463    -1.9203978646
   41      H      -0.1022410623    -2.1091304995    -0.6538998185
   42      H       4.4357310249    -1.9798191282     0.8349848898
   43      H       6.7974234099    -1.0728910027     0.5437486902
   44      H       6.2707027718    -1.2340292765    -1.1604926569
   45      H       6.7993688225     1.3003323219     0.3248628366
   46      H       6.1878059458     1.1838827933    -1.3537614116
   47      H       4.4630816616     2.1735254367     0.6509781939
   48      H      -0.3333808656    -1.9143995343    -2.4422123347
   49      H      -0.7637138877    -0.5492285021    -1.3173827282
   50      H      -0.3195976641     2.0511238995    -1.8015762377
   51      H      -1.9354679277     2.8936305955    -1.8514870454
   52      H      -1.5813124443     1.5813118126    -3.0317219966
   53      H      -0.8485459754    -0.2501020416     1.1175670738
   54      H       0.1181553714    -0.0132816334     2.6322116451
   55      H      -0.0541849766     2.0473794162     0.2926645716
   56      H       0.7568100517     2.3427558483     1.8732368331
 ----------------------------------------------------------------

    9   -1510.2843392730      3.91E-09 Convergence criterion met
 Total energy in the final basis set = -1510.28433927
 Final energy is   -1510.28433927300
 **  OPTIMIZATION CONVERGED  **

                    Orbital Energies (a.u.)
 --------------------------------------------------------------

 Alpha MOs
 -- Occupied --
-18.943 -18.935 -18.925 -18.908 -18.908 -18.894 -18.887 -18.885
-18.879 -18.873 -10.107 -10.107 -10.105 -10.097 -10.074 -10.071
-10.061 -10.061 -10.057 -10.056 -10.048 -10.047 -10.044 -10.038
-10.037 -10.036 -10.031 -10.030 -10.021 -10.019  -1.018  -1.015
 -1.005  -1.002  -0.986  -0.969  -0.942  -0.941  -0.935  -0.932
 -0.773  -0.764  -0.731  -0.725  -0.716  -0.707  -0.693  -0.657
 -0.651  -0.609  -0.602  -0.582  -0.558  -0.549  -0.542  -0.537
 -0.522  -0.511  -0.489  -0.481  -0.473  -0.462  -0.447  -0.441
 -0.438  -0.432  -0.431  -0.417  -0.413  -0.408  -0.403  -0.394
 -0.388  -0.383  -0.375  -0.371  -0.365  -0.363  -0.356  -0.348
 -0.345  -0.343  -0.336  -0.334  -0.331  -0.328  -0.323  -0.319
 -0.317  -0.310  -0.304  -0.303  -0.297  -0.292  -0.289  -0.283
 -0.274  -0.259  -0.255  -0.246  -0.241  -0.234  -0.233  -0.188
 -0.179  -0.168  -0.166  -0.163  -0.160  -0.154  -0.153  -0.150
 -0.143

          Ground-State Mulliken Net Atomic Charges

     Atom                 Charge (a.u.)
  ----------------------------------------
      1 O                    -0.212271
      2 C                     0.215451
      3 C                    -0.077969
      4 C                    -0.076949
      5 C                     0.221663
      6 O                    -0.168279
      7 C                    -0.054561
      8 C                    -0.060205
      9 O                    -0.191476
     10 C                     0.217883
     11 C                    -0.082871
     12 C                    -0.082520
     13 C                     0.209668
     14 O                    -0.203102
     15 O                    -0.178707
     16 O                    -0.177280
     17 O                    -0.187614
     18 C                    -0.145329
     19 C                     0.021333
     20 C                    -0.143672
     21 C                    -0.142159
     22 C                     0.025311
     23 O                    -0.188913
     24 H                     0.088092
     25 H                     0.088630
     26 H                     0.091526
     27 H                     0.081549
     28 H                     0.076728
     29 H                     0.080955
     30 H                     0.077178
     31 H                     0.086087
     32 O                    -0.220256
     33 C                    -0.154724
     34 C                     0.024449
     35 C                    -0.143516
     36 C                    -0.144225
     37 C                     0.025893
     38 O                    -0.185312
     39 H                     0.084594
     40 H                     0.085949
     41 H                     0.100138
     42 H                     0.090317
     43 H                     0.078136
     44 H                     0.073086
     45 H                     0.078116
     46 H                     0.073711
     47 H                     0.082351
     48 H                     0.073235
     49 H                     0.102269
     50 H                     0.115860
     51 H                     0.089933
     52 H                     0.083762
     53 H                     0.109176
     54 H                     0.086149
     55 H                     0.096965
     56 H                     0.085771
  ----------------------------------------
  Sum of atomic charges =    -0.000000

                    Cartesian Multipole Moments
 -----------------------------------------------------------------
    Charge (ESU x 10^10)
                 0.0000
    Dipole Moment (Debye)
         X       0.3119      Y      -2.4869      Z      -0.7066
       Tot       2.6041
    Quadrupole Moments (Debye-Ang)
        XX    -144.2985     XY      14.3742     YY    -165.6636
        XZ     -10.5834     YZ       1.5473     ZZ    -162.3728

 Total job time:  144.26s(wall), 6880.73s(cpu)
        *  Thank you very much for using Q-Chem.  Have a nice day.  *
