 Q-Chem 5.0, Q-Chem, Inc., Pleasanton, CA (2017)
 Q-Chem 5.0.1 for Intel X86 EM64T Linux

User input:
--------------------------------------------------------------
$molecule
0  1
O -3.94934 -3.66094 2.70899
C -3.26408 -4.56952 2.26188
C -3.36658 -6.02376 2.66595
C -2.08828 -6.87229 2.56696
C -0.80982 -6.13073 2.2449
O -0.19274 -5.74601 3.40102
C 1.18354 -5.39835 3.216
C 1.33127 -3.88554 3.09069
O 2.69549 -3.50551 3.33017
C 2.98854 -2.20313 3.09129
C 2.14666 -1.25136 3.9074
C 2.03113 0.16749 3.33137
C 2.45595 0.33038 1.8858
O 2.34999 1.35475 1.227
O -2.52994 -4.30837 1.14729
O 2.77264 -0.74773 1.11776
O 4.1494 -1.91413 2.83007
C 3.08877 -0.72584 -0.2274
C 0.72318 -1.2931 4.56631
C 0.56869 -0.24312 5.69912
C 0.30043 1.00765 4.90809
C 0.53145 0.47697 3.50946
O -0.09444 -0.78716 3.54713
H 2.79624 -1.19875 4.81055
H 2.67259 0.89134 3.88483
H 0.41337 -2.18778 5.12657
H -0.32813 -0.43749 6.33128
H 1.46875 -0.20357 6.35016
H -0.78249 1.25997 4.9786
H 0.90638 1.89248 5.19966
H 0.12744 1.19437 2.7615
O -0.26354 -6.20255 1.14974
C -2.3573 -3.05432 0.59915
C -3.71426 -6.2198 4.15797
C -4.38994 -7.57561 4.3573
C -3.21633 -8.50951 4.14864
C -2.08021 -7.49354 3.98294
O -2.47335 -6.41102 4.79138
H -4.1917 -6.44289 2.04725
H -2.1913 -7.66319 1.79031
H -1.86537 -2.3819 1.33464
H -4.35619 -5.41368 4.57497
H -4.7006 -7.63166 5.42543
H -5.27235 -7.76859 3.71004
H -3.07424 -9.1071 5.07649
H -3.29671 -9.18534 3.26991
H -1.10413 -7.9665 4.22979
H -3.33749 -2.62883 0.29543
H -1.70938 -3.13601 -0.29747
H 3.30439 -1.75997 -0.56583
H 3.98959 -0.09846 -0.39766
H 2.23456 -0.32886 -0.81631
H 0.97842 -3.5633 2.08529
H 0.64501 -3.56827 3.83253
H 1.71627 -5.94279 2.40354
H 1.69455 -5.7053 4.15422
$end

$opt
CONSTRAINT
tors           1           2           3           4    -151.116
tors           3           4           5           6     +90.967
tors           4           5           6           7    +162.684
tors           5           6           7           8     +97.861
tors           6           7           8           9    +161.811
tors           7           8           9          10    +172.457
tors           8           9          10          11     +58.039
tors           9          10          11          12    -157.734
tors          11          12          13          14    +174.633
ENDCONSTRAINT
$end

$rem
JOBTYPE                   OPT
METHOD                    B3LYP
DFT_D                     d3_op
BASIS                     STO-3G
GEOM_OPT_MAX_CYCLES       100
GEOM_OPT_TOL_GRADIENT     300
GEOM_OPT_TOL_DISPLACEMENT 1200
GEOM_OPT_TOL_ENERGY       100
SYMMETRY                  False
THRESH                    12
SCF_CONVERGENCE           8
MAX_SUB_FILE_NUM          128
MEM_STATIC                400
MEM_TOTAL                 4000
$end
--------------------------------------------------------------

   16   -1510.0758944922      2.46E-09 Convergence criterion met
 Total energy in the final basis set = -1510.07589449
   14   -1510.1537844399      1.56E-09 Convergence criterion met
 Total energy in the final basis set = -1510.15378444
   14   -1510.1981160650      1.76E-09 Convergence criterion met
 Total energy in the final basis set = -1510.19811606
   14   -1510.2215025912      1.95E-09 Convergence criterion met
 Total energy in the final basis set = -1510.22150259
   14   -1510.2325123004      1.71E-09 Convergence criterion met
 Total energy in the final basis set = -1510.23251230
   13   -1510.2378392048      6.55E-09 Convergence criterion met
 Total energy in the final basis set = -1510.23783920
   13   -1510.2407166935      4.66E-09 Convergence criterion met
 Total energy in the final basis set = -1510.24071669
   13   -1510.2423299935      3.38E-09 Convergence criterion met
   11   -1510.2514946915      5.37E-09 Convergence criterion met
 Total energy in the final basis set = -1510.25149469
   11   -1510.2515221027      5.81E-09 Convergence criterion met
 Total energy in the final basis set = -1510.25152210
   11   -1510.2515370740      4.72E-09 Convergence criterion met
 Total energy in the final basis set = -1510.25153707
   11   -1510.2515506191      4.05E-09 Convergence criterion met
 Total energy in the final basis set = -1510.25155062
   10   -1510.2515374690      9.09E-09 Convergence criterion met
 Total energy in the final basis set = -1510.25153747
    9   -1510.2515460761      7.90E-09 Convergence criterion met
 Total energy in the final basis set = -1510.25154608

             Standard Nuclear Orientation (Angstroms)
    I     Atom           X                Y                Z
 ----------------------------------------------------------------
    1      O       2.5835637544    -2.2642053951    -1.5880511723
    2      C       2.6607547499    -1.0283646952    -1.4145425583
    3      C       3.9903025134    -0.2267195153    -1.1515982940
    4      C       3.8761005082     1.1054845370    -0.2945003878
    5      C       2.4275823315     1.6592902025    -0.0618602967
    6      O       1.8918127843     1.1097142478     1.1536669607
    7      C       0.7322981376     1.9138737199     1.6052114709
    8      C      -0.5733132693     1.1899702902     1.1243101344
    9      O      -1.7177213469     1.6994438045     1.9083820616
   10      C      -2.9813283592     1.2089484766     1.4060843337
   11      C      -3.3146286283    -0.3520438087     1.2947006261
   12      C      -4.4603093302    -0.5625922301     0.2254986790
   13      C      -4.2831148888     0.3317131355    -1.0638552393
   14      O      -4.9922039158     0.2882813985    -2.0918103977
   15      O       1.5317229399    -0.1529280333    -1.4627986791
   16      O      -3.0279113902     1.0298485596    -1.0129148402
   17      O      -3.9315387557     2.0242174343     1.3885974028
   18      C      -2.8161345385     1.7998456252    -2.2593466455
   19      C      -2.3527812267    -1.5802070801     0.9410719309
   20      C      -2.9395809304    -2.8301799115     1.7084263966
   21      C      -4.2696881274    -3.0713086878     0.9028346710
   22      C      -4.1128893369    -2.0300636152    -0.2733338098
   23      O      -2.6442472530    -1.9126062300    -0.4717288968
   24      H      -3.7410096696    -0.5647171700     2.2946774621
   25      H      -5.4799972910    -0.4548040031     0.6342603415
   26      H      -1.2690223807    -1.4321992552     1.0840929341
   27      H      -2.2531214725    -3.6866781612     1.6111332419
   28      H      -3.1111566449    -2.6324623093     2.7785135157
   29      H      -4.3283155125    -4.0978932563     0.5081662736
   30      H      -5.1710525072    -2.8730106146     1.5053115207
   31      H      -4.6114125876    -2.3083023689    -1.2222464610
   32      O       1.8781153617     2.5774796491    -0.7097816163
   33      C       0.2925345683    -0.9286314336    -1.7150489210
   34      C       4.9167180174    -1.1026524461    -0.2069471582
   35      C       6.3773179162    -0.5040392710    -0.1997517921
   36      C       6.1906776579     0.7513179103     0.7317089583
   37      C       4.6421766832     0.6753346539     1.0302324571
   38      O       4.3895729579    -0.7792424076     1.1402471138
   39      H       4.4663808666    -0.0280979525    -2.1300316824
   40      H       4.4199829075     1.9147457032    -0.8144424235
   41      H       0.1661735162    -1.7478193658    -0.9797828227
   42      H       4.8404831929    -2.1898197370    -0.4053892887
   43      H       7.0885881134    -1.2268523051     0.2302486449
   44      H       6.7167894058    -0.2348530014    -1.2129000499
   45      H       6.7666823412     0.6489568635     1.6653507988
   46      H       6.4773230443     1.6950269069     0.2411778382
   47      H       4.3039222127     1.1976807376     1.9453498701
   48      H       0.2951154832    -1.3678888287    -2.7332527367
   49      H      -0.5488383893    -0.2177315964    -1.6220417105
   50      H      -1.8286246155     2.2862674694    -2.1542803470
   51      H      -3.5975955390     2.5744089902    -2.3962941514
   52      H      -2.8146767496     1.1361178776    -3.1480302027
   53      H      -0.7259816330     1.3603842927     0.0375944102
   54      H      -0.4111064290     0.1053837415     1.2840649176
   55      H       0.7842586726     2.9450303576     1.1989760428
   56      H       0.7652851615     1.9326247410     2.7140067019
 ----------------------------------------------------------------

    9   -1510.2515385989      2.25E-09 Convergence criterion met
 Total energy in the final basis set = -1510.25153860
 Final energy is   -1510.25153859887
 **  OPTIMIZATION CONVERGED  **

                    Orbital Energies (a.u.)
 --------------------------------------------------------------

 Alpha MOs
 -- Occupied --
-18.944 -18.942 -18.928 -18.919 -18.893 -18.888 -18.879 -18.879
-18.871 -18.869 -10.104 -10.103 -10.102 -10.100 -10.070 -10.068
-10.068 -10.067 -10.066 -10.065 -10.061 -10.059 -10.042 -10.042
-10.038 -10.037 -10.026 -10.025 -10.022 -10.021  -1.018  -1.017
 -1.008  -0.999  -0.977  -0.971  -0.941  -0.940  -0.936  -0.930
 -0.766  -0.765  -0.728  -0.726  -0.713  -0.707  -0.696  -0.665
 -0.664  -0.610  -0.601  -0.587  -0.552  -0.546  -0.543  -0.539
 -0.520  -0.511  -0.491  -0.483  -0.472  -0.469  -0.446  -0.444
 -0.442  -0.436  -0.426  -0.418  -0.415  -0.412  -0.408  -0.402
 -0.391  -0.389  -0.379  -0.374  -0.366  -0.364  -0.352  -0.343
 -0.342  -0.339  -0.337  -0.332  -0.331  -0.322  -0.320  -0.316
 -0.313  -0.312  -0.307  -0.304  -0.301  -0.295  -0.289  -0.279
 -0.278  -0.260  -0.251  -0.246  -0.241  -0.235  -0.231  -0.184
 -0.182  -0.174  -0.166  -0.159  -0.158  -0.155  -0.152  -0.144
 -0.140

          Ground-State Mulliken Net Atomic Charges

     Atom                 Charge (a.u.)
  ----------------------------------------
      1 O                    -0.212509
      2 C                     0.211661
      3 C                    -0.077424
      4 C                    -0.081262
      5 C                     0.216434
      6 O                    -0.175471
      7 C                    -0.049162
      8 C                    -0.047129
      9 O                    -0.180187
     10 C                     0.220402
     11 C                    -0.085849
     12 C                    -0.074767
     13 C                     0.215735
     14 O                    -0.211807
     15 O                    -0.168646
     16 O                    -0.171349
     17 O                    -0.203743
     18 C                    -0.128193
     19 C                     0.021772
     20 C                    -0.141551
     21 C                    -0.145413
     22 C                     0.022743
     23 O                    -0.195606
     24 H                     0.082657
     25 H                     0.091280
     26 H                     0.081123
     27 H                     0.079116
     28 H                     0.075099
     29 H                     0.079924
     30 H                     0.076080
     31 H                     0.087443
     32 O                    -0.219482
     33 C                    -0.127270
     34 C                     0.023701
     35 C                    -0.144774
     36 C                    -0.143560
     37 C                     0.025673
     38 O                    -0.189723
     39 H                     0.085995
     40 H                     0.084727
     41 H                     0.094376
     42 H                     0.090247
     43 H                     0.078679
     44 H                     0.073512
     45 H                     0.077992
     46 H                     0.073445
     47 H                     0.086810
     48 H                     0.090500
     49 H                     0.095776
     50 H                     0.093537
     51 H                     0.093724
     52 H                     0.091908
     53 H                     0.086931
     54 H                     0.077931
     55 H                     0.097591
     56 H                     0.090353
  ----------------------------------------
  Sum of atomic charges =     0.000000

                    Cartesian Multipole Moments
 -----------------------------------------------------------------
    Charge (ESU x 10^10)
                 0.0000
    Dipole Moment (Debye)
         X       1.7909      Y      -1.1211      Z       0.2153
       Tot       2.1238
    Quadrupole Moments (Debye-Ang)
        XX    -153.7027     XY      15.2290     YY    -166.4868
        XZ      -5.8885     YZ      -4.5755     ZZ    -159.5217

 Total job time:  82.11s(wall), 3914.82s(cpu)
        *  Thank you very much for using Q-Chem.  Have a nice day.  *
