 Q-Chem 5.0, Q-Chem, Inc., Pleasanton, CA (2017)
 Q-Chem 5.0.1 for Intel X86 EM64T Linux

User input:
--------------------------------------------------------------
$molecule
0  1
O -3.94934 -3.66094 2.70899
C -3.26408 -4.56952 2.26188
C -3.36658 -6.02376 2.66595
C -2.39035 -6.52418 3.74317
C -1.5404 -5.47394 4.42337
O -0.57835 -6.07623 5.18306
C 0.73064 -5.5403 4.96269
C 1.55861 -5.63332 6.24017
O 2.78659 -6.33055 5.97781
C 3.82434 -5.55394 5.57895
C 5.08651 -6.34338 5.32528
C 6.38961 -5.61206 5.67935
C 6.24029 -4.37856 6.54704
O 6.97806 -4.06853 7.47124
O -2.24489 -4.26634 1.4156
O 5.49652 -3.36427 6.03593
O 3.61469 -4.49514 5.00089
C 5.34674 -2.11926 6.61368
C 5.26255 -7.62553 6.1798
C 6.18953 -8.59938 5.4538
C 7.51545 -7.88102 5.58654
C 7.10334 -6.71107 6.48726
O 6.05573 -7.2272 7.27065
H 5.05401 -6.63841 4.25185
H 6.94414 -5.29256 4.76969
H 4.31532 -8.14705 6.43308
H 6.22679 -9.52667 6.07008
H 5.89537 -8.86568 4.41584
H 8.22967 -8.55645 6.10776
H 7.95743 -7.51875 4.63299
H 7.98744 -6.32985 7.04354
O -1.55503 -4.26929 4.20973
C -1.95916 -2.99362 0.96785
C -4.70074 -6.31312 3.39917
C -5.04283 -7.80013 3.30429
C -4.01655 -8.38595 4.24942
C -3.36537 -7.104 4.77681
O -4.40546 -6.15952 4.76583
H -3.3692 -6.62639 1.73001
H -1.69226 -7.27778 3.31368
H -1.71776 -2.33063 1.82607
H -5.55306 -5.71105 3.01382
H -6.05266 -7.93234 3.75532
H -5.04331 -8.22553 2.27779
H -4.55314 -8.9168 5.06705
H -3.2705 -9.06366 3.78055
H -2.8846 -7.29059 5.76251
H -2.82548 -2.58219 0.40691
H -1.08162 -3.03481 0.2906
H 4.67814 -1.50248 5.97882
H 6.33127 -1.6109 6.69417
H 4.89038 -2.21957 7.62168
H 1.66988 -4.66993 6.78662
H 1.01189 -6.3035 6.93814
H 0.80135 -4.52963 4.50101
H 1.18714 -6.23429 4.2225
$end

$opt
CONSTRAINT
tors           1           2           3           4     -96.098
tors           3           4           5           6    -169.978
tors           4           5           6           7    +131.315
tors           5           6           7           8    +148.977
tors           6           7           8           9    +125.359
tors           7           8           9          10     +89.165
tors           8           9          10          11    +179.743
tors           9          10          11          12    -145.710
tors          11          12          13          14    +139.116
ENDCONSTRAINT
$end

$rem
JOBTYPE                   OPT
METHOD                    B3LYP
DFT_D                     d3_op
BASIS                     STO-3G
GEOM_OPT_MAX_CYCLES       100
GEOM_OPT_TOL_GRADIENT     300
GEOM_OPT_TOL_DISPLACEMENT 1200
GEOM_OPT_TOL_ENERGY       100
SYMMETRY                  False
THRESH                    12
SCF_CONVERGENCE           8
MAX_SUB_FILE_NUM          128
MEM_STATIC                400
MEM_TOTAL                 4000
$end
--------------------------------------------------------------

   16   -1510.1158243088      2.29E-09 Convergence criterion met
 Total energy in the final basis set = -1510.11582431
   13   -1510.1882373383      9.44E-09 Convergence criterion met
 Total energy in the final basis set = -1510.18823734
   13   -1510.2274847076      8.35E-09 Convergence criterion met
 Total energy in the final basis set = -1510.22748471
   14   -1510.2459050325      5.47E-09 Convergence criterion met
 Total energy in the final basis set = -1510.24590503
   14   -1510.2529476189      4.26E-09 Convergence criterion met
 Total energy in the final basis set = -1510.25294762
   13   -1510.2564919505      8.04E-09 Convergence criterion met
 Total energy in the final basis set = -1510.25649195
   13   -1510.2582834916      2.02E-09 Convergence criterion met
 Total energy in the final basis set = -1510.25828349
   12   -1510.2590061978      5.61E-09 Convergence criterion met
   11   -1510.2633401635      6.18E-09 Convergence criterion met
 Total energy in the final basis set = -1510.26334016
   10   -1510.2633490220      4.68E-09 Convergence criterion met
 Total energy in the final basis set = -1510.26334902
    9   -1510.2633537078      6.31E-09 Convergence criterion met
 Total energy in the final basis set = -1510.26335371
    9   -1510.2633567528      3.21E-09 Convergence criterion met
 Total energy in the final basis set = -1510.26335675
    9   -1510.2633592349      2.80E-09 Convergence criterion met
 Total energy in the final basis set = -1510.26335923
    9   -1510.2633610692      2.55E-09 Convergence criterion met
 Total energy in the final basis set = -1510.26336107

             Standard Nuclear Orientation (Angstroms)
    I     Atom           X                Y                Z
 ----------------------------------------------------------------
    1      O      -5.6064204639     2.0503393944     0.8607492942
    2      C      -5.0874795154     1.5367002522    -0.1522006426
    3      C      -5.1864696449     0.0380298406    -0.6258293551
    4      C      -3.9703147668    -0.8761766035    -0.1851644461
    5      C      -2.8445966450    -0.1045182525     0.5856190312
    6      O      -1.6840139580    -0.9525103606     0.7385653874
    7      C      -0.4620805650    -0.2199173181     0.3297547229
    8      C       0.7511572435    -0.7515638037     1.1885170231
    9      O       1.8646835015    -1.2113841928     0.3272948397
   10      C       2.7559576181    -0.1236762007     0.0429636284
   11      C       3.9345712294    -0.6471567696    -0.8705943319
   12      C       5.2924358710     0.0902431820    -0.5402528455
   13      C       5.1699237169     1.5613628070    -0.0041121669
   14      O       5.8338202844     2.0893518033     0.9136155969
   15      O      -4.3551046235     2.2634368166    -1.1506563723
   16      O       4.3767398710     2.2973412156    -0.9473914812
   17      O       2.6243041515     1.0132588460     0.5462558358
   18      C       4.2410768362     3.7021876397    -0.5061422064
   19      C       4.3072753448    -2.1033426688    -0.3597771743
   20      C       5.5118704346    -2.7019472028    -1.1910853699
   21      C       6.7456262587    -1.9876538914    -0.5221386508
   22      C       6.0034842018    -0.9592057166     0.4142415794
   23      O       4.8966018775    -1.7787591290     0.9658129799
   24      H       3.6568837122    -0.5876221412    -1.9384607490
   25      H       5.8730652188     0.1793600095    -1.4782092464
   26      H       3.4330345096    -2.7706603333    -0.2406672416
   27      H       5.5587964336    -3.7957801073    -1.0719397990
   28      H       5.4216402212    -2.4700273625    -2.2647621896
   29      H       7.3388832794    -2.6947234276     0.0799826868
   30      H       7.4097051959    -1.4979135006    -1.2521061140
   31      H       6.6066431547    -0.5082450481     1.2262701412
   32      O      -2.8731998213     1.0936603407     0.9430033525
   33      C      -4.1741403658     3.6654179507    -0.7138384064
   34      C      -6.3869443180    -0.6976693635     0.1072138380
   35      C      -6.7100216506    -2.0361688034    -0.6653936517
   36      C      -5.5001369768    -2.9414738621    -0.2239585697
   37      C      -4.7112346212    -1.9542849858     0.7233481537
   38      O      -5.7784135247    -1.1660494437     1.3753902131
   39      H      -5.2999494028     0.0280742926    -1.7243737303
   40      H      -3.4894481374    -1.3605168200    -1.0545087841
   41      H      -3.5743281420     3.7204255033     0.2177120827
   42      H      -7.2559021441    -0.0454505021     0.3198596191
   43      H      -7.6712757499    -2.4541799805    -0.3265758379
   44      H      -6.7545528442    -1.8865507460    -1.7560222328
   45      H      -5.8405462853    -3.8236016850     0.3412677150
   46      H      -4.8880911582    -3.2812780476    -1.0745397231
   47      H      -4.0615618423    -2.4394523890     1.4775890826
   48      H      -5.1463876983     4.1695780406    -0.5377520466
   49      H      -3.6352927220     4.1761447911    -1.5331420435
   50      H       3.7256080059     4.2340096863    -1.3270082190
   51      H       5.2285883704     4.1709084267    -0.3179509878
   52      H       3.6322822610     3.7726779183     0.4185052455
   53      H       1.1063999342     0.0332817351     1.8879364173
   54      H       0.4191346022    -1.6433231340     1.7588994908
   55      H      -0.5925805396     0.8744473350     0.4675254931
   56      H      -0.2614974563    -0.4253273964    -0.7472344878
 ----------------------------------------------------------------

    9   -1510.2633619121      2.98E-09 Convergence criterion met
 Total energy in the final basis set = -1510.26336191
 Final energy is   -1510.26336191206
 **  OPTIMIZATION CONVERGED  **

                    Orbital Energies (a.u.)
 --------------------------------------------------------------

 Alpha MOs
 -- Occupied --
-18.940 -18.924 -18.923 -18.921 -18.901 -18.889 -18.885 -18.884
-18.868 -18.862 -10.112 -10.105 -10.095 -10.091 -10.076 -10.074
-10.063 -10.059 -10.058 -10.058 -10.056 -10.055 -10.042 -10.042
-10.035 -10.035 -10.022 -10.022 -10.020 -10.020  -1.021  -1.017
 -1.002  -0.998  -0.971  -0.969  -0.947  -0.941  -0.928  -0.925
 -0.764  -0.763  -0.729  -0.723  -0.714  -0.705  -0.695  -0.656
 -0.655  -0.618  -0.598  -0.583  -0.547  -0.545  -0.539  -0.537
 -0.514  -0.510  -0.488  -0.478  -0.459  -0.457  -0.453  -0.450
 -0.433  -0.432  -0.424  -0.409  -0.407  -0.405  -0.402  -0.402
 -0.396  -0.389  -0.372  -0.368  -0.364  -0.358  -0.353  -0.347
 -0.341  -0.339  -0.336  -0.333  -0.332  -0.328  -0.324  -0.318
 -0.311  -0.309  -0.308  -0.303  -0.298  -0.279  -0.278  -0.277
 -0.273  -0.255  -0.251  -0.247  -0.246  -0.235  -0.234  -0.185
 -0.174  -0.172  -0.167  -0.164  -0.156  -0.147  -0.146  -0.144
 -0.142

          Ground-State Mulliken Net Atomic Charges

     Atom                 Charge (a.u.)
  ----------------------------------------
      1 O                    -0.213526
      2 C                     0.214617
      3 C                    -0.081811
      4 C                    -0.078393
      5 C                     0.219185
      6 O                    -0.186753
      7 C                    -0.051040
      8 C                    -0.051156
      9 O                    -0.171693
     10 C                     0.213203
     11 C                    -0.074410
     12 C                    -0.081132
     13 C                     0.214366
     14 O                    -0.215584
     15 O                    -0.176810
     16 O                    -0.171900
     17 O                    -0.210508
     18 C                    -0.127644
     19 C                     0.022125
     20 C                    -0.146193
     21 C                    -0.141264
     22 C                     0.021795
     23 O                    -0.192941
     24 H                     0.086954
     25 H                     0.083344
     26 H                     0.091765
     27 H                     0.078171
     28 H                     0.072736
     29 H                     0.078150
     30 H                     0.073321
     31 H                     0.090764
     32 O                    -0.191234
     33 C                    -0.128812
     34 C                     0.025791
     35 C                    -0.144430
     36 C                    -0.143467
     37 C                     0.026022
     38 O                    -0.186563
     39 H                     0.083781
     40 H                     0.085676
     41 H                     0.092535
     42 H                     0.088203
     43 H                     0.078472
     44 H                     0.073252
     45 H                     0.078715
     46 H                     0.073381
     47 H                     0.086038
     48 H                     0.086939
     49 H                     0.085795
     50 H                     0.086960
     51 H                     0.088113
     52 H                     0.091103
     53 H                     0.100612
     54 H                     0.097260
     55 H                     0.096066
     56 H                     0.082054
  ----------------------------------------
  Sum of atomic charges =    -0.000000

                    Cartesian Multipole Moments
 -----------------------------------------------------------------
    Charge (ESU x 10^10)
                 0.0000
    Dipole Moment (Debye)
         X       0.5630      Y      -1.7461      Z      -4.4785
       Tot       4.8397
    Quadrupole Moments (Debye-Ang)
        XX    -163.8913     XY       2.7220     YY    -153.4175
        XZ       1.9135     YZ      -1.7183     ZZ    -163.4356

 Total job time:  86.06s(wall), 4091.48s(cpu)
        *  Thank you very much for using Q-Chem.  Have a nice day.  *
