 Q-Chem 5.0, Q-Chem, Inc., Pleasanton, CA (2017)
 Q-Chem 5.0.1 for Intel X86 EM64T Linux

User input:
--------------------------------------------------------------
$molecule
0  1
O -5.6064204639 2.0503393944 0.8607492942
C -5.0874795154 1.5367002522 -0.1522006426
C -5.1864696449 0.0380298406 -0.6258293551
C -3.9703147668 -0.8761766035 -0.1851644461
C -2.844596645 -0.1045182525 0.5856190312
O -1.684013958 -0.9525103606 0.7385653874
C -0.462080565 -0.2199173181 0.3297547229
C 0.7511572435 -0.7515638037 1.1885170231
O 1.8646835015 -1.2113841928 0.3272948397
C 2.7559576181 -0.1236762007 0.0429636284
C 3.9345712294 -0.6471567696 -0.8705943319
C 5.292435871 0.090243182 -0.5402528455
C 5.1699237169 1.561362807 -0.0041121669
O 5.8338202844 2.0893518033 0.9136155969
O -4.3551046235 2.2634368166 -1.1506563723
O 4.376739871 2.2973412156 -0.9473914812
O 2.6243041515 1.013258846 0.5462558358
C 4.2410768362 3.7021876397 -0.5061422064
C 4.3072753448 -2.1033426688 -0.3597771743
C 5.5118704346 -2.7019472028 -1.1910853699
C 6.7456262587 -1.9876538914 -0.5221386508
C 6.0034842018 -0.9592057166 0.4142415794
O 4.8966018775 -1.778759129 0.9658129799
H 3.6568837122 -0.5876221412 -1.938460749
H 5.8730652188 0.1793600095 -1.4782092464
H 3.4330345096 -2.7706603333 -0.2406672416
H 5.5587964336 -3.7957801073 -1.071939799
H 5.4216402212 -2.4700273625 -2.2647621896
H 7.3388832794 -2.6947234276 0.0799826868
H 7.4097051959 -1.4979135006 -1.252106114
H 6.6066431547 -0.5082450481 1.2262701412
O -2.8731998213 1.0936603407 0.9430033525
C -4.1741403658 3.6654179507 -0.7138384064
C -6.386944318 -0.6976693635 0.107213838
C -6.7100216506 -2.0361688034 -0.6653936517
C -5.5001369768 -2.9414738621 -0.2239585697
C -4.7112346212 -1.9542849858 0.7233481537
O -5.7784135247 -1.1660494437 1.3753902131
H -5.2999494028 0.0280742926 -1.7243737303
H -3.4894481374 -1.36051682 -1.0545087841
H -3.574328142 3.7204255033 0.2177120827
H -7.2559021441 -0.0454505021 0.3198596191
H -7.6712757499 -2.4541799805 -0.3265758379
H -6.7545528442 -1.886550746 -1.7560222328
H -5.8405462853 -3.823601685 0.341267715
H -4.8880911582 -3.2812780476 -1.0745397231
H -4.0615618423 -2.439452389 1.4775890826
H -5.1463876983 4.1695780406 -0.5377520466
H -3.635292722 4.1761447911 -1.5331420435
H 3.7256080059 4.2340096863 -1.327008219
H 5.2285883704 4.1709084267 -0.3179509878
H 3.632282261 3.7726779183 0.4185052455
H 1.1063999342 0.0332817351 1.8879364173
H 0.4191346022 -1.643323134 1.7588994908
H -0.5925805396 0.874447335 0.4675254931
H -0.2614974563 -0.4253273964 -0.7472344878
$end

$rem
JOBTYPE                   OPT
METHOD                    B3LYP
DFT_D                     d3_op
BASIS                     STO-3G
GEOM_OPT_MAX_CYCLES       100
GEOM_OPT_TOL_GRADIENT     300
GEOM_OPT_TOL_DISPLACEMENT 1200
GEOM_OPT_TOL_ENERGY       100
SYMMETRY                  False
THRESH                    12
SCF_CONVERGENCE           8
MAX_SUB_FILE_NUM          128
MEM_STATIC                400
MEM_TOTAL                 4000
$end
--------------------------------------------------------------

   16   -1510.2633903573      4.52E-09 Convergence criterion met
 Total energy in the final basis set = -1510.26339036
   14   -1510.2690171522      1.99E-09 Convergence criterion met
 Total energy in the final basis set = -1510.26901715
   13   -1510.2737394278      9.38E-09 Convergence criterion met
 Total energy in the final basis set = -1510.27373943
   14   -1510.2775349750      1.39E-09 Convergence criterion met
 Total energy in the final basis set = -1510.27753497
   13   -1510.2800250904      6.54E-09 Convergence criterion met
 Total energy in the final basis set = -1510.28002509
   13   -1510.2818484616      7.15E-09 Convergence criterion met
 Total energy in the final basis set = -1510.28184846
   13   -1510.2830180682      7.94E-09 Convergence criterion met
 Total energy in the final basis set = -1510.28301807
   13   -1510.2838224520      6.26E-09 Convergence criterion met
   12   -1510.2928751702      4.25E-09 Convergence criterion met
 Total energy in the final basis set = -1510.29287517
   11   -1510.2928900860      9.39E-09 Convergence criterion met
 Total energy in the final basis set = -1510.29289009
   11   -1510.2929026151      4.64E-09 Convergence criterion met
 Total energy in the final basis set = -1510.29290262
   11   -1510.2929001059      3.17E-09 Convergence criterion met
 Total energy in the final basis set = -1510.29290011
   10   -1510.2928915340      9.18E-09 Convergence criterion met
 Total energy in the final basis set = -1510.29289153
   10   -1510.2928885037      8.89E-09 Convergence criterion met
 Total energy in the final basis set = -1510.29288850

             Standard Nuclear Orientation (Angstroms)
    I     Atom           X                Y                Z
 ----------------------------------------------------------------
    1      O      -2.7602857829     1.5543724031     1.9492886966
    2      C      -3.2129344891     1.6031449924     0.7863429643
    3      C      -4.3025446418     0.6608522073     0.1498526658
    4      C      -3.7594060834    -0.3854151586    -0.9055499754
    5      C      -2.2002303022    -0.3738726568    -1.0377967860
    6      O      -1.8271415940    -1.3420600236    -2.0153676111
    7      C      -0.3509929901    -1.4259679834    -2.1603028280
    8      C       0.3224110448    -2.1794045755    -0.9544280499
    9      O       1.7916799392    -2.1156570803    -1.1307701472
   10      C       2.3683905050    -1.2616061213    -0.1256487731
   11      C       3.8972991328    -1.1288149268    -0.4211105456
   12      C       4.3645105527     0.3757356406    -0.6163196712
   13      C       3.2061649722     1.4245874077    -0.4632571339
   14      O       3.1853446180     2.4148024586     0.2991704596
   15      O      -2.9176327976     2.6436752543    -0.1576166421
   16      O       2.1548036413     1.0734541523    -1.3702940889
   17      O       1.7251198895    -0.7657289313     0.8248656567
   18      C       0.9933014437     1.9819299500    -1.1951407422
   19      C       4.7715590856    -1.5433840462     0.8417285936
   20      C       6.2639250194    -1.7483836043     0.3642879362
   21      C       6.7276999126    -0.2571419863     0.1672361241
   22      C       5.4143173083     0.5248374135     0.5602880855
   23      O       4.8282864114    -0.3010223137     1.6425618789
   24      H       4.1333132787    -1.7444651468    -1.3063748438
   25      H       4.8325348706     0.5121226345    -1.6086558481
   26      H       4.3471681401    -2.3724236590     1.4404350823
   27      H       6.8509328563    -2.2542736275     1.1472040473
   28      H       6.3254302152    -2.3410159481    -0.5625197699
   29      H       7.5496865230     0.0032120848     0.8528584043
   30      H       7.0479284848    -0.0421849333    -0.8648683950
   31      H       5.5524289467     1.5684169085     0.9038323347
   32      O      -1.3965639629     0.3379064433    -0.3900316508
   33      C      -1.9080926505     3.5604624144     0.4178227888
   34      C      -4.9348421684    -0.3080411346     1.2364978678
   35      C      -6.3129338574    -0.8406157081     0.6812572056
   36      C      -5.8218877272    -1.8486827608    -0.4230920468
   37      C      -4.2541361995    -1.7502339005    -0.2545479286
   38      O      -4.0646771104    -1.5080042963     1.1921522524
   39      H      -5.0714504424     1.3026531384    -0.3161617453
   40      H      -4.1991233294    -0.2330304611    -1.9078859947
   41      H      -1.0218025190     3.0076893839     0.7881774698
   42      H      -4.9534586044     0.1136000447     2.2600946150
   43      H      -6.8749779170    -1.3563104256     1.4760983035
   44      H      -6.9386906737    -0.0312024604     0.2726365427
   45      H      -6.1665486502    -2.8747655912    -0.2182479891
   46      H      -6.1472095246    -1.5630310323    -1.4363672514
   47      H      -3.6843678537    -2.6406355090    -0.5846204786
   48      H      -2.3288429402     4.1519514752     1.2570549959
   49      H      -1.6088445049     4.2430008838    -0.3987158714
   50      H       0.7674424642     2.4546980099    -2.1705931668
   51      H       1.2505180347     2.7583637116    -0.4485032438
   52      H       0.1187330749     1.3829922356    -0.8508687174
   53      H       0.0612181611    -1.6798447528     0.0045862362
   54      H       0.0125752137    -3.2440297528    -0.9346316986
   55      H       0.1019041204    -0.4166573861    -2.2513118673
   56      H      -0.1831681959    -1.9825298043    -3.1038947877
 ----------------------------------------------------------------

    9   -1510.2928916459      2.47E-09 Convergence criterion met
 Total energy in the final basis set = -1510.29289165
 Final energy is   -1510.29289164588
 **  OPTIMIZATION CONVERGED  **

                    Orbital Energies (a.u.)
 --------------------------------------------------------------

 Alpha MOs
 -- Occupied --
-18.951 -18.930 -18.926 -18.919 -18.898 -18.888 -18.885 -18.875
-18.874 -18.861 -10.117 -10.098 -10.096 -10.090 -10.078 -10.066
-10.064 -10.059 -10.057 -10.056 -10.053 -10.044 -10.038 -10.037
-10.036 -10.034 -10.022 -10.020 -10.019 -10.018  -1.028  -1.011
 -1.003  -0.998  -0.972  -0.968  -0.953  -0.935  -0.931  -0.924
 -0.765  -0.762  -0.729  -0.722  -0.714  -0.705  -0.696  -0.655
 -0.651  -0.621  -0.597  -0.581  -0.547  -0.543  -0.538  -0.536
 -0.513  -0.507  -0.485  -0.474  -0.462  -0.456  -0.456  -0.450
 -0.436  -0.431  -0.428  -0.412  -0.410  -0.407  -0.400  -0.397
 -0.393  -0.381  -0.377  -0.365  -0.361  -0.356  -0.355  -0.346
 -0.342  -0.338  -0.333  -0.332  -0.328  -0.326  -0.324  -0.317
 -0.310  -0.308  -0.304  -0.302  -0.292  -0.286  -0.277  -0.275
 -0.269  -0.262  -0.246  -0.244  -0.242  -0.236  -0.232  -0.197
 -0.174  -0.169  -0.164  -0.162  -0.158  -0.151  -0.146  -0.142
 -0.141

          Ground-State Mulliken Net Atomic Charges

     Atom                 Charge (a.u.)
  ----------------------------------------
      1 O                    -0.213654
      2 C                     0.215163
      3 C                    -0.081671
      4 C                    -0.077324
      5 C                     0.221406
      6 O                    -0.168750
      7 C                    -0.051053
      8 C                    -0.060297
      9 O                    -0.173959
     10 C                     0.213382
     11 C                    -0.078727
     12 C                    -0.077978
     13 C                     0.214767
     14 O                    -0.209345
     15 O                    -0.177234
     16 O                    -0.179363
     17 O                    -0.207785
     18 C                    -0.153453
     19 C                     0.025982
     20 C                    -0.143787
     21 C                    -0.144205
     22 C                     0.024582
     23 O                    -0.185379
     24 H                     0.086118
     25 H                     0.084296
     26 H                     0.083758
     27 H                     0.078236
     28 H                     0.073109
     29 H                     0.078394
     30 H                     0.072685
     31 H                     0.091335
     32 O                    -0.204125
     33 C                    -0.129384
     34 C                     0.024938
     35 C                    -0.143781
     36 C                    -0.143903
     37 C                     0.025052
     38 O                    -0.188745
     39 H                     0.083891
     40 H                     0.088050
     41 H                     0.096287
     42 H                     0.090812
     43 H                     0.078652
     44 H                     0.073559
     45 H                     0.078560
     46 H                     0.073529
     47 H                     0.084894
     48 H                     0.084490
     49 H                     0.085377
     50 H                     0.075709
     51 H                     0.097190
     52 H                     0.107387
     53 H                     0.108768
     54 H                     0.084440
     55 H                     0.097285
     56 H                     0.091819
  ----------------------------------------
  Sum of atomic charges =     0.000000

                    Cartesian Multipole Moments
 -----------------------------------------------------------------
    Charge (ESU x 10^10)
                 0.0000
    Dipole Moment (Debye)
         X      -0.8653      Y      -1.3079      Z      -4.3474
       Tot       4.6216
    Quadrupole Moments (Debye-Ang)
        XX    -135.0018     XY      -4.7639     YY    -155.1309
        XZ      -2.4005     YZ      -0.9041     ZZ    -166.0784

 Total job time:  124.63s(wall), 5940.34s(cpu)
        *  Thank you very much for using Q-Chem.  Have a nice day.  *
