 Q-Chem 5.0, Q-Chem, Inc., Pleasanton, CA (2017)
 Q-Chem 5.0.1 for Intel X86 EM64T Linux

User input:
--------------------------------------------------------------
$molecule
0  1
O 3.3768649175 -1.0267865742 3.0687031847
C 3.0384956196 -1.0013177216 1.865237417
C 3.9336958813 -0.4838937136 0.6811646767
C 3.3163986091 -0.4336437083 -0.7800480864
C 1.7499353314 -0.642053485 -0.8300197798
O 1.5951826859 -1.9454944019 -1.398187158
C 0.386082911 -2.79993089 -1.4447216787
C -1.1012398303 -2.5365270373 -2.0021655469
O -2.1893229375 -2.141112742 -1.0865302424
C -2.0252232412 -0.854142484 -0.4929198802
C -3.2412789927 -0.5548133489 0.4529252128
C -3.2483800021 0.9606211548 0.9192160755
C -1.8473140895 1.6653544705 0.7493832583
O -0.8997879484 1.5556006815 1.5596080369
O 1.8133913567 -1.5546542127 1.3797515915
O -1.8494644179 2.5505282334 -0.3739346847
O -1.2486166157 0.0039639631 -0.9606519367
C -0.4667654007 3.0413173148 -0.5931516185
C -4.5580663185 -0.582459535 -0.438151964
C -5.8250035509 -0.4040283636 0.4899316299
C -5.7895467843 1.1446173024 0.7681826002
C -4.4413354367 1.5438459919 0.0505513705
O -4.4601145281 0.7016705472 -1.1702871716
H -3.2816358957 -1.2664542044 1.2969802817
H -3.4943899816 1.0113109535 1.9951429644
H -4.603339688 -1.4341560139 -1.1442960071
H -6.7407459631 -0.7015370043 -0.0450277673
H -5.7460180437 -1.0027284167 1.4116897959
H -6.6420617005 1.6565706663 0.2933533883
H -5.7840132615 1.3879836085 1.8426477491
H -4.3358550025 2.612214126 -0.2176693298
O 0.9150122545 0.2148343276 -0.4921698713
C 0.9130536689 -1.9088238434 2.499327294
C 4.3722610999 1.0356861642 0.8818805068
C 5.7206039248 1.2552755051 0.0916603631
C 5.2034767747 1.2213669685 -1.3941693379
C 3.6461218271 1.0689726817 -1.1752172978
O 3.3868067969 1.8005205476 0.0866818545
H 4.8335537934 -1.1270660427 0.6792264101
H 3.7996112701 -1.1701639705 -1.4446184695
H 0.6063083913 -1.0059679786 3.0658796057
H 4.3756445322 1.3727212032 1.9368572189
H 6.1542247276 2.2359694744 0.3444472952
H 6.4654549286 0.472597252 0.3058097979
H 5.43080321 2.1590162983 -1.9255391951
H 5.6209538733 0.3795670025 -1.9695634008
H 3.0127111049 1.4722942906 -1.9887735251
H 1.3910200899 -2.6275173257 3.1958815617
H 0.0217288884 -2.3711142761 2.0364074467
H -0.4820713914 3.5707938312 -1.5633941619
H 0.2474602201 2.1891929201 -0.624365167
H -0.1544816954 3.7449629522 0.2059158392
H -1.0506645759 -1.8261846598 -2.8597498799
H -1.4353225037 -3.521041448 -2.3875978823
H 0.2462778293 -3.2153579705 -0.4179151622
H 0.7540634781 -3.6363015775 -2.0761822865
$end

$rem
JOBTYPE                   OPT
METHOD                    B3LYP
DFT_D                     d3_op
BASIS                     STO-3G
GEOM_OPT_MAX_CYCLES       100
GEOM_OPT_TOL_GRADIENT     300
GEOM_OPT_TOL_DISPLACEMENT 1200
GEOM_OPT_TOL_ENERGY       100
SYMMETRY                  False
THRESH                    12
SCF_CONVERGENCE           8
MAX_SUB_FILE_NUM          128
MEM_STATIC                400
MEM_TOTAL                 4000
$end
--------------------------------------------------------------

   16   -1510.2436185067      5.10E-09 Convergence criterion met
 Total energy in the final basis set = -1510.24361851
   14   -1510.2461047454      7.04E-09 Convergence criterion met
 Total energy in the final basis set = -1510.24610475
   14   -1510.2542254128      8.94E-09 Convergence criterion met
 Total energy in the final basis set = -1510.25422541
   14   -1510.2617963011      6.20E-09 Convergence criterion met
 Total energy in the final basis set = -1510.26179630
   15   -1510.2699740020      3.58E-09 Convergence criterion met
 Total energy in the final basis set = -1510.26997400
   15   -1510.2769768851      3.31E-09 Convergence criterion met
 Total energy in the final basis set = -1510.27697689
   15   -1510.2804211232      2.19E-09 Convergence criterion met
 Total energy in the final basis set = -1510.28042112
   15   -1510.2739969765      2.12E-09 Convergence criterion met
   12   -1510.3055965091      3.29E-09 Convergence criterion met
 Total energy in the final basis set = -1510.30559651
   11   -1510.3056049051      5.42E-09 Convergence criterion met
 Total energy in the final basis set = -1510.30560491
   11   -1510.3056162748      8.09E-09 Convergence criterion met
 Total energy in the final basis set = -1510.30561627
   11   -1510.3056196791      5.07E-09 Convergence criterion met
 Total energy in the final basis set = -1510.30561968
   11   -1510.3056258607      6.64E-09 Convergence criterion met
 Total energy in the final basis set = -1510.30562586
   10   -1510.3056245905      7.25E-09 Convergence criterion met
 Total energy in the final basis set = -1510.30562459

             Standard Nuclear Orientation (Angstroms)
    I     Atom           X                Y                Z
 ----------------------------------------------------------------
    1      O      -0.2443404060     1.0223496193     2.1644743113
    2      C      -1.4776378725     1.2496497768     2.1152108813
    3      C      -2.5797588209     0.3897065842     1.3904358771
    4      C      -2.4402810696     0.4386613973    -0.1878071612
    5      C      -1.6206076271     1.6946463559    -0.6394546499
    6      O      -1.4269412054     1.6958235045    -2.0560172122
    7      C      -0.8308278624     2.9899307517    -2.4842755821
    8      C       0.7454442095     2.9395624527    -2.4510759716
    9      O       1.1768879087     2.3258515402    -1.1748533077
   10      C       1.4813401650     0.9411593704    -1.3974445995
   11      C       1.5830509633     0.1980474159    -0.0376943919
   12      C       1.4960891500    -1.3744429314    -0.2110706193
   13      C       1.2750447196    -1.8274982309    -1.6972797845
   14      O       0.1698932738    -1.8937601332    -2.2979058652
   15      O      -2.1241059502     2.2881717056     2.8544582285
   16      O       2.4984256176    -2.2832316691    -2.2711512284
   17      O       1.6262978993     0.4437717450    -2.5396565113
   18      C       2.2809997631    -2.6582052770    -3.6865399295
   19      C       3.0130376160     0.3461208463     0.6407324527
   20      C       2.8573550316    -0.1062857223     2.1462181215
   21      C       2.7756478903    -1.6689054280     1.9818884775
   22      C       2.8803252577    -1.8213861670     0.4118815921
   23      O       3.8110055254    -0.7347855179     0.0212380696
   24      H       0.7907319079     0.5607987409     0.6572101386
   25      H       0.6196052490    -1.7292474218     0.3706755037
   26      H       3.4985607778     1.3295703920     0.4880686660
   27      H       3.7354501553     0.1960144877     2.7385934006
   28      H       1.9462982676     0.3189671662     2.5986163314
   29      H       3.6218751441    -2.1732159133     2.4755977610
   30      H       1.8347918746    -2.0866467692     2.3741347458
   31      H       3.2573790137    -2.7983856342     0.0538246291
   32      O      -1.2818042837     2.6375405504     0.1151631625
   33      C      -1.1067219865     3.1498635095     3.4990505074
   34      C      -2.3143657297    -1.1476826159     1.6562661100
   35      C      -3.4976414929    -2.0006440702     1.0469381848
   36      C      -3.1317363210    -1.9861704154    -0.4855184377
   37      C      -1.8793647016    -1.0250948534    -0.4988830191
   38      O      -1.1820452165    -1.4177441646     0.7477928022
   39      H      -3.5742282257     0.7272820584     1.7304938327
   40      H      -3.4382326939     0.5462284388    -0.6532369658
   41      H      -0.4761948889     3.6555380811     2.7393535832
   42      H      -2.0427645856    -1.3920706729     2.7015844816
   43      H      -3.4911692200    -3.0220071552     1.4592079979
   44      H      -4.4790184769    -1.5438502020     1.2529515513
   45      H      -2.8390635289    -2.9892415599    -0.8352897744
   46      H      -3.9547441449    -1.6185236037    -1.1186478286
   47      H      -1.1696223233    -1.1695238876    -1.3600466280
   48      H      -0.4484224152     2.5693996215     4.1772604785
   49      H      -1.6677396340     3.9045511881     4.0800326869
   50      H       3.2607317512    -3.0044438953    -4.0637709247
   51      H       1.9374247686    -1.7872390122    -4.2808520579
   52      H       1.5335471525    -3.4719957655    -3.7846158577
   53      H       1.1318904422     2.3239073519    -3.2914145607
   54      H       1.1571990501     3.9678008849    -2.4991419601
   55      H      -1.1911286297     3.8026621750    -1.8196856042
   56      H      -1.1818079092     3.1619058810    -3.5220050687
 ----------------------------------------------------------------

    9   -1510.3056247471      5.42E-09 Convergence criterion met
 Total energy in the final basis set = -1510.30562475
 Final energy is   -1510.30562474706
 **  OPTIMIZATION CONVERGED  **

                    Orbital Energies (a.u.)
 --------------------------------------------------------------

 Alpha MOs
 -- Occupied --
-18.945 -18.932 -18.931 -18.924 -18.888 -18.886 -18.876 -18.869
-18.867 -18.856 -10.107 -10.100 -10.094 -10.088 -10.076 -10.069
-10.061 -10.060 -10.052 -10.043 -10.041 -10.039 -10.037 -10.036
-10.018 -10.012 -10.010 -10.006 -10.002  -9.999  -1.024  -1.009
 -1.005  -0.996  -0.970  -0.952  -0.945  -0.934  -0.930  -0.920
 -0.762  -0.745  -0.722  -0.715  -0.702  -0.697  -0.686  -0.660
 -0.647  -0.616  -0.591  -0.569  -0.544  -0.535  -0.530  -0.520
 -0.508  -0.500  -0.486  -0.474  -0.458  -0.453  -0.448  -0.433
 -0.430  -0.422  -0.414  -0.413  -0.408  -0.405  -0.399  -0.398
 -0.392  -0.379  -0.367  -0.365  -0.359  -0.355  -0.351  -0.347
 -0.343  -0.340  -0.327  -0.322  -0.318  -0.315  -0.312  -0.308
 -0.300  -0.297  -0.294  -0.288  -0.285  -0.278  -0.273  -0.265
 -0.264  -0.255  -0.249  -0.245  -0.235  -0.228  -0.212  -0.195
 -0.174  -0.168  -0.163  -0.159  -0.154  -0.148  -0.143  -0.137
 -0.126

          Ground-State Mulliken Net Atomic Charges

     Atom                 Charge (a.u.)
  ----------------------------------------
      1 O                    -0.226516
      2 C                     0.222381
      3 C                    -0.080088
      4 C                    -0.081632
      5 C                     0.212134
      6 O                    -0.165908
      7 C                    -0.051617
      8 C                    -0.055879
      9 O                    -0.170947
     10 C                     0.209485
     11 C                    -0.093662
     12 C                    -0.096053
     13 C                     0.220875
     14 O                    -0.230417
     15 O                    -0.167567
     16 O                    -0.163640
     17 O                    -0.212596
     18 C                    -0.126207
     19 C                     0.025404
     20 C                    -0.146740
     21 C                    -0.143514
     22 C                     0.024109
     23 O                    -0.192850
     24 H                     0.112712
     25 H                     0.110825
     26 H                     0.078866
     27 H                     0.070978
     28 H                     0.087242
     29 H                     0.072069
     30 H                     0.073895
     31 H                     0.083475
     32 O                    -0.207424
     33 C                    -0.127803
     34 C                     0.027085
     35 C                    -0.145502
     36 C                    -0.142911
     37 C                     0.006197
     38 O                    -0.196793
     39 H                     0.085789
     40 H                     0.085826
     41 H                     0.094410
     42 H                     0.081576
     43 H                     0.076806
     44 H                     0.072374
     45 H                     0.078233
     46 H                     0.071642
     47 H                     0.120361
     48 H                     0.087902
     49 H                     0.088731
     50 H                     0.088332
     51 H                     0.093558
     52 H                     0.085923
     53 H                     0.102179
     54 H                     0.088627
     55 H                     0.095189
     56 H                     0.091079
  ----------------------------------------
  Sum of atomic charges =    -0.000000

                    Cartesian Multipole Moments
 -----------------------------------------------------------------
    Charge (ESU x 10^10)
                -0.0000
    Dipole Moment (Debye)
         X      -2.6921      Y       1.1765      Z       0.3580
       Tot       2.9597
    Quadrupole Moments (Debye-Ang)
        XX    -160.9102     XY       1.0565     YY    -149.4048
        XZ      -0.3863     YZ      -3.9147     ZZ    -150.9268

 Total job time:  220.57s(wall), 10531.27s(cpu)
        *  Thank you very much for using Q-Chem.  Have a nice day.  *
