 Q-Chem 5.0, Q-Chem, Inc., Pleasanton, CA (2017)
 Q-Chem 5.0.1 for Intel X86 EM64T Linux

User input:
--------------------------------------------------------------
$molecule
0  1
O -3.94934 -3.66094 2.70899
C -3.26408 -4.56952 2.26188
C -3.36658 -6.02376 2.66595
C -2.34859 -6.99755 2.0501
C -1.23148 -6.38084 1.23781
O -1.42268 -6.64368 -0.08876
C -0.59664 -5.84787 -0.94527
C 0.87011 -6.0102 -0.56003
O 1.27884 -4.91985 0.28078
C 0.6894 -4.8719 1.50119
C 1.15997 -3.70502 2.33643
C 0.7271 -3.7469 3.80923
C 0.21274 -5.08192 4.30908
O -0.91901 -5.513 4.14213
O -2.82598 -4.3099 0.99987
O 1.06303 -5.84529 5.0525
O -0.38685 -4.37522 1.22255
C 0.77031 -7.10081 5.54219
C 2.70235 -3.65711 2.51418
C 3.14108 -2.21784 2.80067
C 2.57064 -2.02489 4.18934
C 2.08824 -3.45173 4.47983
O 2.95773 -4.27614 3.74664
H 0.92046 -2.72092 1.84407
H -0.03092 -2.97961 4.07939
H 3.27019 -4.05407 1.64515
H 4.25256 -2.23108 2.87028
H 2.83867 -1.44805 2.05778
H 3.39728 -1.72237 4.86953
H 1.72828 -1.30271 4.26346
H 2.06147 -3.62516 5.57854
O -0.26234 -6.98566 1.70369
C -2.79942 -3.04236 0.43285
C -3.55228 -6.62291 4.08871
C -4.47559 -7.84467 4.01592
C -3.55325 -8.85625 3.33335
C -2.25071 -8.03689 3.22076
O -2.34099 -7.27587 4.39383
H -4.34965 -6.21194 2.17299
H -2.91384 -7.56275 1.26967
H -2.16037 -2.3674 1.04592
H -3.91604 -5.87771 4.82775
H -4.6583 -8.18463 5.06098
H -5.45496 -7.67713 3.51884
H -3.40076 -9.70904 4.03227
H -3.91483 -9.24743 2.35851
H -1.37622 -8.7155 3.1289
H -3.82397 -2.61963 0.36932
H -2.37604 -3.09211 -0.58892
H 1.64527 -7.48304 6.10669
H 0.55831 -7.79615 4.70211
H -0.10467 -7.05374 6.22451
H 1.16222 -7.01915 -0.19732
H 1.45173 -5.86096 -1.49484
H -0.92044 -4.79494 -1.06076
H -0.72621 -6.30146 -1.95118
$end

$opt
CONSTRAINT
tors           1           2           3           4    -176.121
tors           3           4           5           6    -108.475
tors           4           5           6           7    +166.402
tors           5           6           7           8     +54.998
tors           6           7           8           9     -97.719
tors           7           8           9          10     +66.316
tors           8           9          10          11    -180.000
tors           9          10          11          12    -169.209
tors          11          12          13          14     -81.119
ENDCONSTRAINT
$end

$rem
JOBTYPE                   OPT
METHOD                    B3LYP
DFT_D                     d3_op
BASIS                     STO-3G
GEOM_OPT_MAX_CYCLES       100
GEOM_OPT_TOL_GRADIENT     300
GEOM_OPT_TOL_DISPLACEMENT 1200
GEOM_OPT_TOL_ENERGY       100
SYMMETRY                  False
THRESH                    12
SCF_CONVERGENCE           8
MAX_SUB_FILE_NUM          128
MEM_STATIC                400
MEM_TOTAL                 4000
$end
--------------------------------------------------------------

   19   -1509.8412065575      9.84E-09 Convergence criterion met
 Total energy in the final basis set = -1509.84120656
   16   -1509.9352332635      4.39E-09 Convergence criterion met
 Total energy in the final basis set = -1509.93523326
   15   -1510.0246214954      5.33E-09 Convergence criterion met
 Total energy in the final basis set = -1510.02462150
   15   -1510.0834700167      4.70E-09 Convergence criterion met
 Total energy in the final basis set = -1510.08347002
   15   -1510.1225593508      3.31E-09 Convergence criterion met
 Total energy in the final basis set = -1510.12255935
   14   -1510.1489190299      6.18E-09 Convergence criterion met
 Total energy in the final basis set = -1510.14891903
   14   -1510.1691924171      5.21E-09 Convergence criterion met
 Total energy in the final basis set = -1510.16919242
   14   -1510.1864678673      4.15E-09 Convergence criterion met
   11   -1510.2436186991      3.37E-09 Convergence criterion met
 Total energy in the final basis set = -1510.24361870
   10   -1510.2436325651      7.82E-09 Convergence criterion met
 Total energy in the final basis set = -1510.24363257
   10   -1510.2436375282      6.97E-09 Convergence criterion met
 Total energy in the final basis set = -1510.24363753
   10   -1510.2436423061      5.13E-09 Convergence criterion met
 Total energy in the final basis set = -1510.24364231
   10   -1510.2436447465      6.35E-09 Convergence criterion met
 Total energy in the final basis set = -1510.24364475
   10   -1510.2436462684      3.19E-09 Convergence criterion met
 Total energy in the final basis set = -1510.24364627

             Standard Nuclear Orientation (Angstroms)
    I     Atom           X                Y                Z
 ----------------------------------------------------------------
    1      O       3.3768649175    -1.0267865742     3.0687031847
    2      C       3.0384956196    -1.0013177216     1.8652374170
    3      C       3.9336958813    -0.4838937136     0.6811646767
    4      C       3.3163986091    -0.4336437083    -0.7800480864
    5      C       1.7499353314    -0.6420534850    -0.8300197798
    6      O       1.5951826859    -1.9454944019    -1.3981871580
    7      C       0.3860829110    -2.7999308900    -1.4447216787
    8      C      -1.1012398303    -2.5365270373    -2.0021655469
    9      O      -2.1893229375    -2.1411127420    -1.0865302424
   10      C      -2.0252232412    -0.8541424840    -0.4929198802
   11      C      -3.2412789927    -0.5548133489     0.4529252128
   12      C      -3.2483800021     0.9606211548     0.9192160755
   13      C      -1.8473140895     1.6653544705     0.7493832583
   14      O      -0.8997879484     1.5556006815     1.5596080369
   15      O       1.8133913567    -1.5546542127     1.3797515915
   16      O      -1.8494644179     2.5505282334    -0.3739346847
   17      O      -1.2486166157     0.0039639631    -0.9606519367
   18      C      -0.4667654007     3.0413173148    -0.5931516185
   19      C      -4.5580663185    -0.5824595350    -0.4381519640
   20      C      -5.8250035509    -0.4040283636     0.4899316299
   21      C      -5.7895467843     1.1446173024     0.7681826002
   22      C      -4.4413354367     1.5438459919     0.0505513705
   23      O      -4.4601145281     0.7016705472    -1.1702871716
   24      H      -3.2816358957    -1.2664542044     1.2969802817
   25      H      -3.4943899816     1.0113109535     1.9951429644
   26      H      -4.6033396880    -1.4341560139    -1.1442960071
   27      H      -6.7407459631    -0.7015370043    -0.0450277673
   28      H      -5.7460180437    -1.0027284167     1.4116897959
   29      H      -6.6420617005     1.6565706663     0.2933533883
   30      H      -5.7840132615     1.3879836085     1.8426477491
   31      H      -4.3358550025     2.6122141260    -0.2176693298
   32      O       0.9150122545     0.2148343276    -0.4921698713
   33      C       0.9130536689    -1.9088238434     2.4993272940
   34      C       4.3722610999     1.0356861642     0.8818805068
   35      C       5.7206039248     1.2552755051     0.0916603631
   36      C       5.2034767747     1.2213669685    -1.3941693379
   37      C       3.6461218271     1.0689726817    -1.1752172978
   38      O       3.3868067969     1.8005205476     0.0866818545
   39      H       4.8335537934    -1.1270660427     0.6792264101
   40      H       3.7996112701    -1.1701639705    -1.4446184695
   41      H       0.6063083913    -1.0059679786     3.0658796057
   42      H       4.3756445322     1.3727212032     1.9368572189
   43      H       6.1542247276     2.2359694744     0.3444472952
   44      H       6.4654549286     0.4725972520     0.3058097979
   45      H       5.4308032100     2.1590162983    -1.9255391951
   46      H       5.6209538733     0.3795670025    -1.9695634008
   47      H       3.0127111049     1.4722942906    -1.9887735251
   48      H       1.3910200899    -2.6275173257     3.1958815617
   49      H       0.0217288884    -2.3711142761     2.0364074467
   50      H      -0.4820713914     3.5707938312    -1.5633941619
   51      H       0.2474602201     2.1891929201    -0.6243651670
   52      H      -0.1544816954     3.7449629522     0.2059158392
   53      H      -1.0506645759    -1.8261846598    -2.8597498799
   54      H      -1.4353225037    -3.5210414480    -2.3875978823
   55      H       0.2462778293    -3.2153579705    -0.4179151622
   56      H       0.7540634781    -3.6363015775    -2.0761822865
 ----------------------------------------------------------------

   10   -1510.2436472569      4.80E-09 Convergence criterion met
 Total energy in the final basis set = -1510.24364726
 Final energy is   -1510.24364725688
 **  OPTIMIZATION CONVERGED  **

                    Orbital Energies (a.u.)
 --------------------------------------------------------------

 Alpha MOs
 -- Occupied --
-18.940 -18.931 -18.923 -18.903 -18.885 -18.884 -18.879 -18.875
-18.874 -18.839 -10.103 -10.101 -10.093 -10.079 -10.076 -10.075
-10.066 -10.057 -10.056 -10.054 -10.050 -10.037 -10.033 -10.031
-10.028 -10.022 -10.018 -10.017 -10.016 -10.013  -1.015  -1.013
 -0.994  -0.981  -0.967  -0.962  -0.942  -0.937  -0.931  -0.906
 -0.760  -0.755  -0.726  -0.718  -0.710  -0.700  -0.694  -0.663
 -0.634  -0.624  -0.594  -0.578  -0.542  -0.538  -0.534  -0.529
 -0.511  -0.500  -0.483  -0.473  -0.459  -0.451  -0.445  -0.438
 -0.429  -0.428  -0.425  -0.413  -0.410  -0.400  -0.394  -0.391
 -0.384  -0.379  -0.370  -0.356  -0.354  -0.351  -0.350  -0.345
 -0.335  -0.332  -0.327  -0.324  -0.322  -0.319  -0.313  -0.311
 -0.306  -0.304  -0.298  -0.297  -0.292  -0.290  -0.273  -0.270
 -0.260  -0.253  -0.243  -0.232  -0.230  -0.229  -0.223  -0.183
 -0.175  -0.165  -0.155  -0.152  -0.146  -0.141  -0.139  -0.131
 -0.122

          Ground-State Mulliken Net Atomic Charges

     Atom                 Charge (a.u.)
  ----------------------------------------
      1 O                    -0.213572
      2 C                     0.212953
      3 C                    -0.079565
      4 C                    -0.078323
      5 C                     0.231652
      6 O                    -0.179085
      7 C                    -0.049603
      8 C                    -0.047898
      9 O                    -0.180540
     10 C                     0.205413
     11 C                    -0.076004
     12 C                    -0.081957
     13 C                     0.215043
     14 O                    -0.226069
     15 O                    -0.168369
     16 O                    -0.172782
     17 O                    -0.180858
     18 C                    -0.134283
     19 C                     0.023734
     20 C                    -0.144990
     21 C                    -0.143036
     22 C                     0.024202
     23 O                    -0.190524
     24 H                     0.081041
     25 H                     0.079268
     26 H                     0.085410
     27 H                     0.076752
     28 H                     0.072233
     29 H                     0.076444
     30 H                     0.072566
     31 H                     0.090612
     32 O                    -0.192261
     33 C                    -0.125618
     34 C                     0.025827
     35 C                    -0.142996
     36 C                    -0.145150
     37 C                     0.025272
     38 O                    -0.185389
     39 H                     0.084399
     40 H                     0.084271
     41 H                     0.099269
     42 H                     0.088041
     43 H                     0.078191
     44 H                     0.073223
     45 H                     0.077686
     46 H                     0.072770
     47 H                     0.083580
     48 H                     0.091093
     49 H                     0.088316
     50 H                     0.079015
     51 H                     0.112489
     52 H                     0.078756
     53 H                     0.089446
     54 H                     0.091366
     55 H                     0.079924
     56 H                     0.088615
  ----------------------------------------
  Sum of atomic charges =     0.000000

                    Cartesian Multipole Moments
 -----------------------------------------------------------------
    Charge (ESU x 10^10)
                -0.0000
    Dipole Moment (Debye)
         X       0.3153      Y      -3.2019      Z      -0.8017
       Tot       3.3158
    Quadrupole Moments (Debye-Ang)
        XX    -145.1439     XY       2.9246     YY    -153.2292
        XZ     -13.0543     YZ       1.6193     ZZ    -160.9410

 Total job time:  106.87s(wall), 5097.76s(cpu)
        *  Thank you very much for using Q-Chem.  Have a nice day.  *
