 Q-Chem 5.0, Q-Chem, Inc., Pleasanton, CA (2017)
 Q-Chem 5.0.1 for Intel X86 EM64T Linux

User input:
--------------------------------------------------------------
$molecule
0  1
O -3.94934 -3.66094 2.70899
C -3.26408 -4.56952 2.26188
C -3.36658 -6.02376 2.66595
C -2.18719 -6.61935 3.45219
C -1.117 -5.649 3.90072
O -0.01643 -6.33646 4.32684
C 0.56031 -7.16237 3.30973
C 1.64201 -6.39305 2.55861
O 1.99959 -5.21045 3.29105
C 0.95945 -4.45188 3.71748
C 1.36995 -3.40219 4.72262
C 0.25706 -2.42542 5.12964
C -1.15382 -2.84263 4.76625
O -1.98567 -3.28353 5.54614
O -2.36849 -4.31361 1.27108
O -1.63254 -2.11791 3.72479
O 0.31281 -3.97555 2.78145
C -2.71293 -1.26124 3.84202
C 1.79284 -3.9687 6.0876
C 2.71554 -2.9721 6.78623
C 1.73357 -1.8683 7.12557
C 0.42108 -2.51416 6.66324
O 0.62789 -3.89171 6.87097
H 2.21824 -2.8438 4.26238
H 0.43236 -1.39045 4.7571
H 2.27571 -4.96801 6.02105
H 3.05364 -3.45126 7.73301
H 3.60433 -2.65167 6.20113
H 1.73604 -1.72536 8.229
H 1.91256 -0.89768 6.61426
H -0.43851 -2.06187 7.20555
O -1.57361 -5.25692 4.89729
C -2.23275 -3.11537 0.60313
C -4.52812 -6.34087 3.64342
C -4.97092 -7.79179 3.4586
C -3.78916 -8.52648 4.05754
C -2.96928 -7.34393 4.58939
O -3.9427 -6.38367 4.92261
H -3.58525 -6.56295 1.71369
H -1.81897 -7.34912 2.73186
H -1.92043 -2.31072 1.29072
H -5.40223 -5.66379 3.52777
H -5.85454 -7.94494 4.11943
H -5.23908 -8.08883 2.42194
H -4.15804 -9.16086 4.89384
H -3.20023 -9.14271 3.34462
H -2.2964 -7.67519 5.41055
H -3.19011 -2.84151 0.11116
H -1.45026 -3.22436 -0.17538
H -2.93927 -0.81094 2.85434
H -2.46336 -0.44327 4.55079
H -3.61257 -1.78816 4.22015
H 2.52659 -7.01433 2.30076
H 1.18748 -6.06055 1.59933
H 0.03294 -7.93816 2.73291
H 1.17979 -7.84203 3.93298
$end

$opt
CONSTRAINT
tors           1           2           3           4    -111.538
tors           3           4           5           6    -167.271
tors           4           5           6           7     +60.226
tors           5           6           7           8     +91.885
tors           6           7           8           9     +14.483
tors           7           8           9          10     -48.433
tors           8           9          10          11    +167.529
tors           9          10          11          12    +174.086
tors          11          12          13          14    +104.211
ENDCONSTRAINT
$end

$rem
JOBTYPE                   OPT
METHOD                    B3LYP
DFT_D                     d3_op
BASIS                     STO-3G
GEOM_OPT_MAX_CYCLES       100
GEOM_OPT_TOL_GRADIENT     300
GEOM_OPT_TOL_DISPLACEMENT 1200
GEOM_OPT_TOL_ENERGY       100
SYMMETRY                  False
THRESH                    12
SCF_CONVERGENCE           8
MAX_SUB_FILE_NUM          128
MEM_STATIC                400
MEM_TOTAL                 4000
$end
--------------------------------------------------------------

   16   -1509.9037928898      9.03E-09 Convergence criterion met
 Total energy in the final basis set = -1509.90379289
   15   -1509.9946222029      7.95E-09 Convergence criterion met
 Total energy in the final basis set = -1509.99462220
   15   -1510.0781998007      6.14E-09 Convergence criterion met
 Total energy in the final basis set = -1510.07819980
   15   -1510.1295949602      7.30E-09 Convergence criterion met
 Total energy in the final basis set = -1510.12959496
   15   -1510.1590846629      5.39E-09 Convergence criterion met
 Total energy in the final basis set = -1510.15908466
   14   -1510.1854492544      6.57E-09 Convergence criterion met
 Total energy in the final basis set = -1510.18544925
   14   -1510.2058249003      8.40E-09 Convergence criterion met
 Total energy in the final basis set = -1510.20582490
   14   -1510.2203023524      5.16E-09 Convergence criterion met
   11   -1510.2550928981      2.07E-09 Convergence criterion met
 Total energy in the final basis set = -1510.25509290
   10   -1510.2551016149      8.55E-09 Convergence criterion met
 Total energy in the final basis set = -1510.25510161
    9   -1510.2551005605      5.59E-09 Convergence criterion met
 Total energy in the final basis set = -1510.25510056
   10   -1510.2551110941      4.34E-09 Convergence criterion met
 Total energy in the final basis set = -1510.25511109
    9   -1510.2551148652      7.55E-09 Convergence criterion met
 Total energy in the final basis set = -1510.25511487
    9   -1510.2551168595      7.68E-09 Convergence criterion met
 Total energy in the final basis set = -1510.25511686

             Standard Nuclear Orientation (Angstroms)
    I     Atom           X                Y                Z
 ----------------------------------------------------------------
    1      O      -2.2717969096    -2.2826959733    -0.1205319472
    2      C      -2.5402073747    -1.2813863505     0.5811930836
    3      C      -3.4782566243    -0.0721584867     0.2246332076
    4      C      -2.6976013656     1.2901493033     0.0200818793
    5      C      -1.1594306389     1.0594433116    -0.2560218617
    6      O      -0.3049550624     2.2386370977    -0.1728885301
    7      C      -0.3277902919     2.8766810377     1.1537412922
    8      C       0.7542534196     2.4606441335     2.2750092402
    9      O       1.9691916789     1.6897887310     1.9353789784
   10      C       1.7588641542     0.5278569155     1.1286277226
   11      C       3.1681448980     0.0691401159     0.6338056077
   12      C       3.1990476694    -1.2957140590    -0.1649932414
   13      C       1.8186497705    -1.9552779023    -0.5544138303
   14      O       1.3121455916    -1.9456940323    -1.6968932064
   15      O      -2.0566493258    -1.0297352110     1.8996909074
   16      O       1.3597373687    -2.8125296391     0.5038701869
   17      O       0.6812375010    -0.0965992257     1.0463490099
   18      C       0.3142685748    -3.7272090658    -0.0316387620
   19      C       3.8037999004     1.0694165309    -0.4310369851
   20      C       5.3659112028     0.8379499235    -0.4402745881
   21      C       5.4544882980    -0.5527082898    -1.1721486371
   22      C       3.9327904244    -0.8306918367    -1.4933701504
   23      O       3.3689624635     0.5188020370    -1.7314813666
   24      H       3.8147500255     0.0114182873     1.5288412119
   25      H       3.7833320480    -2.0502431744     0.3919266700
   26      H       3.4769762143     2.1213363489    -0.3178583925
   27      H       5.8671829219     1.6310641374    -1.0177367932
   28      H       5.7912740292     0.8163072370     0.5757080934
   29      H       6.0401968863    -0.4844289040    -2.1025118640
   30      H       5.8919374686    -1.3397313087    -0.5371282904
   31      H       3.7369117237    -1.4839201645    -2.3652347925
   32      O      -0.7379963650     0.0555665890    -0.8676436094
   33      C      -1.1087329164    -2.0755682245     2.3522926885
   34      C      -4.2343659704    -0.2171384502    -1.1612632934
   35      C      -5.5152632370     0.7011465063    -1.0960091656
   36      C      -4.8542597146     2.1295186847    -1.1470793366
   37      C      -3.3312675564     1.7611849722    -1.3649435465
   38      O      -3.3707539946     0.4964561501    -2.1319142639
   39      H      -4.2011883854     0.0373690154     1.0530645855
   40      H      -2.8898278547     2.0043110513     0.8363472244
   41      H      -0.1436927136    -2.0083272237     1.8013514252
   42      H      -4.3984396153    -1.2630211992    -1.4854676450
   43      H      -6.1569190208     0.5259365793    -1.9744675332
   44      H      -6.1104510411     0.5366881805    -0.1834069658
   45      H      -5.2320086351     2.7232111927    -1.9943808368
   46      H      -5.0095158271     2.7028270454    -0.2186658359
   47      H      -2.7345312028     2.5243102323    -1.9020466286
   48      H      -1.5372071981    -3.0899528153     2.2282891909
   49      H      -0.9377823359    -1.8776006109     3.4264376870
   50      H       0.2133328838    -4.5328016632     0.7185905628
   51      H       0.6274380785    -4.1590756320    -1.0018866537
   52      H      -0.6650318540    -3.2041516011    -0.1564132788
   53      H       1.1440975661     3.3954627840     2.7254817148
   54      H       0.1998897585     1.9067823762     3.0667742226
   55      H      -1.3174826924     2.7838879982     1.6446091554
   56      H      -0.1641555357     3.9543618094     0.9400766902
 ----------------------------------------------------------------

    9   -1510.2551167612      7.81E-09 Convergence criterion met
 Total energy in the final basis set = -1510.25511676
 Final energy is   -1510.25511676121
 **  OPTIMIZATION CONVERGED  **

                    Orbital Energies (a.u.)
 --------------------------------------------------------------

 Alpha MOs
 -- Occupied --
-18.934 -18.927 -18.923 -18.908 -18.892 -18.886 -18.884 -18.880
-18.876 -18.853 -10.103 -10.100 -10.099 -10.078 -10.078 -10.077
-10.061 -10.056 -10.053 -10.049 -10.046 -10.038 -10.034 -10.033
-10.026 -10.024 -10.021 -10.019 -10.014 -10.013  -1.017  -1.005
 -0.997  -0.986  -0.968  -0.962  -0.945  -0.935  -0.931  -0.910
 -0.762  -0.755  -0.722  -0.720  -0.709  -0.703  -0.694  -0.655
 -0.637  -0.615  -0.598  -0.579  -0.545  -0.538  -0.536  -0.529
 -0.512  -0.503  -0.478  -0.461  -0.458  -0.451  -0.446  -0.444
 -0.434  -0.430  -0.425  -0.417  -0.410  -0.406  -0.396  -0.393
 -0.385  -0.381  -0.370  -0.359  -0.352  -0.350  -0.348  -0.344
 -0.335  -0.332  -0.329  -0.327  -0.322  -0.320  -0.316  -0.310
 -0.308  -0.305  -0.301  -0.296  -0.290  -0.280  -0.273  -0.267
 -0.262  -0.252  -0.246  -0.237  -0.231  -0.230  -0.225  -0.183
 -0.171  -0.168  -0.159  -0.155  -0.147  -0.143  -0.140  -0.135
 -0.130

          Ground-State Mulliken Net Atomic Charges

     Atom                 Charge (a.u.)
  ----------------------------------------
      1 O                    -0.207034
      2 C                     0.222888
      3 C                    -0.078444
      4 C                    -0.079836
      5 C                     0.220180
      6 O                    -0.177485
      7 C                    -0.050317
      8 C                    -0.051511
      9 O                    -0.176227
     10 C                     0.218984
     11 C                    -0.077740
     12 C                    -0.080146
     13 C                     0.214000
     14 O                    -0.203665
     15 O                    -0.173941
     16 O                    -0.180481
     17 O                    -0.203093
     18 C                    -0.147145
     19 C                     0.026449
     20 C                    -0.143402
     21 C                    -0.145316
     22 C                     0.026296
     23 O                    -0.185085
     24 H                     0.084967
     25 H                     0.081335
     26 H                     0.084565
     27 H                     0.076809
     28 H                     0.071796
     29 H                     0.077094
     30 H                     0.071809
     31 H                     0.089302
     32 O                    -0.162772
     33 C                    -0.137519
     34 C                     0.025328
     35 C                    -0.142787
     36 C                    -0.144725
     37 C                     0.024309
     38 O                    -0.183467
     39 H                     0.082106
     40 H                     0.076293
     41 H                     0.113375
     42 H                     0.091202
     43 H                     0.078720
     44 H                     0.072440
     45 H                     0.078916
     46 H                     0.071402
     47 H                     0.085218
     48 H                     0.082621
     49 H                     0.082204
     50 H                     0.073487
     51 H                     0.081141
     52 H                     0.113934
     53 H                     0.089124
     54 H                     0.079924
     55 H                     0.080267
     56 H                     0.083652
  ----------------------------------------
  Sum of atomic charges =    -0.000000

                    Cartesian Multipole Moments
 -----------------------------------------------------------------
    Charge (ESU x 10^10)
                -0.0000
    Dipole Moment (Debye)
         X      -0.7063      Y       2.4762      Z       4.5167
       Tot       5.1992
    Quadrupole Moments (Debye-Ang)
        XX    -138.3194     XY      -7.3496     YY    -150.0357
        XZ      -1.3772     YZ       1.1878     ZZ    -164.2117

 Total job time:  77.77s(wall), 3708.56s(cpu)
        *  Thank you very much for using Q-Chem.  Have a nice day.  *
