 Q-Chem 5.0, Q-Chem, Inc., Pleasanton, CA (2017)
 Q-Chem 5.0.1 for Intel X86 EM64T Linux

User input:
--------------------------------------------------------------
$molecule
0  1
O -3.94934 -3.66094 2.70899
C -3.26408 -4.56952 2.26188
C -3.36658 -6.02376 2.66595
C -2.38701 -6.52542 3.73956
C -1.53361 -5.47619 4.41699
O -0.47096 -5.15728 3.62045
C -0.31928 -3.74779 3.42153
C 0.02251 -3.45643 1.96399
O -0.94355 -2.55173 1.40619
C -1.69031 -1.86741 2.30797
C -2.18266 -0.54141 1.77883
C -2.96798 0.30745 2.78927
C -2.84271 -0.10926 4.24095
O -2.2515 0.51595 5.10936
O -2.80513 -4.44563 0.98827
O -3.73977 -1.04985 4.65523
O -2.17639 -2.30296 3.31882
C -3.86778 -1.49223 5.95575
C -1.03111 0.42971 1.43192
C -1.51305 1.44056 0.39329
C -2.47627 2.25917 1.2271
C -2.22249 1.64845 2.61179
O -0.87919 1.23695 2.57077
H -2.75367 -0.72682 0.84705
H -4.05025 0.40214 2.55034
H -0.11068 -0.07831 1.06997
H -0.63466 2.0758 0.13665
H -1.93849 1.01561 -0.54121
H -2.15574 3.3238 1.1876
H -3.54697 2.16918 0.94213
H -2.48238 2.38389 3.40512
O -1.73753 -4.97544 5.51573
C -3.43145 -3.70598 0.00586
C -4.71798 -6.32253 3.34678
C -5.03752 -7.81473 3.26021
C -4.04928 -8.3695 4.26074
C -3.40818 -7.07269 4.76411
O -4.45638 -6.13749 4.71343
H -3.30044 -6.64161 1.74048
H -1.71811 -7.35097 3.40773
H -3.57087 -2.65906 0.31831
H -5.56091 -5.7325 2.92388
H -6.06641 -7.96398 3.65921
H -4.97273 -8.24492 2.23763
H -4.61936 -8.85253 5.08568
H -3.30273 -9.08272 3.84937
H -2.95618 -7.24437 5.76629
H -4.42951 -4.14293 -0.20971
H -2.82092 -3.73597 -0.91959
H -4.66617 -2.26107 6.00069
H -4.14409 -0.64871 6.62363
H -2.91395 -1.94783 6.29819
H 1.02894 -2.99637 1.82526
H 0.01046 -4.40039 1.37734
H 0.73031 -3.68617 3.78437
H -0.457 -3.0905 4.31343
$end

$opt
CONSTRAINT
tors           1           2           3           4     -96.310
tors           3           4           5           6     -80.483
tors           4           5           6           7    +129.231
tors           5           6           7           8    -137.937
tors           6           7           8           9    +123.372
tors           7           8           9          10     +17.622
tors           8           9          10          11    +153.005
tors           9          10          11          12    -176.749
tors          11          12          13          14    +109.933
ENDCONSTRAINT
$end

$rem
JOBTYPE                   OPT
METHOD                    B3LYP
DFT_D                     d3_op
BASIS                     STO-3G
GEOM_OPT_MAX_CYCLES       100
GEOM_OPT_TOL_GRADIENT     300
GEOM_OPT_TOL_DISPLACEMENT 1200
GEOM_OPT_TOL_ENERGY       100
SYMMETRY                  False
THRESH                    12
SCF_CONVERGENCE           8
MAX_SUB_FILE_NUM          128
MEM_STATIC                400
MEM_TOTAL                 4000
$end
--------------------------------------------------------------

   15   -1510.0206079511      7.22E-09 Convergence criterion met
 Total energy in the final basis set = -1510.02060795
   14   -1510.1008546814      9.71E-09 Convergence criterion met
 Total energy in the final basis set = -1510.10085468
   14   -1510.1499093647      7.59E-09 Convergence criterion met
 Total energy in the final basis set = -1510.14990936
   14   -1510.1792814361      4.01E-09 Convergence criterion met
 Total energy in the final basis set = -1510.17928144
   14   -1510.1970907182      8.65E-09 Convergence criterion met
 Total energy in the final basis set = -1510.19709072
   14   -1510.2114938815      4.07E-09 Convergence criterion met
 Total energy in the final basis set = -1510.21149388
   13   -1510.2218040923      9.95E-09 Convergence criterion met
 Total energy in the final basis set = -1510.22180409
   12   -1510.2303426752      9.69E-09 Convergence criterion met
   11   -1510.2587641824      5.75E-09 Convergence criterion met
 Total energy in the final basis set = -1510.25876418
   11   -1510.2587794999      1.66E-09 Convergence criterion met
 Total energy in the final basis set = -1510.25877950
   10   -1510.2587885365      8.30E-09 Convergence criterion met
 Total energy in the final basis set = -1510.25878854
    9   -1510.2587932514      6.61E-09 Convergence criterion met
 Total energy in the final basis set = -1510.25879325
    9   -1510.2587963518      6.27E-09 Convergence criterion met
 Total energy in the final basis set = -1510.25879635
    9   -1510.2587980444      7.55E-09 Convergence criterion met
 Total energy in the final basis set = -1510.25879804

             Standard Nuclear Orientation (Angstroms)
    I     Atom           X                Y                Z
 ----------------------------------------------------------------
    1      O       1.7704720350     1.0162005374     1.8545221773
    2      C       1.9176245143    -0.0487195022     1.2067162742
    3      C       3.2883527293    -0.5826690589     0.6424761793
    4      C       3.7235197339    -0.3090858531    -0.8644412729
    5      C       2.6870412922     0.1448674406    -1.9523800591
    6      O       1.9255668337    -0.9656829057    -2.4777936965
    7      C       0.4690556112    -0.7152520672    -2.4474565112
    8      C      -0.2624389223    -2.0315756065    -1.9651071038
    9      O      -1.1543448020    -1.9863159321    -0.7730389021
   10      C      -1.6196761492    -0.7222664512    -0.3380441538
   11      C      -2.9922803496    -0.9283493513     0.3988973771
   12      C      -3.6371713491     0.4420069218     0.8530164537
   13      C      -2.6771939964     1.6864451969     0.7440641598
   14      O      -2.7516911184     2.6373883950    -0.0607028149
   15      O       0.9403323810    -1.0899898707     1.1826247947
   16      O      -1.7327170684     1.5984947999     1.8305603475
   17      O      -1.0759771862     0.3970543641    -0.5213390330
   18      C      -0.7239004293     2.6849116653     1.7504599220
   19      C      -4.0700504502    -1.4168475258    -0.6645278960
   20      C      -5.3975055839    -1.8221669487     0.0910522904
   21      C      -6.0087888958    -0.4086007398     0.4184327452
   22      C      -4.8753472518     0.5410460225    -0.1322570450
   23      O      -4.4196177328    -0.1571168493    -1.3585707834
   24      H      -2.8729275638    -1.6455358942     1.2296387368
   25      H      -3.9698229697     0.3721872170     1.9043252457
   26      H      -3.6823198948    -2.1678408958    -1.3802440807
   27      H      -6.0548439606    -2.4070235948    -0.5717134353
   28      H      -5.1903051769    -2.4154890749     0.9961110286
   29      H      -6.9506989043    -0.2409782996    -0.1281606591
   30      H      -6.1921312035    -0.2612741476     1.4946808233
   31      H      -5.1817807790     1.5778914091    -0.3712255096
   32      O       2.4954392540     1.3287899995    -2.3075733155
   33      C      -0.0918127757    -0.8317980799     2.2264279429
   34      C       4.4402460203     0.2156056237     1.3983234547
   35      C       5.8278872582    -0.5096988164     1.1789261350
   36      C       6.1986780150    -0.0357095143    -0.2748747005
   37      C       4.8915581654     0.7559604365    -0.6627556499
   38      O       4.5411759218     1.4526857637     0.5942505497
   39      H       3.3172403336    -1.6689632282     0.8419608499
   40      H       4.1529359222    -1.2553424317    -1.2456162510
   41      H      -0.7249862162     0.0696564359     2.0224466071
   42      H       4.1937400794     0.4599535969     2.4493057891
   43      H       6.5650375123    -0.1650078757     1.9212698680
   44      H       5.7348148683    -1.6048584785     1.2576513275
   45      H       7.0676822243     0.6416976409    -0.2668488617
   46      H       6.4082332655    -0.8723889286    -0.9602561493
   47      H       4.9898413755     1.4817617552    -1.4930574152
   48      H       0.3898239177    -0.7112964618     3.2172882632
   49      H      -0.7208589563    -1.7397861188     2.2399804476
   50      H       0.2805337548     2.2041767292     1.7987542517
   51      H      -0.8610910300     3.3689944647     2.6108347946
   52      H      -0.8553122965     3.2474756915     0.8057756215
   53      H      -0.8890762071    -2.4339419170    -2.7913318268
   54      H       0.5108787097    -2.7932107828    -1.7237680115
   55      H       0.1103652277    -0.4649475667    -3.4695738878
   56      H       0.1686810873     0.1042828922    -1.7539213728
 ----------------------------------------------------------------

    9   -1510.2587983303      2.27E-09 Convergence criterion met
 Total energy in the final basis set = -1510.25879833
 Final energy is   -1510.25879833028
 **  OPTIMIZATION CONVERGED  **

                    Orbital Energies (a.u.)
 --------------------------------------------------------------

 Alpha MOs
 -- Occupied --
-18.951 -18.933 -18.922 -18.909 -18.902 -18.891 -18.887 -18.887
-18.880 -18.867 -10.124 -10.102 -10.102 -10.096 -10.080 -10.065
-10.060 -10.059 -10.057 -10.056 -10.046 -10.045 -10.042 -10.037
-10.037 -10.032 -10.025 -10.022 -10.020 -10.019  -1.028  -1.011
 -1.003  -0.998  -0.974  -0.969  -0.957  -0.935  -0.932  -0.927
 -0.768  -0.762  -0.731  -0.722  -0.716  -0.706  -0.698  -0.658
 -0.646  -0.621  -0.597  -0.586  -0.549  -0.544  -0.540  -0.538
 -0.516  -0.512  -0.479  -0.470  -0.463  -0.460  -0.451  -0.448
 -0.441  -0.436  -0.428  -0.421  -0.410  -0.405  -0.401  -0.395
 -0.390  -0.387  -0.379  -0.371  -0.364  -0.357  -0.354  -0.347
 -0.346  -0.339  -0.335  -0.334  -0.331  -0.327  -0.325  -0.316
 -0.312  -0.308  -0.306  -0.305  -0.300  -0.282  -0.280  -0.277
 -0.269  -0.258  -0.256  -0.240  -0.239  -0.236  -0.233  -0.191
 -0.178  -0.168  -0.164  -0.161  -0.155  -0.150  -0.148  -0.147
 -0.142

          Ground-State Mulliken Net Atomic Charges

     Atom                 Charge (a.u.)
  ----------------------------------------
      1 O                    -0.208904
      2 C                     0.210373
      3 C                    -0.077224
      4 C                    -0.081090
      5 C                     0.213397
      6 O                    -0.194496
      7 C                    -0.068626
      8 C                    -0.048347
      9 O                    -0.170007
     10 C                     0.229831
     11 C                    -0.076628
     12 C                    -0.082596
     13 C                     0.221182
     14 O                    -0.212435
     15 O                    -0.173680
     16 O                    -0.182315
     17 O                    -0.200306
     18 C                    -0.148316
     19 C                     0.024043
     20 C                    -0.144256
     21 C                    -0.143146
     22 C                     0.024439
     23 O                    -0.190890
     24 H                     0.087086
     25 H                     0.084401
     26 H                     0.084069
     27 H                     0.078961
     28 H                     0.073704
     29 H                     0.078975
     30 H                     0.073971
     31 H                     0.091375
     32 O                    -0.189904
     33 C                    -0.150124
     34 C                     0.027041
     35 C                    -0.145713
     36 C                    -0.142951
     37 C                     0.024429
     38 O                    -0.184768
     39 H                     0.086001
     40 H                     0.082849
     41 H                     0.114243
     42 H                     0.086671
     43 H                     0.078437
     44 H                     0.072445
     45 H                     0.078316
     46 H                     0.072954
     47 H                     0.089036
     48 H                     0.079115
     49 H                     0.078566
     50 H                     0.109183
     51 H                     0.076938
     52 H                     0.097491
     53 H                     0.086178
     54 H                     0.098306
     55 H                     0.080266
     56 H                     0.122450
  ----------------------------------------
  Sum of atomic charges =    -0.000000

                    Cartesian Multipole Moments
 -----------------------------------------------------------------
    Charge (ESU x 10^10)
                 0.0000
    Dipole Moment (Debye)
         X      -0.5512      Y      -4.8006      Z       1.7562
       Tot       5.1414
    Quadrupole Moments (Debye-Ang)
        XX    -143.5569     XY      -1.7615     YY    -165.8850
        XZ      -4.6918     YZ       2.8041     ZZ    -159.2730

 Total job time:  142.46s(wall), 6792.55s(cpu)
        *  Thank you very much for using Q-Chem.  Have a nice day.  *
