 Q-Chem 5.0, Q-Chem, Inc., Pleasanton, CA (2017)
 Q-Chem 5.0.1 for Intel X86 EM64T Linux

User input:
--------------------------------------------------------------
$molecule
0  1
O 1.770472035 1.0162005374 1.8545221773
C 1.9176245143 -0.0487195022 1.2067162742
C 3.2883527293 -0.5826690589 0.6424761793
C 3.7235197339 -0.3090858531 -0.8644412729
C 2.6870412922 0.1448674406 -1.9523800591
O 1.9255668337 -0.9656829057 -2.4777936965
C 0.4690556112 -0.7152520672 -2.4474565112
C -0.2624389223 -2.0315756065 -1.9651071038
O -1.154344802 -1.9863159321 -0.7730389021
C -1.6196761492 -0.7222664512 -0.3380441538
C -2.9922803496 -0.9283493513 0.3988973771
C -3.6371713491 0.4420069218 0.8530164537
C -2.6771939964 1.6864451969 0.7440641598
O -2.7516911184 2.637388395 -0.0607028149
O 0.940332381 -1.0899898707 1.1826247947
O -1.7327170684 1.5984947999 1.8305603475
O -1.0759771862 0.3970543641 -0.521339033
C -0.7239004293 2.6849116653 1.750459922
C -4.0700504502 -1.4168475258 -0.664527896
C -5.3975055839 -1.8221669487 0.0910522904
C -6.0087888958 -0.4086007398 0.4184327452
C -4.8753472518 0.5410460225 -0.132257045
O -4.4196177328 -0.1571168493 -1.3585707834
H -2.8729275638 -1.6455358942 1.2296387368
H -3.9698229697 0.372187217 1.9043252457
H -3.6823198948 -2.1678408958 -1.3802440807
H -6.0548439606 -2.4070235948 -0.5717134353
H -5.1903051769 -2.4154890749 0.9961110286
H -6.9506989043 -0.2409782996 -0.1281606591
H -6.1921312035 -0.2612741476 1.4946808233
H -5.181780779 1.5778914091 -0.3712255096
O 2.495439254 1.3287899995 -2.3075733155
C -0.0918127757 -0.8317980799 2.2264279429
C 4.4402460203 0.2156056237 1.3983234547
C 5.8278872582 -0.5096988164 1.178926135
C 6.198678015 -0.0357095143 -0.2748747005
C 4.8915581654 0.7559604365 -0.6627556499
O 4.5411759218 1.4526857637 0.5942505497
H 3.3172403336 -1.6689632282 0.8419608499
H 4.1529359222 -1.2553424317 -1.245616251
H -0.7249862162 0.0696564359 2.0224466071
H 4.1937400794 0.4599535969 2.4493057891
H 6.5650375123 -0.1650078757 1.921269868
H 5.7348148683 -1.6048584785 1.2576513275
H 7.0676822243 0.6416976409 -0.2668488617
H 6.4082332655 -0.8723889286 -0.9602561493
H 4.9898413755 1.4817617552 -1.4930574152
H 0.3898239177 -0.7112964618 3.2172882632
H -0.7208589563 -1.7397861188 2.2399804476
H 0.2805337548 2.2041767292 1.7987542517
H -0.86109103 3.3689944647 2.6108347946
H -0.8553122965 3.2474756915 0.8057756215
H -0.8890762071 -2.433941917 -2.7913318268
H 0.5108787097 -2.7932107828 -1.7237680115
H 0.1103652277 -0.4649475667 -3.4695738878
H 0.1686810873 0.1042828922 -1.7539213728
$end

$rem
JOBTYPE                   OPT
METHOD                    B3LYP
DFT_D                     d3_op
BASIS                     STO-3G
GEOM_OPT_MAX_CYCLES       100
GEOM_OPT_TOL_GRADIENT     300
GEOM_OPT_TOL_DISPLACEMENT 1200
GEOM_OPT_TOL_ENERGY       100
SYMMETRY                  False
THRESH                    12
SCF_CONVERGENCE           8
MAX_SUB_FILE_NUM          128
MEM_STATIC                400
MEM_TOTAL                 4000
$end
--------------------------------------------------------------

   16   -1510.2585886462      5.95E-09 Convergence criterion met
 Total energy in the final basis set = -1510.25858865
   15   -1510.2553146740      3.15E-09 Convergence criterion met
 Total energy in the final basis set = -1510.25531467
   14   -1510.2656948990      4.54E-09 Convergence criterion met
 Total energy in the final basis set = -1510.26569490
   15   -1510.2656779384      2.48E-09 Convergence criterion met
 Total energy in the final basis set = -1510.26567794
   15   -1510.2605714620      4.45E-09 Convergence criterion met
 Total energy in the final basis set = -1510.26057146
   15   -1510.2670593231      3.67E-09 Convergence criterion met
 Total energy in the final basis set = -1510.26705932
   13   -1510.2724845374      5.13E-09 Convergence criterion met
 Total energy in the final basis set = -1510.27248454
   13   -1510.2762239844      6.41E-09 Convergence criterion met
   11   -1510.3051917606      2.46E-09 Convergence criterion met
 Total energy in the final basis set = -1510.30519176
   11   -1510.3051942990      1.60E-09 Convergence criterion met
 Total energy in the final basis set = -1510.30519430
    9   -1510.3051948116      4.82E-09 Convergence criterion met
 Total energy in the final basis set = -1510.30519481
    9   -1510.3051952378      9.34E-09 Convergence criterion met
 Total energy in the final basis set = -1510.30519524
    9   -1510.3051952800      5.09E-09 Convergence criterion met
 Total energy in the final basis set = -1510.30519528
    9   -1510.3051955067      4.57E-09 Convergence criterion met
 Total energy in the final basis set = -1510.30519551

             Standard Nuclear Orientation (Angstroms)
    I     Atom           X                Y                Z
 ----------------------------------------------------------------
    1      O      -1.6610324061    -2.2691464108     1.6071713492
    2      C      -2.0854283619    -1.0941329211     1.5801912860
    3      C      -3.5410898512    -0.6075140497     1.2474893628
    4      C      -3.5989176505     0.5442381559     0.1540800161
    5      C      -2.1980919755     0.8812765360    -0.4619692257
    6      O      -1.8035542086     2.1970916518    -0.0739138073
    7      C      -0.4757024154     2.5345604475    -0.6510500043
    8      C       0.4745924154     3.0715109339     0.4845420182
    9      O       1.4512687228     2.0543842627     0.9400964636
   10      C       2.5896442088     2.0129236955     0.0510988975
   11      C       3.6000480574     0.9435035726     0.6026713908
   12      C       3.1804545257    -0.5610251583     0.3517929438
   13      C       1.8756804906    -0.6958870328    -0.5030645278
   14      O       1.3903506365     0.1818183877    -1.2547880393
   15      O      -1.3041381879     0.0685932812     1.8472368109
   16      O       1.3310743414    -1.9893591379    -0.2749354196
   17      O       2.7609448092     2.8132554464    -0.8905759590
   18      C       0.1274107510    -2.2334628092    -1.1131921004
   19      C       4.9830869728     1.0080872686    -0.1714304329
   20      C       6.0741538887     0.2846883857     0.7101861905
   21      C       5.6626117939    -1.2230471113     0.5211099999
   22      C       4.4391953334    -1.0845542565    -0.4698121568
   23      O       4.7914931335     0.0802185606    -1.3102688019
   24      H       3.7286322753     1.1302430812     1.6841270347
   25      H       3.0502690149    -1.1215185678     1.2940219232
   26      H       5.2477496224     2.0183813079    -0.5390724085
   27      H       7.0821458450     0.4797767992     0.3110137995
   28      H       6.0407694361     0.6072889713     1.7629761489
   29      H       6.4710238802    -1.8095735453     0.0564129909
   30      H       5.3730588754    -1.7078253333     1.4671243980
   31      H       4.2360352655    -1.9744920270    -1.0970326094
   32      O      -1.5327620489     0.1558251501    -1.2375844286
   33      C       0.1052861504    -0.2777776089     2.1497488198
   34      C      -4.3918661046    -1.7449857063     0.5474112310
   35      C      -5.9187415864    -1.3635943151     0.6555207366
   36      C      -6.0089677720    -0.1877416208    -0.3872011130
   37      C      -4.5272619431    -0.1475245680    -0.9358895088
   38      O      -4.0939300835    -1.5626417685    -0.8925317830
   39      H      -4.0130860504    -0.2683422874     2.1881179069
   40      H      -4.0380696847     1.4706823868     0.5634311041
   41      H       0.3957471399    -1.2179658117     1.6400217872
   42      H      -4.1211236668    -2.7685492394     0.8725200125
   43      H      -6.5499319521    -2.2155952927     0.3567311319
   44      H      -6.2013700796    -1.0534169976     1.6741388349
   45      H      -6.7146864244    -0.4207408868    -1.2001893524
   46      H      -6.3045321586     0.7681472407     0.0739861740
   47      H      -4.4126023488     0.2594991064    -1.9592457903
   48      H       0.2388620083    -0.4002632464     3.2434188347
   49      H       0.7147332661     0.5782027143     1.7755045514
   50      H      -0.4077177007    -3.0718564367    -0.6307143877
   51      H       0.4305129381    -2.5271719185    -2.1383753003
   52      H      -0.5334353913    -1.3355078466    -1.1655754626
   53      H       1.0201179429     3.9650487162     0.1149707241
   54      H      -0.1255838276     3.3393699746     1.3781109253
   55      H      -0.6236066922     3.3220509780    -1.4193066325
   56      H      -0.0336801962     1.6261150270    -1.1270651999
 ----------------------------------------------------------------

    9   -1510.3051960733      6.00E-09 Convergence criterion met
 Total energy in the final basis set = -1510.30519607
 Final energy is   -1510.30519607326
 **  OPTIMIZATION CONVERGED  **

                    Orbital Energies (a.u.)
 --------------------------------------------------------------

 Alpha MOs
 -- Occupied --
-18.935 -18.935 -18.934 -18.929 -18.889 -18.887 -18.879 -18.878
-18.876 -18.874 -10.104 -10.102 -10.102 -10.097 -10.071 -10.062
-10.060 -10.059 -10.057 -10.057 -10.039 -10.039 -10.038 -10.037
-10.037 -10.036 -10.021 -10.021 -10.020 -10.020  -1.017  -1.012
 -1.007  -1.005  -0.971  -0.970  -0.940  -0.937  -0.934  -0.933
 -0.765  -0.763  -0.727  -0.723  -0.711  -0.706  -0.695  -0.654
 -0.650  -0.616  -0.597  -0.579  -0.547  -0.543  -0.539  -0.536
 -0.512  -0.509  -0.479  -0.471  -0.462  -0.460  -0.454  -0.451
 -0.435  -0.430  -0.426  -0.414  -0.412  -0.408  -0.404  -0.397
 -0.391  -0.374  -0.371  -0.365  -0.363  -0.359  -0.355  -0.345
 -0.343  -0.342  -0.337  -0.333  -0.330  -0.327  -0.318  -0.311
 -0.309  -0.306  -0.304  -0.299  -0.293  -0.288  -0.281  -0.275
 -0.269  -0.257  -0.252  -0.241  -0.236  -0.235  -0.233  -0.189
 -0.175  -0.170  -0.166  -0.160  -0.158  -0.152  -0.150  -0.145
 -0.143

          Ground-State Mulliken Net Atomic Charges

     Atom                 Charge (a.u.)
  ----------------------------------------
      1 O                    -0.213438
      2 C                     0.209961
      3 C                    -0.078647
      4 C                    -0.077828
      5 C                     0.220969
      6 O                    -0.169729
      7 C                    -0.064765
      8 C                    -0.050168
      9 O                    -0.179191
     10 C                     0.218658
     11 C                    -0.081392
     12 C                    -0.079136
     13 C                     0.216722
     14 O                    -0.210388
     15 O                    -0.175900
     16 O                    -0.170437
     17 O                    -0.207806
     18 C                    -0.148615
     19 C                     0.025369
     20 C                    -0.143895
     21 C                    -0.143829
     22 C                     0.025819
     23 O                    -0.187443
     24 H                     0.084237
     25 H                     0.086955
     26 H                     0.089735
     27 H                     0.078700
     28 H                     0.073057
     29 H                     0.078802
     30 H                     0.074180
     31 H                     0.085230
     32 O                    -0.218856
     33 C                    -0.156309
     34 C                     0.023516
     35 C                    -0.143677
     36 C                    -0.144274
     37 C                     0.025622
     38 O                    -0.187537
     39 H                     0.084617
     40 H                     0.086744
     41 H                     0.094561
     42 H                     0.090093
     43 H                     0.078332
     44 H                     0.073084
     45 H                     0.078342
     46 H                     0.073502
     47 H                     0.084133
     48 H                     0.074417
     49 H                     0.108110
     50 H                     0.091705
     51 H                     0.079659
     52 H                     0.121411
     53 H                     0.094764
     54 H                     0.094870
     55 H                     0.084534
     56 H                     0.122850
  ----------------------------------------
  Sum of atomic charges =    -0.000000

                    Cartesian Multipole Moments
 -----------------------------------------------------------------
    Charge (ESU x 10^10)
                -0.0000
    Dipole Moment (Debye)
         X      -0.7762      Y       0.9084      Z       2.9976
       Tot       3.2269
    Quadrupole Moments (Debye-Ang)
        XX    -140.7445     XY      -6.4707     YY    -161.3673
        XZ       6.5336     YZ       2.9297     ZZ    -162.3093

 Total job time:  222.59s(wall), 10630.33s(cpu)
        *  Thank you very much for using Q-Chem.  Have a nice day.  *
