 Q-Chem 5.0, Q-Chem, Inc., Pleasanton, CA (2017)
 Q-Chem 5.0.1 for Intel X86 EM64T Linux

User input:
--------------------------------------------------------------
$molecule
0  1
O -3.94934 -3.66094 2.70899
C -3.26408 -4.56952 2.26188
C -3.36658 -6.02376 2.66595
C -2.27333 -6.57303 3.59705
C -1.29943 -5.56331 4.16282
O -0.19319 -5.48833 3.36531
C 0.19131 -4.14347 3.06072
C 1.61209 -4.11563 2.50686
O 1.89503 -2.82227 1.95002
C 3.15144 -2.35812 2.16249
C 3.38635 -0.99622 1.55364
C 3.35468 0.17229 2.54957
C 3.45259 -0.20489 4.0141
O 4.41676 0.00257 4.73653
O -2.45944 -4.31306 1.19842
O 2.36575 -0.83234 4.53643
O 3.97077 -2.89308 2.90065
C 2.27475 -1.28054 5.83705
C 4.77504 -0.81756 0.91738
C 4.71456 0.28074 -0.14231
C 4.53379 1.5062 0.73147
C 4.66378 0.87436 2.1237
O 5.54218 -0.20883 1.92651
H 2.60525 -0.84699 0.772
H 2.46643 0.83193 2.43526
H 5.18465 -1.75647 0.4849
H 5.72135 0.32655 -0.61641
H 3.94523 0.1452 -0.93266
H 5.37599 2.2052 0.53137
H 3.56248 2.03414 0.6156
H 4.99115 1.64072 2.86052
O -1.65479 -4.66107 4.91391
C -2.40268 -3.09857 0.54294
C -4.60651 -6.28339 3.55772
C -5.00099 -7.75959 3.49698
C -3.88774 -8.38177 4.31097
C -3.13143 -7.12397 4.74826
O -4.1361 -6.14969 4.87534
H -3.50332 -6.61292 1.73132
H -1.68266 -7.38157 3.10916
H -2.0983 -2.29189 1.24371
H -5.48296 -5.65488 3.28596
H -5.95449 -7.871 4.06167
H -5.13158 -8.1724 2.47359
H -4.33755 -8.88715 5.19452
H -3.23433 -9.09188 3.75934
H -2.53062 -7.33014 5.66189
H -3.39462 -2.85498 0.10609
H -1.65728 -3.16196 -0.2761
H 1.28286 -1.75337 5.9895
H 2.37951 -0.42982 6.54377
H 3.06473 -2.03585 6.03648
H 2.32178 -4.47429 3.28533
H 1.63974 -4.83876 1.66332
H 0.21024 -3.4924 3.96451
H -0.49341 -3.70725 2.32402
$end

$opt
CONSTRAINT
tors           1           2           3           4    -104.211
tors           3           4           5           6     -93.489
tors           4           5           6           7    +132.737
tors           5           6           7           8    +164.583
tors           6           7           8           9    +168.212
tors           7           8           9          10    +141.673
tors           8           9          10          11    -180.000
tors           9          10          11          12    +102.355
tors          11          12          13          14    +109.379
ENDCONSTRAINT
$end

$rem
JOBTYPE                   OPT
METHOD                    B3LYP
DFT_D                     d3_op
BASIS                     STO-3G
GEOM_OPT_MAX_CYCLES       100
GEOM_OPT_TOL_GRADIENT     300
GEOM_OPT_TOL_DISPLACEMENT 1200
GEOM_OPT_TOL_ENERGY       100
SYMMETRY                  False
THRESH                    12
SCF_CONVERGENCE           8
MAX_SUB_FILE_NUM          128
MEM_STATIC                400
MEM_TOTAL                 4000
$end
--------------------------------------------------------------

   15   -1510.1379223566      6.19E-09 Convergence criterion met
 Total energy in the final basis set = -1510.13792236
   14   -1510.2076217043      6.70E-09 Convergence criterion met
 Total energy in the final basis set = -1510.20762170
   14   -1510.2452649689      7.88E-09 Convergence criterion met
 Total energy in the final basis set = -1510.24526497
   14   -1510.2621808774      6.29E-09 Convergence criterion met
 Total energy in the final basis set = -1510.26218088
   14   -1510.2678356100      5.22E-09 Convergence criterion met
 Total energy in the final basis set = -1510.26783561
   13   -1510.2689187428      7.77E-09 Convergence criterion met
 Total energy in the final basis set = -1510.26891874
   13   -1510.2702602510      3.97E-09 Convergence criterion met
 Total energy in the final basis set = -1510.27026025
   12   -1510.2705371136      5.01E-09 Convergence criterion met
   11   -1510.2717072985      3.96E-09 Convergence criterion met
 Total energy in the final basis set = -1510.27170730
   10   -1510.2717213251      7.00E-09 Convergence criterion met
 Total energy in the final basis set = -1510.27172133
   11   -1510.2717330828      4.27E-09 Convergence criterion met
 Total energy in the final basis set = -1510.27173308
   11   -1510.2717415752      2.41E-09 Convergence criterion met
 Total energy in the final basis set = -1510.27174158
   10   -1510.2717436418      9.93E-09 Convergence criterion met
 Total energy in the final basis set = -1510.27174364
    9   -1510.2717448609      9.86E-09 Convergence criterion met
 Total energy in the final basis set = -1510.27174486

             Standard Nuclear Orientation (Angstroms)
    I     Atom           X                Y                Z
 ----------------------------------------------------------------
    1      O      -4.0255765174     1.3035904581     2.3182667070
    2      C      -3.7180697358     1.3349801489     1.1079265346
    3      C      -4.6242877045     0.9019249734    -0.1024948003
    4      C      -4.2749924744    -0.5016807697    -0.7733727815
    5      C      -2.8999099583    -1.1013860909    -0.3194655605
    6      O      -1.8828000295    -0.6982902442    -1.2636913827
    7      C      -0.6932252853    -0.1887963421    -0.5386057228
    8      C       0.4987044472    -0.1423297653    -1.5464683408
    9      O       1.5872753119     0.6299415000    -0.8970848051
   10      C       2.8639315232     0.0532043581    -1.2025921572
   11      C       3.9614277367     0.9116038251    -0.4904458911
   12      C       4.5110031345     0.2183468226     0.8332764845
   13      C       3.9483070296    -1.2359733808     1.0254869563
   14      O       4.5689463527    -2.3138229802     0.9175532221
   15      O      -2.4830110351     1.8945549774     0.6290982304
   16      O       2.5420643529    -1.1392687575     1.2917018949
   17      O       3.0258925976    -0.9740065988    -1.8969971240
   18      C       1.9440283796    -2.4931016530     1.3559720522
   19      C       5.2978401620     1.0299957421    -1.3404062572
   20      C       6.1353668229     2.2368111776    -0.7600049640
   21      C       6.6563683520     1.6182859670     0.5909828633
   22      C       6.0596797765     0.1582342513     0.5123291357
   23      O       6.0810142223    -0.1581035005    -0.9353308488
   24      H       3.5276690526     1.9011979594    -0.2632817949
   25      H       4.2777335309     0.8243153484     1.7273802698
   26      H       5.1455955725     1.0377775286    -2.4370173173
   27      H       6.9682169905     2.4867428826    -1.4365493470
   28      H       5.5200996604     3.1380834904    -0.6083338802
   29      H       7.7568909283     1.5849579025     0.6230504065
   30      H       6.2938101484     2.1653474014     1.4759175720
   31      H       6.6065740730    -0.6179375928     1.0816287558
   32      O      -2.6728119786    -1.7511008930     0.7238634732
   33      C      -1.6879602122     2.3908747503     1.7800464783
   34      C      -6.0830261740     0.5959442206     0.4416508994
   35      C      -7.0760538552     0.4636149207    -0.7800928866
   36      C      -6.7302351054    -0.9797082757    -1.3050978761
   37      C      -5.5385372066    -1.3661543361    -0.3445735247
   38      O      -5.9505847620    -0.7871466533     0.9534146571
   39      H      -4.6046912623     1.7076016296    -0.8589704225
   40      H      -4.2318356596    -0.3797272931    -1.8704456518
   41      H      -1.4015540862     1.5650482818     2.4625383431
   42      H      -6.4090471434     1.2747773209     1.2531395313
   43      H      -8.1210073580     0.5329158397    -0.4389897404
   44      H      -6.8995474810     1.2434605833    -1.5380619386
   45      H      -7.5759514050    -1.6716637141    -1.1643361245
   46      H      -6.4354454495    -0.9906511456    -2.3665680672
   47      H      -5.3382803186    -2.4499568062    -0.2390455521
   48      H      -2.2477889305     3.1509266627     2.3611437319
   49      H      -0.7781604528     2.8466475617     1.3479827933
   50      H       0.8830852187    -2.3484375809     1.6318373174
   51      H       2.4429179556    -3.1271158817     2.1164791946
   52      H       2.0045225252    -3.0064038848     0.3741300826
   53      H       0.8641127635    -1.1572654267    -1.8114999586
   54      H       0.1835461334     0.3754129378    -2.4787556854
   55      H      -0.4397560966    -0.8355824302     0.3285481271
   56      H      -0.9362083003     0.8312653529    -0.1669442514
 ----------------------------------------------------------------

    9   -1510.2717457689      3.34E-09 Convergence criterion met
 Total energy in the final basis set = -1510.27174577
 Final energy is   -1510.27174576888
 **  OPTIMIZATION CONVERGED  **

                    Orbital Energies (a.u.)
 --------------------------------------------------------------

 Alpha MOs
 -- Occupied --
-18.944 -18.933 -18.933 -18.916 -18.889 -18.889 -18.887 -18.886
-18.878 -18.876 -10.106 -10.104 -10.100 -10.099 -10.071 -10.068
-10.065 -10.063 -10.061 -10.061 -10.060 -10.058 -10.045 -10.040
-10.040 -10.038 -10.022 -10.021 -10.021 -10.020  -1.020  -1.015
 -1.009  -1.007  -0.972  -0.970  -0.944  -0.940  -0.936  -0.935
 -0.766  -0.764  -0.728  -0.725  -0.713  -0.706  -0.696  -0.669
 -0.662  -0.615  -0.599  -0.580  -0.549  -0.547  -0.541  -0.538
 -0.514  -0.510  -0.483  -0.474  -0.465  -0.461  -0.455  -0.454
 -0.439  -0.431  -0.427  -0.421  -0.419  -0.414  -0.409  -0.398
 -0.395  -0.378  -0.376  -0.367  -0.363  -0.362  -0.358  -0.352
 -0.348  -0.342  -0.339  -0.334  -0.332  -0.331  -0.330  -0.312
 -0.311  -0.308  -0.306  -0.305  -0.293  -0.285  -0.283  -0.275
 -0.273  -0.264  -0.254  -0.252  -0.245  -0.236  -0.234  -0.189
 -0.180  -0.175  -0.167  -0.164  -0.159  -0.153  -0.150  -0.145
 -0.144

          Ground-State Mulliken Net Atomic Charges

     Atom                 Charge (a.u.)
  ----------------------------------------
      1 O                    -0.202133
      2 C                     0.207272
      3 C                    -0.077687
      4 C                    -0.079634
      5 C                     0.209927
      6 O                    -0.186914
      7 C                    -0.055327
      8 C                    -0.052276
      9 O                    -0.172592
     10 C                     0.208826
     11 C                    -0.078966
     12 C                    -0.077573
     13 C                     0.209233
     14 O                    -0.204407
     15 O                    -0.172729
     16 O                    -0.174002
     17 O                    -0.212718
     18 C                    -0.130378
     19 C                     0.025605
     20 C                    -0.143377
     21 C                    -0.144611
     22 C                     0.025098
     23 O                    -0.184924
     24 H                     0.085187
     25 H                     0.084931
     26 H                     0.085160
     27 H                     0.078422
     28 H                     0.072794
     29 H                     0.078537
     30 H                     0.072740
     31 H                     0.089396
     32 O                    -0.198575
     33 C                    -0.130224
     34 C                     0.026067
     35 C                    -0.145076
     36 C                    -0.143024
     37 C                     0.024743
     38 O                    -0.185089
     39 H                     0.086672
     40 H                     0.086250
     41 H                     0.092862
     42 H                     0.088539
     43 H                     0.078900
     44 H                     0.072990
     45 H                     0.078732
     46 H                     0.073656
     47 H                     0.086463
     48 H                     0.091602
     49 H                     0.092046
     50 H                     0.091035
     51 H                     0.091243
     52 H                     0.091227
     53 H                     0.099020
     54 H                     0.084927
     55 H                     0.085896
     56 H                     0.096240
  ----------------------------------------
  Sum of atomic charges =     0.000000

                    Cartesian Multipole Moments
 -----------------------------------------------------------------
    Charge (ESU x 10^10)
                 0.0000
    Dipole Moment (Debye)
         X      -1.1320      Y       3.9466      Z      -0.7108
       Tot       4.1668
    Quadrupole Moments (Debye-Ang)
        XX    -161.4249     XY       9.6848     YY    -157.7362
        XZ      20.3939     YZ       0.1111     ZZ    -163.2593

 Total job time:  60.28s(wall), 2865.35s(cpu)
        *  Thank you very much for using Q-Chem.  Have a nice day.  *
