 Q-Chem 5.0, Q-Chem, Inc., Pleasanton, CA (2017)
 Q-Chem 5.0.1 for Intel X86 EM64T Linux

User input:
--------------------------------------------------------------
$molecule
0  1
O -4.0255765174 1.3035904581 2.318266707
C -3.7180697358 1.3349801489 1.1079265346
C -4.6242877045 0.9019249734 -0.1024948003
C -4.2749924744 -0.5016807697 -0.7733727815
C -2.8999099583 -1.1013860909 -0.3194655605
O -1.8828000295 -0.6982902442 -1.2636913827
C -0.6932252853 -0.1887963421 -0.5386057228
C 0.4987044472 -0.1423297653 -1.5464683408
O 1.5872753119 0.6299415 -0.8970848051
C 2.8639315232 0.0532043581 -1.2025921572
C 3.9614277367 0.9116038251 -0.4904458911
C 4.5110031345 0.2183468226 0.8332764845
C 3.9483070296 -1.2359733808 1.0254869563
O 4.5689463527 -2.3138229802 0.9175532221
O -2.4830110351 1.8945549774 0.6290982304
O 2.5420643529 -1.1392687575 1.2917018949
O 3.0258925976 -0.9740065988 -1.896997124
C 1.9440283796 -2.493101653 1.3559720522
C 5.297840162 1.0299957421 -1.3404062572
C 6.1353668229 2.2368111776 -0.760004964
C 6.656368352 1.618285967 0.5909828633
C 6.0596797765 0.1582342513 0.5123291357
O 6.0810142223 -0.1581035005 -0.9353308488
H 3.5276690526 1.9011979594 -0.2632817949
H 4.2777335309 0.8243153484 1.7273802698
H 5.1455955725 1.0377775286 -2.4370173173
H 6.9682169905 2.4867428826 -1.436549347
H 5.5200996604 3.1380834904 -0.6083338802
H 7.7568909283 1.5849579025 0.6230504065
H 6.2938101484 2.1653474014 1.475917572
H 6.606574073 -0.6179375928 1.0816287558
O -2.6728119786 -1.751100893 0.7238634732
C -1.6879602122 2.3908747503 1.7800464783
C -6.083026174 0.5959442206 0.4416508994
C -7.0760538552 0.4636149207 -0.7800928866
C -6.7302351054 -0.9797082757 -1.3050978761
C -5.5385372066 -1.3661543361 -0.3445735247
O -5.950584762 -0.7871466533 0.9534146571
H -4.6046912623 1.7076016296 -0.8589704225
H -4.2318356596 -0.3797272931 -1.8704456518
H -1.4015540862 1.5650482818 2.4625383431
H -6.4090471434 1.2747773209 1.2531395313
H -8.121007358 0.5329158397 -0.4389897404
H -6.899547481 1.2434605833 -1.5380619386
H -7.575951405 -1.6716637141 -1.1643361245
H -6.4354454495 -0.9906511456 -2.3665680672
H -5.3382803186 -2.4499568062 -0.2390455521
H -2.2477889305 3.1509266627 2.3611437319
H -0.7781604528 2.8466475617 1.3479827933
H 0.8830852187 -2.3484375809 1.6318373174
H 2.4429179556 -3.1271158817 2.1164791946
H 2.0045225252 -3.0064038848 0.3741300826
H 0.8641127635 -1.1572654267 -1.8114999586
H 0.1835461334 0.3754129378 -2.4787556854
H -0.4397560966 -0.8355824302 0.3285481271
H -0.9362083003 0.8312653529 -0.1669442514
$end

$rem
JOBTYPE                   OPT
METHOD                    B3LYP
DFT_D                     d3_op
BASIS                     STO-3G
GEOM_OPT_MAX_CYCLES       100
GEOM_OPT_TOL_GRADIENT     300
GEOM_OPT_TOL_DISPLACEMENT 1200
GEOM_OPT_TOL_ENERGY       100
SYMMETRY                  False
THRESH                    12
SCF_CONVERGENCE           8
MAX_SUB_FILE_NUM          128
MEM_STATIC                400
MEM_TOTAL                 4000
$end
--------------------------------------------------------------

   16   -1510.2716521814      7.93E-09 Convergence criterion met
 Total energy in the final basis set = -1510.27165218
   14   -1510.2748263190      9.55E-09 Convergence criterion met
 Total energy in the final basis set = -1510.27482632
   14   -1510.2786660989      4.50E-09 Convergence criterion met
 Total energy in the final basis set = -1510.27866610
   14   -1510.2812012891      4.26E-09 Convergence criterion met
 Total energy in the final basis set = -1510.28120129
   13   -1510.2825551290      9.74E-09 Convergence criterion met
 Total energy in the final basis set = -1510.28255513
   14   -1510.2834730911      6.58E-09 Convergence criterion met
 Total energy in the final basis set = -1510.28347309
   13   -1510.2844158696      6.36E-09 Convergence criterion met
 Total energy in the final basis set = -1510.28441587
   14   -1510.2853519784      4.09E-09 Convergence criterion met
   11   -1510.2915396042      9.57E-09 Convergence criterion met
 Total energy in the final basis set = -1510.29153960
   10   -1510.2915453023      4.97E-09 Convergence criterion met
 Total energy in the final basis set = -1510.29154530
    9   -1510.2915488322      8.07E-09 Convergence criterion met
 Total energy in the final basis set = -1510.29154883
   11   -1510.2915561008      8.03E-09 Convergence criterion met
 Total energy in the final basis set = -1510.29155610
   10   -1510.2915594127      7.20E-09 Convergence criterion met
 Total energy in the final basis set = -1510.29155941
   11   -1510.2915646367      6.63E-09 Convergence criterion met
 Total energy in the final basis set = -1510.29156464

             Standard Nuclear Orientation (Angstroms)
    I     Atom           X                Y                Z
 ----------------------------------------------------------------
    1      O      -4.7321954455     1.7292076406     2.3056805486
    2      C      -4.4313075134     1.6956137123     1.0949496583
    3      C      -4.9138031564     0.6661648977     0.0127685831
    4      C      -3.7236661974     0.0368779099    -0.8286557358
    5      C      -2.3177517690     0.5615719516    -0.3838699248
    6      O      -1.7203121117     1.2505206894    -1.4851402444
    7      C      -0.3771763300     1.7658489145    -1.1168095467
    8      C       0.7024270701     1.1054464455    -2.0426408901
    9      O       2.0434850628     1.3973689483    -1.4812999510
   10      C       2.7677432740     0.1726849534    -1.2721268380
   11      C       4.1271087179     0.5271578032    -0.5837230134
   12      C       4.2724810826    -0.0893263751     0.8725604822
   13      C       3.0610984866    -0.9894606149     1.3117714677
   14      O       3.1192912775    -2.1506012385     1.7692301625
   15      O      -3.5560180653     2.6321816850     0.4507089813
   16      O       1.8469869102    -0.2603155415     1.1122898812
   17      O       2.3582349707    -0.9529641558    -1.6323427714
   18      C       0.6805225317    -1.1255317281     1.4167216531
   19      C       5.3584557535    -0.1652915812    -1.3162757299
   20      C       6.6833008493     0.5481082115    -0.8365360118
   21      C       6.8329127489    -0.0358195486     0.6179097513
   22      C       5.5698741254    -0.9788573665     0.6989812316
   23      O       5.4321318991    -1.4996610475    -0.6821817571
   24      H       4.2247772282     1.6266421363    -0.5645809241
   25      H       4.4104979444     0.7097056796     1.6241829238
   26      H       5.2437777513    -0.2635145244    -2.4132484369
   27      H       7.5296645070     0.2556687538    -1.4782605620
   28      H       6.5933879345     1.6461056476    -0.8496861736
   29      H       7.7594271262    -0.6221103577     0.7241455789
   30      H       6.8187400683     0.7469026496     1.3933541399
   31      H       5.6305978299    -1.8159007728     1.4215243892
   32      O      -1.7709071417     0.3915828751     0.7318013147
   33      C      -2.9482121407     3.5378913065     1.4513929040
   34      C      -5.5291806790    -0.6266043230     0.6917765142
   35      C      -6.3362497388    -1.4296694150    -0.4017985654
   36      C      -5.1627990908    -2.0499437473    -1.2482508212
   37      C      -3.9011337282    -1.5035159135    -0.4707129531
   38      O      -4.3415052003    -1.4766757204     0.9414460403
   39      H      -5.6410396206     1.1666728389    -0.6529640693
   40      H      -3.8414408602     0.2299489139    -1.9090643116
   41      H      -2.2954875772     2.9764045085     2.1511982900
   42      H      -6.0642965440    -0.4211144033     1.6394101771
   43      H      -6.9506534412    -2.2120983494     0.0712066747
   44      H      -6.9923868008    -0.7755809279    -0.9980351762
   45      H      -5.1826868575    -3.1510400197    -1.2207891670
   46      H      -5.1763112571    -1.7223620457    -2.3001855999
   47      H      -2.9801793876    -2.1089886664    -0.5780975479
   48      H      -3.7193036512     4.0769526303     2.0380208638
   49      H      -2.3400476866     4.2617973013     0.8786354722
   50      H      -0.2275427862    -0.5221079950     1.1928601060
   51      H       0.6778741705    -1.4326367655     2.4816395507
   52      H       0.6948328246    -2.0386568366     0.7883956904
   53      H       0.5716868731     0.0011352303    -2.0837445392
   54      H       0.6410341607     1.5183988809    -3.0715226455
   55      H      -0.1727317286     1.5189252831    -0.0528420991
   56      H      -0.3852751493     2.8677264558    -1.2476546682
 ----------------------------------------------------------------

    9   -1510.2915647713      3.22E-09 Convergence criterion met
 Total energy in the final basis set = -1510.29156477
 Final energy is   -1510.29156477130
 **  OPTIMIZATION CONVERGED  **

                    Orbital Energies (a.u.)
 --------------------------------------------------------------

 Alpha MOs
 -- Occupied --
-18.942 -18.941 -18.929 -18.925 -18.891 -18.885 -18.884 -18.882
-18.871 -18.870 -10.111 -10.106 -10.098 -10.092 -10.070 -10.069
-10.066 -10.064 -10.061 -10.058 -10.054 -10.044 -10.043 -10.038
-10.036 -10.034 -10.023 -10.022 -10.019 -10.017  -1.023  -1.014
 -1.010  -1.001  -0.974  -0.967  -0.945  -0.943  -0.933  -0.928
 -0.768  -0.761  -0.729  -0.723  -0.714  -0.705  -0.696  -0.666
 -0.648  -0.619  -0.598  -0.579  -0.550  -0.542  -0.541  -0.535
 -0.515  -0.506  -0.484  -0.473  -0.467  -0.459  -0.457  -0.448
 -0.439  -0.432  -0.428  -0.419  -0.417  -0.408  -0.401  -0.400
 -0.396  -0.382  -0.380  -0.364  -0.363  -0.359  -0.354  -0.353
 -0.348  -0.337  -0.335  -0.332  -0.329  -0.326  -0.323  -0.314
 -0.309  -0.307  -0.304  -0.300  -0.290  -0.289  -0.281  -0.277
 -0.269  -0.259  -0.255  -0.246  -0.243  -0.237  -0.231  -0.188
 -0.182  -0.170  -0.168  -0.166  -0.158  -0.156  -0.147  -0.146
 -0.141

          Ground-State Mulliken Net Atomic Charges

     Atom                 Charge (a.u.)
  ----------------------------------------
      1 O                    -0.204477
      2 C                     0.214188
      3 C                    -0.078280
      4 C                    -0.078248
      5 C                     0.221497
      6 O                    -0.168115
      7 C                    -0.055423
      8 C                    -0.055988
      9 O                    -0.173904
     10 C                     0.214639
     11 C                    -0.079153
     12 C                    -0.078556
     13 C                     0.211603
     14 O                    -0.209493
     15 O                    -0.172428
     16 O                    -0.177020
     17 O                    -0.216416
     18 C                    -0.145206
     19 C                     0.025701
     20 C                    -0.143743
     21 C                    -0.144325
     22 C                     0.024138
     23 O                    -0.186752
     24 H                     0.085606
     25 H                     0.084023
     26 H                     0.082963
     27 H                     0.077753
     28 H                     0.072914
     29 H                     0.078167
     30 H                     0.072822
     31 H                     0.091445
     32 O                    -0.221966
     33 C                    -0.129127
     34 C                     0.024500
     35 C                    -0.143897
     36 C                    -0.143755
     37 C                     0.025840
     38 O                    -0.185934
     39 H                     0.086313
     40 H                     0.088140
     41 H                     0.093623
     42 H                     0.091525
     43 H                     0.079429
     44 H                     0.073467
     45 H                     0.079537
     46 H                     0.074124
     47 H                     0.084550
     48 H                     0.091860
     49 H                     0.090302
     50 H                     0.109776
     51 H                     0.083602
     52 H                     0.084650
     53 H                     0.101079
     54 H                     0.082799
     55 H                     0.104118
     56 H                     0.085512
  ----------------------------------------
  Sum of atomic charges =     0.000000

                    Cartesian Multipole Moments
 -----------------------------------------------------------------
    Charge (ESU x 10^10)
                 0.0000
    Dipole Moment (Debye)
         X      -1.1422      Y       3.5444      Z      -1.9646
       Tot       4.2104
    Quadrupole Moments (Debye-Ang)
        XX    -143.2574     XY      11.3759     YY    -160.9953
        XZ      11.2034     YZ       2.1614     ZZ    -163.1439

 Total job time:  94.46s(wall), 4500.34s(cpu)
        *  Thank you very much for using Q-Chem.  Have a nice day.  *
