 Q-Chem 5.0, Q-Chem, Inc., Pleasanton, CA (2017)
 Q-Chem 5.0.1 for Intel X86 EM64T Linux

User input:
--------------------------------------------------------------
$molecule
0  1
O -5.8886870189 -1.5684189624 1.1402297361
C -4.7936621747 -1.0796400183 0.7873683841
C -4.2466487553 0.3401729529 1.1708689895
C -2.9813743061 0.8568707202 0.3834202263
C -2.8779800619 0.2506235737 -1.0771511586
O -1.5967634692 0.2909529484 -1.7369829411
C -0.4260586436 0.0003747756 -0.8694979538
C 0.3837311966 -1.0933913783 -1.6660582822
O 1.764025501 -1.46585743 -1.2572215126
C 2.3409677554 -0.7546688101 -0.1574966502
C 3.7771819575 -1.3682874914 0.0523397141
C 4.9837176393 -0.5031783001 -0.5099329481
C 4.6458468755 0.7955060222 -1.327615892
O 5.4641650644 1.6747743653 -1.6739855453
O -3.7403347102 -1.8477940391 0.188947681
O 3.2687940485 0.8053627745 -1.708245113
O 1.7733455533 0.0681262397 0.5907661975
C 2.9355902185 2.0342466198 -2.461898524
C 4.134614333 -1.3839631651 1.6006057324
C 5.3719962752 -2.3393822242 1.827161171
C 6.5506671853 -1.4440817608 1.2917040129
C 5.7653312027 -0.1554089993 0.8308049744
O 4.6856450733 -0.0291072862 1.8353904569
H 3.7853302352 -2.3798592453 -0.3895592845
H 5.6179938192 -1.1274454382 -1.1674176046
H 3.2669976902 -1.5651224506 2.2639765499
H 5.4919506801 -2.5680596832 2.8980081432
H 5.26987829 -3.2861449757 1.2727663169
H 7.2629437752 -1.1936345945 2.0938834235
H 7.1024320775 -1.9142022573 0.4620045749
H 6.363315481 0.7750877615 0.7739140162
O -3.8750101087 -0.0107313719 -1.7845431308
C -4.2174438505 -3.2128378366 -0.1243207653
C -5.2621263335 1.5511368589 0.996619225
C -4.8942284011 2.6168020122 2.0998446338
C -3.5008706186 3.1171846705 1.561848598
C -3.4184059253 2.3769555788 0.1662630679
O -4.8319775809 2.2248570966 -0.2509245628
H -3.9813556135 0.2552801509 2.242584819
H -2.055597824 0.7616941241 0.9705590994
H -5.0083178284 -3.1964875282 -0.9018695522
H -6.3280929717 1.2563091468 0.9413841034
H -5.6367474748 3.4310345505 2.1067563292
H -4.8346581007 2.1804201668 3.1097967784
H -3.4856981791 4.2095660642 1.422069187
H -2.6657748023 2.8359501209 2.2236597092
H -2.8399281875 2.9094402266 -0.6138288346
H -4.6171381894 -3.722793281 0.7759905316
H -3.3382187713 -3.7635254072 -0.506398564
H 1.8550325649 1.9670914563 -2.6867294976
H 3.5098742983 2.0972518224 -3.4088061641
H 3.1364295478 2.9459166242 -1.863211288
H -0.2089463582 -2.034270278 -1.6635953452
H 0.4517516035 -0.7483329309 -2.7216617427
H -0.7073173496 -0.3853482891 0.1278811131
H 0.1733474083 0.9246624023 -0.7378520903
$end

$rem
JOBTYPE                   OPT
METHOD                    B3LYP
DFT_D                     d3_op
BASIS                     STO-3G
GEOM_OPT_MAX_CYCLES       100
GEOM_OPT_TOL_GRADIENT     300
GEOM_OPT_TOL_DISPLACEMENT 1200
GEOM_OPT_TOL_ENERGY       100
SYMMETRY                  False
THRESH                    12
SCF_CONVERGENCE           8
MAX_SUB_FILE_NUM          128
MEM_STATIC                400
MEM_TOTAL                 4000
$end
--------------------------------------------------------------

   16   -1510.2521404816      5.50E-09 Convergence criterion met
 Total energy in the final basis set = -1510.25214048
   13   -1510.2547429727      6.28E-09 Convergence criterion met
 Total energy in the final basis set = -1510.25474297
   13   -1510.2567777068      9.35E-09 Convergence criterion met
 Total energy in the final basis set = -1510.25677771
   13   -1510.2585692143      8.32E-09 Convergence criterion met
 Total energy in the final basis set = -1510.25856921
   13   -1510.2602366864      2.99E-09 Convergence criterion met
 Total energy in the final basis set = -1510.26023669
   13   -1510.2616555649      7.50E-09 Convergence criterion met
 Total energy in the final basis set = -1510.26165556
   13   -1510.2629724059      9.77E-09 Convergence criterion met
 Total energy in the final basis set = -1510.26297241
   13   -1510.2642225625      9.08E-09 Convergence criterion met
   11   -1510.2876015143      8.66E-09 Convergence criterion met
 Total energy in the final basis set = -1510.28760151
   12   -1510.2875974264      3.69E-09 Convergence criterion met
 Total energy in the final basis set = -1510.28759743
   11   -1510.2875973869      4.93E-09 Convergence criterion met
 Total energy in the final basis set = -1510.28759739
   11   -1510.2875951835      7.46E-09 Convergence criterion met
 Total energy in the final basis set = -1510.28759518
   11   -1510.2875995908      3.99E-09 Convergence criterion met
 Total energy in the final basis set = -1510.28759959
   10   -1510.2875963685      7.87E-09 Convergence criterion met
 Total energy in the final basis set = -1510.28759637

             Standard Nuclear Orientation (Angstroms)
    I     Atom           X                Y                Z
 ----------------------------------------------------------------
    1      O       3.9719086946    -1.2057193419    -1.0021416499
    2      C       3.0069950126    -0.4367094150    -0.8273308953
    3      C       3.0061690127     1.0838005968    -0.4586407802
    4      C       3.0481662442     1.3607215448     1.1111267261
    5      C       3.2077178650     0.0711459796     2.0175636244
    6      O       2.0427091923    -0.6764230125     2.4064579595
    7      C       0.7680996905    -0.2604096261     1.7696587538
    8      C      -0.2951169608    -1.3092341500     2.2547996729
    9      O      -1.6692111956    -0.8620988468     1.9152937385
   10      C      -2.0564973219    -1.3084992229     0.6138621292
   11      C      -3.5287361428    -0.8447484069     0.3608800791
   12      C      -3.8265610310    -0.4901660991    -1.1546475689
   13      C      -2.5671620734    -0.5436632014    -2.0920898117
   14      O      -2.3817051027    -1.3000678918    -3.0694807829
   15      O       1.6277442496    -0.8472159669    -0.9208076385
   16      O      -1.6779541687     0.4998507869    -1.6832253482
   17      O      -1.3441391081    -1.9993494380    -0.1493508828
   18      C      -0.4570023565     0.5055736627    -2.5259882628
   19      C      -4.5362823103    -2.0611539523     0.5732492086
   20      C      -6.0089349398    -1.4882031818     0.6202370175
   21      C      -6.2755148469    -1.2005620701    -0.9045686793
   22      C      -4.8868524061    -1.6052157507    -1.5331923469
   23      O      -4.4712758150    -2.7739256540    -0.7205386467
   24      H      -3.7539265371    -0.0033693559     1.0389487683
   25      H      -4.2616659325     0.5232645289    -1.2280861437
   26      H      -4.2693256685    -2.7396123815     1.4069919036
   27      H      -6.7031988882    -2.2452258513     1.0181883327
   28      H      -6.0788409669    -0.5819839097     1.2429017220
   29      H      -7.0789748378    -1.8418116854    -1.3005892814
   30      H      -6.5331012297    -0.1476900751    -1.1015635100
   31      H      -4.8963562750    -1.8687243790    -2.6086095249
   32      O       4.3050355878    -0.3223865396     2.4701717924
   33      C       1.4851843840    -2.3097384171    -1.1224835404
   34      C       4.3353658451     1.8120843281    -0.9308737625
   35      C       4.0673007965     3.3680253982    -0.9261359644
   36      C       4.0707189386     3.6674945478     0.6187034330
   37      C       4.3705914358     2.2339011132     1.2099823550
   38      O       5.2630983089     1.6149909165     0.2039502508
   39      H       2.1064557935     1.5425933219    -0.9057559458
   40      H       2.1607821070     1.9355632668     1.4270095416
   41      H       2.1711898755    -2.8689920251    -0.4568273525
   42      H       4.7718864302     1.4038567450    -1.8630117882
   43      H       4.8830240972     3.8983094875    -1.4428178549
   44      H       3.1126708449     3.6285515341    -1.4106244960
   45      H       4.8718997487     4.3720554927     0.8924017691
   46      H       3.1092506809     4.0708856833     0.9749803391
   47      H       4.8477973308     2.2164051777     2.2085882837
   48      H       1.6974903046    -2.5839885937    -2.1750621674
   49      H       0.4253252683    -2.5212138112    -0.8676278687
   50      H      -0.2265673969     1.5593371232    -2.7721852066
   51      H      -0.6379690776    -0.0735988523    -3.4528106278
   52      H       0.3871331383     0.0487021706    -1.9569304703
   53      H      -0.0816292313    -2.2984327719     1.7989916581
   54      H      -0.2644719658    -1.3947103438     3.3600811285
   55      H       0.8621127230    -0.3034833500     0.6573816711
   56      H       0.4560080310     0.7551138381     2.0971160185
 ----------------------------------------------------------------

   10   -1510.2875956964      3.76E-09 Convergence criterion met
 Total energy in the final basis set = -1510.28759570
 Final energy is   -1510.28759569640
 **  OPTIMIZATION CONVERGED  **

                    Orbital Energies (a.u.)
 --------------------------------------------------------------

 Alpha MOs
 -- Occupied --
-18.956 -18.948 -18.931 -18.925 -18.900 -18.893 -18.891 -18.890
-18.875 -18.872 -10.115 -10.114 -10.100 -10.097 -10.079 -10.066
-10.066 -10.065 -10.063 -10.061 -10.060 -10.049 -10.044 -10.044
-10.041 -10.039 -10.025 -10.025 -10.024 -10.023  -1.027  -1.024
 -1.005  -1.004  -0.975  -0.974  -0.954  -0.950  -0.936  -0.931
 -0.770  -0.767  -0.730  -0.728  -0.716  -0.710  -0.702  -0.667
 -0.655  -0.616  -0.605  -0.586  -0.555  -0.548  -0.544  -0.540
 -0.518  -0.513  -0.488  -0.485  -0.467  -0.463  -0.461  -0.458
 -0.443  -0.435  -0.433  -0.427  -0.418  -0.413  -0.409  -0.402
 -0.394  -0.390  -0.383  -0.374  -0.367  -0.361  -0.358  -0.352
 -0.348  -0.346  -0.339  -0.336  -0.336  -0.329  -0.321  -0.317
 -0.314  -0.312  -0.307  -0.305  -0.299  -0.290  -0.286  -0.284
 -0.277  -0.264  -0.260  -0.245  -0.245  -0.238  -0.238  -0.198
 -0.190  -0.175  -0.169  -0.166  -0.164  -0.153  -0.148  -0.148
 -0.147

          Ground-State Mulliken Net Atomic Charges

     Atom                 Charge (a.u.)
  ----------------------------------------
      1 O                    -0.190642
      2 C                     0.212088
      3 C                    -0.081596
      4 C                    -0.083650
      5 C                     0.202223
      6 O                    -0.174508
      7 C                    -0.067335
      8 C                    -0.049050
      9 O                    -0.169491
     10 C                     0.218131
     11 C                    -0.077832
     12 C                    -0.079338
     13 C                     0.213406
     14 O                    -0.213280
     15 O                    -0.173774
     16 O                    -0.180566
     17 O                    -0.215079
     18 C                    -0.153643
     19 C                     0.025795
     20 C                    -0.143780
     21 C                    -0.143717
     22 C                     0.024677
     23 O                    -0.186856
     24 H                     0.087728
     25 H                     0.084327
     26 H                     0.082844
     27 H                     0.079013
     28 H                     0.073990
     29 H                     0.078991
     30 H                     0.073561
     31 H                     0.091384
     32 O                    -0.195622
     33 C                    -0.140512
     34 C                     0.026238
     35 C                    -0.143764
     36 C                    -0.144784
     37 C                     0.026966
     38 O                    -0.182071
     39 H                     0.085506
     40 H                     0.079826
     41 H                     0.093335
     42 H                     0.087447
     43 H                     0.079867
     44 H                     0.072662
     45 H                     0.079803
     46 H                     0.072402
     47 H                     0.091004
     48 H                     0.088974
     49 H                     0.119449
     50 H                     0.074470
     51 H                     0.093166
     52 H                     0.101129
     53 H                     0.095328
     54 H                     0.093893
     55 H                     0.106104
     56 H                     0.075161
  ----------------------------------------
  Sum of atomic charges =     0.000000

                    Cartesian Multipole Moments
 -----------------------------------------------------------------
    Charge (ESU x 10^10)
                 0.0000
    Dipole Moment (Debye)
         X      -3.9106      Y       3.7998      Z       0.1721
       Tot       5.4554
    Quadrupole Moments (Debye-Ang)
        XX    -173.1081     XY       5.1682     YY    -159.1516
        XZ     -11.8090     YZ      -3.7451     ZZ    -163.6803

 Total job time:  149.07s(wall), 7114.03s(cpu)
        *  Thank you very much for using Q-Chem.  Have a nice day.  *
