 Q-Chem 5.0, Q-Chem, Inc., Pleasanton, CA (2017)
 Q-Chem 5.0.1 for Intel X86 EM64T Linux

User input:
--------------------------------------------------------------
$molecule
0  1
O -3.94934 -3.66094 2.70899
C -3.26408 -4.56952 2.26188
C -3.36658 -6.02376 2.66595
C -2.23994 -6.96245 2.204
C -1.04708 -6.30941 1.54164
O -0.35216 -7.23695 0.81901
C -1.1986 -8.15591 0.12023
C -0.77705 -8.25076 -1.34245
O -1.43652 -9.36123 -1.97082
C -2.22448 -10.1076 -1.15768
C -2.90088 -11.24879 -1.87935
C -2.26465 -12.62753 -1.65004
C -1.29977 -12.72457 -0.48545
O -0.83785 -13.76176 -0.03221
O -2.57644 -4.27177 1.12576
O -0.82746 -11.62326 0.16183
O -2.98363 -9.69477 -0.2851
C 0.07559 -11.64918 1.21366
C -4.37448 -11.56548 -1.49666
C -5.06599 -12.31879 -2.63388
C -4.39504 -13.66981 -2.52718
C -3.52063 -13.44475 -1.29094
O -4.26676 -12.55088 -0.5016
H -2.89742 -10.98873 -2.96325
H -1.73665 -13.03072 -2.54189
H -4.97808 -10.66781 -1.23977
H -6.13729 -12.43383 -2.35166
H -5.00127 -11.83258 -3.63097
H -5.17572 -14.43362 -2.31352
H -3.79553 -13.97584 -3.41177
H -3.27404 -14.42063 -0.81713
O -0.45522 -5.35486 2.02742
C -2.47431 -3.01505 0.56368
C -3.22304 -6.13451 4.19928
C -3.79303 -7.46705 4.69075
C -2.68839 -8.4076 4.27172
C -1.72648 -7.4236 3.59737
O -1.84177 -6.27446 4.39641
H -4.38414 -6.35831 2.36306
H -2.73501 -7.87475 1.82393
H -1.99428 -2.31477 1.28014
H -3.71037 -5.29603 4.74408
H -3.84504 -7.45729 5.8027
H -4.79684 -7.69363 4.27096
H -2.19381 -8.79844 5.18966
H -3.0004 -9.26122 3.63217
H -0.71187 -7.88072 3.55236
H -3.48034 -2.6367 0.28296
H -1.84847 -3.07618 -0.35002
H 0.30749 -10.61958 1.54719
H 1.02478 -12.12756 0.8903
H -0.35356 -12.20881 2.07209
H -0.98543 -7.30463 -1.89001
H 0.31534 -8.4464 -1.39118
H -2.19944 -7.69036 -0.0765
H -1.05682 -9.09621 0.68848
$end

$opt
CONSTRAINT
tors           1           2           3           4    -168.086
tors           3           4           5           6    -160.783
tors           4           5           6           7     +39.905
tors           5           6           7           8    +129.995
tors           6           7           8           9    +168.212
tors           7           8           9          10      -2.643
tors           8           9          10          11    +179.361
tors           9          10          11          12    +102.355
tors          11          12          13          14    +169.433
ENDCONSTRAINT
$end

$rem
JOBTYPE                   OPT
METHOD                    B3LYP
DFT_D                     d3_op
BASIS                     STO-3G
GEOM_OPT_MAX_CYCLES       100
GEOM_OPT_TOL_GRADIENT     300
GEOM_OPT_TOL_DISPLACEMENT 1200
GEOM_OPT_TOL_ENERGY       100
SYMMETRY                  False
THRESH                    12
SCF_CONVERGENCE           8
MAX_SUB_FILE_NUM          128
MEM_STATIC                400
MEM_TOTAL                 4000
$end
--------------------------------------------------------------

   15   -1510.0476195293      9.70E-09 Convergence criterion met
 Total energy in the final basis set = -1510.04761953
   15   -1510.1345639330      2.67E-09 Convergence criterion met
 Total energy in the final basis set = -1510.13456393
   14   -1510.1857474114      8.35E-09 Convergence criterion met
 Total energy in the final basis set = -1510.18574741
   14   -1510.2172264445      3.69E-09 Convergence criterion met
 Total energy in the final basis set = -1510.21722644
   14   -1510.2331827699      3.86E-09 Convergence criterion met
 Total energy in the final basis set = -1510.23318277
   13   -1510.2410703715      8.14E-09 Convergence criterion met
 Total energy in the final basis set = -1510.24107037
   13   -1510.2451415553      4.19E-09 Convergence criterion met
 Total energy in the final basis set = -1510.24514156
   13   -1510.2476870835      4.05E-09 Convergence criterion met
   11   -1510.2521428790      3.26E-09 Convergence criterion met
 Total energy in the final basis set = -1510.25214288
    9   -1510.2521510357      7.37E-09 Convergence criterion met
 Total energy in the final basis set = -1510.25215104
   10   -1510.2521539348      6.15E-09 Convergence criterion met
 Total energy in the final basis set = -1510.25215393
    9   -1510.2521551674      4.93E-09 Convergence criterion met
 Total energy in the final basis set = -1510.25215517
    9   -1510.2521562069      4.83E-09 Convergence criterion met
 Total energy in the final basis set = -1510.25215621
    9   -1510.2521572267      3.41E-09 Convergence criterion met
 Total energy in the final basis set = -1510.25215723

             Standard Nuclear Orientation (Angstroms)
    I     Atom           X                Y                Z
 ----------------------------------------------------------------
    1      O      -5.8886870189    -1.5684189624     1.1402297361
    2      C      -4.7936621747    -1.0796400183     0.7873683841
    3      C      -4.2466487553     0.3401729529     1.1708689895
    4      C      -2.9813743061     0.8568707202     0.3834202263
    5      C      -2.8779800619     0.2506235737    -1.0771511586
    6      O      -1.5967634692     0.2909529484    -1.7369829411
    7      C      -0.4260586436     0.0003747756    -0.8694979538
    8      C       0.3837311966    -1.0933913783    -1.6660582822
    9      O       1.7640255010    -1.4658574300    -1.2572215126
   10      C       2.3409677554    -0.7546688101    -0.1574966502
   11      C       3.7771819575    -1.3682874914     0.0523397141
   12      C       4.9837176393    -0.5031783001    -0.5099329481
   13      C       4.6458468755     0.7955060222    -1.3276158920
   14      O       5.4641650644     1.6747743653    -1.6739855453
   15      O      -3.7403347102    -1.8477940391     0.1889476810
   16      O       3.2687940485     0.8053627745    -1.7082451130
   17      O       1.7733455533     0.0681262397     0.5907661975
   18      C       2.9355902185     2.0342466198    -2.4618985240
   19      C       4.1346143330    -1.3839631651     1.6006057324
   20      C       5.3719962752    -2.3393822242     1.8271611710
   21      C       6.5506671853    -1.4440817608     1.2917040129
   22      C       5.7653312027    -0.1554089993     0.8308049744
   23      O       4.6856450733    -0.0291072862     1.8353904569
   24      H       3.7853302352    -2.3798592453    -0.3895592845
   25      H       5.6179938192    -1.1274454382    -1.1674176046
   26      H       3.2669976902    -1.5651224506     2.2639765499
   27      H       5.4919506801    -2.5680596832     2.8980081432
   28      H       5.2698782900    -3.2861449757     1.2727663169
   29      H       7.2629437752    -1.1936345945     2.0938834235
   30      H       7.1024320775    -1.9142022573     0.4620045749
   31      H       6.3633154810     0.7750877615     0.7739140162
   32      O      -3.8750101087    -0.0107313719    -1.7845431308
   33      C      -4.2174438505    -3.2128378366    -0.1243207653
   34      C      -5.2621263335     1.5511368589     0.9966192250
   35      C      -4.8942284011     2.6168020122     2.0998446338
   36      C      -3.5008706186     3.1171846705     1.5618485980
   37      C      -3.4184059253     2.3769555788     0.1662630679
   38      O      -4.8319775809     2.2248570966    -0.2509245628
   39      H      -3.9813556135     0.2552801509     2.2425848190
   40      H      -2.0555978240     0.7616941241     0.9705590994
   41      H      -5.0083178284    -3.1964875282    -0.9018695522
   42      H      -6.3280929717     1.2563091468     0.9413841034
   43      H      -5.6367474748     3.4310345505     2.1067563292
   44      H      -4.8346581007     2.1804201668     3.1097967784
   45      H      -3.4856981791     4.2095660642     1.4220691870
   46      H      -2.6657748023     2.8359501209     2.2236597092
   47      H      -2.8399281875     2.9094402266    -0.6138288346
   48      H      -4.6171381894    -3.7227932810     0.7759905316
   49      H      -3.3382187713    -3.7635254072    -0.5063985640
   50      H       1.8550325649     1.9670914563    -2.6867294976
   51      H       3.5098742983     2.0972518224    -3.4088061641
   52      H       3.1364295478     2.9459166242    -1.8632112880
   53      H      -0.2089463582    -2.0342702780    -1.6635953452
   54      H       0.4517516035    -0.7483329309    -2.7216617427
   55      H      -0.7073173496    -0.3853482891     0.1278811131
   56      H       0.1733474083     0.9246624023    -0.7378520903
 ----------------------------------------------------------------

    9   -1510.2521581913      2.86E-09 Convergence criterion met
 Total energy in the final basis set = -1510.25215819
 Final energy is   -1510.25215819131
 **  OPTIMIZATION CONVERGED  **

                    Orbital Energies (a.u.)
 --------------------------------------------------------------

 Alpha MOs
 -- Occupied --
-18.948 -18.934 -18.930 -18.919 -18.890 -18.888 -18.881 -18.873
-18.871 -18.867 -10.108 -10.104 -10.100 -10.096 -10.073 -10.073
-10.072 -10.064 -10.062 -10.061 -10.061 -10.059 -10.043 -10.038
-10.037 -10.037 -10.023 -10.022 -10.022 -10.020  -1.022  -1.012
 -1.005  -0.998  -0.973  -0.970  -0.944  -0.937  -0.935  -0.929
 -0.766  -0.763  -0.727  -0.722  -0.714  -0.705  -0.699  -0.670
 -0.661  -0.617  -0.601  -0.590  -0.548  -0.546  -0.540  -0.538
 -0.516  -0.511  -0.486  -0.479  -0.462  -0.459  -0.457  -0.450
 -0.439  -0.433  -0.430  -0.418  -0.415  -0.412  -0.409  -0.401
 -0.391  -0.388  -0.374  -0.373  -0.369  -0.357  -0.353  -0.349
 -0.347  -0.340  -0.334  -0.332  -0.330  -0.328  -0.316  -0.315
 -0.309  -0.308  -0.307  -0.302  -0.299  -0.297  -0.291  -0.276
 -0.272  -0.256  -0.249  -0.247  -0.237  -0.237  -0.233  -0.188
 -0.177  -0.170  -0.165  -0.160  -0.154  -0.148  -0.148  -0.145
 -0.138

          Ground-State Mulliken Net Atomic Charges

     Atom                 Charge (a.u.)
  ----------------------------------------
      1 O                    -0.213850
      2 C                     0.213706
      3 C                    -0.079123
      4 C                    -0.082804
      5 C                     0.216294
      6 O                    -0.181797
      7 C                    -0.048614
      8 C                    -0.049305
      9 O                    -0.173708
     10 C                     0.222201
     11 C                    -0.080094
     12 C                    -0.078695
     13 C                     0.212440
     14 O                    -0.212495
     15 O                    -0.172742
     16 O                    -0.167476
     17 O                    -0.224957
     18 C                    -0.126043
     19 C                     0.025680
     20 C                    -0.144601
     21 C                    -0.143383
     22 C                     0.024706
     23 O                    -0.187749
     24 H                     0.085453
     25 H                     0.086137
     26 H                     0.084404
     27 H                     0.078204
     28 H                     0.073492
     29 H                     0.078818
     30 H                     0.073903
     31 H                     0.088189
     32 O                    -0.197141
     33 C                    -0.127502
     34 C                     0.026052
     35 C                    -0.141710
     36 C                    -0.145482
     37 C                     0.024201
     38 O                    -0.185642
     39 H                     0.083341
     40 H                     0.081452
     41 H                     0.092828
     42 H                     0.090374
     43 H                     0.078778
     44 H                     0.073714
     45 H                     0.078757
     46 H                     0.073745
     47 H                     0.082730
     48 H                     0.089838
     49 H                     0.088878
     50 H                     0.093193
     51 H                     0.092505
     52 H                     0.093337
     53 H                     0.084957
     54 H                     0.088785
     55 H                     0.089841
     56 H                     0.093978
  ----------------------------------------
  Sum of atomic charges =    -0.000000

                    Cartesian Multipole Moments
 -----------------------------------------------------------------
    Charge (ESU x 10^10)
                 0.0000
    Dipole Moment (Debye)
         X       2.7314      Y      -1.5266      Z       1.3762
       Tot       3.4183
    Quadrupole Moments (Debye-Ang)
        XX    -177.0954     XY      -9.8755     YY    -150.7139
        XZ      -9.7200     YZ       0.6253     ZZ    -162.0181

 Total job time:  65.74s(wall), 3128.32s(cpu)
        *  Thank you very much for using Q-Chem.  Have a nice day.  *
