 Q-Chem 5.0, Q-Chem, Inc., Pleasanton, CA (2017)
 Q-Chem 5.0.1 for Intel X86 EM64T Linux

User input:
--------------------------------------------------------------
$molecule
0  1
O -5.4025671224 1.8920226053 0.9372944726
C -5.6328837299 1.1971188192 -0.0747377453
C -5.6289140531 -0.3731286135 -0.1842995904
C -4.1859225838 -1.0055365694 -0.3536694061
C -3.057324124 0.057908218 -0.5725928907
O -1.796708634 -0.6170047538 -0.5853579106
C -0.7083760355 0.3333192055 -0.9292830834
C 0.6409774985 -0.3600044296 -0.5383247373
O 1.7485151979 0.4290506753 -1.125084067
C 2.8722748927 0.4802664387 -0.1963036344
C 4.10485942 -0.2425790501 -0.838110908
C 5.5446712186 0.3134177194 -0.4706919219
C 5.5653989448 1.3423433645 0.7156174023
O 5.37460955 1.1226918395 1.9298697062
O -6.0210232037 1.7229054059 -1.3523776751
O 5.8173711565 2.6429087634 0.1646473005
O 2.783745994 0.9877338944 0.9397069302
C 5.7844234986 3.6590991622 1.2418947423
C 4.2265073497 -1.7624880188 -0.3603392901
C 5.0204876613 -2.5430384417 -1.4789534244
C 6.4698782563 -1.9673269746 -1.2668423109
C 6.2536077807 -1.0329603719 -0.0107372754
O 5.1852795898 -1.7108174113 0.7618565988
H 3.9522070796 -0.2074339222 -1.9315929213
H 6.027893369 0.7765526372 -1.3486610007
H 3.2742968927 -2.2287685514 -0.0409971625
H 4.9840540652 -3.627248072 -1.285675692
H 4.6250995347 -2.3483861783 -2.4885512712
H 7.1941463329 -2.7643653696 -1.0361677969
H 6.8328741783 -1.4028760135 -2.1406253313
H 7.1477423807 -0.8828706202 0.6247053573
O -3.1968952723 1.2870965559 -0.7600119384
C -5.9476426525 3.2005131614 -1.3262149167
C -6.0599233238 -1.0193534658 1.2000268217
C -6.3540448263 -2.5562082689 0.9792535642
C -4.895139381 -3.1378972769 0.8778069633
C -4.0374714632 -1.8188306788 1.0056188479
O -4.7996593549 -1.0087968897 1.9805079159
H -6.2929868181 -0.6689986646 -1.0150448461
H -4.1573796779 -1.6947209805 -1.2180493695
H -4.9134105572 3.5455792576 -1.121680526
H -6.8481937974 -0.4593561566 1.7390989512
H -6.8980600681 -2.9744823765 1.840883578
H -6.9461519501 -2.734751131 0.067293156
H -4.673896397 -3.8195735842 1.714544321
H -4.7107654986 -3.6687994259 -0.0698889537
H -2.9911090444 -1.9590740617 1.3394843542
H -6.6226478475 3.6318965234 -0.5587615415
H -6.261639336 3.5421980521 -2.3297526889
H 5.9520312702 4.6340573488 0.7483840227
H 6.5798641243 3.4825741121 1.9944984846
H 4.8047083335 3.6668148863 1.7617373031
H 0.7156925521 -0.4240381499 0.5684319249
H 0.6604943332 -1.3932980416 -0.955608689
H -0.8326379919 1.2938643766 -0.3853540846
H -0.7192264422 0.5507015595 -2.0202659283
$end

$rem
JOBTYPE                   OPT
METHOD                    B3LYP
DFT_D                     d3_op
BASIS                     STO-3G
GEOM_OPT_MAX_CYCLES       100
GEOM_OPT_TOL_GRADIENT     300
GEOM_OPT_TOL_DISPLACEMENT 1200
GEOM_OPT_TOL_ENERGY       100
SYMMETRY                  False
THRESH                    12
SCF_CONVERGENCE           8
MAX_SUB_FILE_NUM          128
MEM_STATIC                400
MEM_TOTAL                 4000
$end
--------------------------------------------------------------

   16   -1510.2616351332      3.86E-09 Convergence criterion met
 Total energy in the final basis set = -1510.26163513
   14   -1510.2662577616      3.08E-09 Convergence criterion met
 Total energy in the final basis set = -1510.26625776
   14   -1510.2709355011      2.55E-09 Convergence criterion met
 Total energy in the final basis set = -1510.27093550
   14   -1510.2752295821      2.62E-09 Convergence criterion met
 Total energy in the final basis set = -1510.27522958
   14   -1510.2784790664      1.89E-09 Convergence criterion met
 Total energy in the final basis set = -1510.27847907
   14   -1510.2810243254      1.98E-09 Convergence criterion met
 Total energy in the final basis set = -1510.28102433
   14   -1510.2825893996      1.54E-09 Convergence criterion met
 Total energy in the final basis set = -1510.28258940
   13   -1510.2836580626      4.18E-09 Convergence criterion met
   12   -1510.2929564484      3.67E-09 Convergence criterion met
 Total energy in the final basis set = -1510.29295645
   12   -1510.2929509417      3.07E-09 Convergence criterion met
 Total energy in the final basis set = -1510.29295094
   11   -1510.2929393958      4.42E-09 Convergence criterion met
 Total energy in the final basis set = -1510.29293940
   11   -1510.2929546998      2.67E-09 Convergence criterion met
 Total energy in the final basis set = -1510.29295470
   10   -1510.2929445997      9.57E-09 Convergence criterion met
 Total energy in the final basis set = -1510.29294460
   11   -1510.2929502053      3.00E-09 Convergence criterion met
 Total energy in the final basis set = -1510.29295021

             Standard Nuclear Orientation (Angstroms)
    I     Atom           X                Y                Z
 ----------------------------------------------------------------
    1      O      -2.6531181426     1.7973317328     2.2558982854
    2      C      -3.2756289600     1.5882009131     1.1938291080
    3      C      -4.3307387168     0.4524086247     0.9155528879
    4      C      -3.8648283784    -0.6655692369    -0.1016153801
    5      C      -2.3671579583    -0.5208990047    -0.5296894376
    6      O      -2.0995214849    -1.4821382822    -1.5478066146
    7      C      -0.6715427815    -1.4588081102    -1.9570239523
    8      C       0.2500587315    -2.1738887290    -0.9025300681
    9      O       1.6544646653    -2.0544664483    -1.3561916042
   10      C       2.4077139249    -1.2562357233    -0.4237064921
   11      C       3.8459834948    -1.0693250409    -1.0081181482
   12      C       4.2099994679     0.4476791316    -1.3047943152
   13      C       3.0786105419     1.4668104372    -0.9215458993
   14      O       3.2017949481     2.4929954064    -0.2187659393
   15      O      -3.2402042777     2.4506659119     0.0464759356
   16      O       1.8555721253     1.0385846039    -1.5295502696
   17      O       1.9599114788    -0.8482971946     0.6697155072
   18      C       0.7340251303     1.9263898481    -1.1319376115
   19      C       4.9687938653    -1.4336642209     0.0583345307
   20      C       6.3399079301    -1.6027646938    -0.7066020642
   21      C       6.7030298941    -0.1024357070    -1.0157173688
   22      C       5.4729962235     0.6473501975    -0.3712537383
   23      O       5.1445521512    -0.1757902496     0.8169522348
   24      H       3.9256943927    -1.6869195142    -1.9196670411
   25      H       4.4572692429     0.5867835631    -2.3736041747
   26      H       4.7022398867    -2.2635847920     0.7412170655
   27      H       7.0896591654    -2.0722435527    -0.0499798235
   28      H       6.2375515550    -2.2136765412    -1.6177290587
   29      H       7.6399628738     0.1960753525    -0.5194931343
   30      H       6.7939268208     0.0996475635    -2.0949692654
   31      H       5.6439784079     1.7007354156    -0.0756330584
   32      O      -1.5242043888     0.2740737056    -0.0505745448
   33      C      -2.2613627770     3.5374954044     0.2712821363
   34      C      -4.6025673513    -0.4144331039     2.2161088789
   35      C      -5.9805428932    -1.1594495525     2.0344232504
   36      C      -5.5912854659    -2.2538860843     0.9711403850
   37      C      -4.0472448089    -1.9713332319     0.7899948206
   38      O      -3.6086474292    -1.5108783046     2.1255104691
   39      H      -5.2552788220     0.9343101930     0.5497250194
   40      H      -4.4934786669    -0.6982326978    -1.0093320510
   41      H      -1.2769493120     3.1389180252     0.5874773018
   42      H      -4.4716294288     0.1438325557     3.1632907348
   43      H      -6.2982743724    -1.6178442216     2.9844356866
   44      H      -6.7778510253    -0.4858415149     1.6821500431
   45      H      -5.7517230365    -3.2721891680     1.3594537586
   46      H      -6.1464307418    -2.1457418342     0.0253741003
   47      H      -3.4441027696    -2.8367107641     0.4525374694
   48      H      -2.6155808944     4.2511633342     1.0437936516
   49      H      -2.1576601463     4.0650525753    -0.6947589113
   50      H       0.3450289688     2.4361888258    -2.0353181696
   51      H       1.1033140371     2.6808276628    -0.4097151756
   52      H      -0.0677522527     1.3005220968    -0.6770529702
   53      H       0.1575086267    -1.6847559362     0.0926309398
   54      H      -0.0118849512    -3.2492741505    -0.8253638250
   55      H      -0.3132904966    -0.4196562787    -2.1086458741
   56      H      -0.6364497499    -1.9975679461    -2.9248852854
 ----------------------------------------------------------------

   10   -1510.2929500642      5.76E-09 Convergence criterion met
 Total energy in the final basis set = -1510.29295006
 Final energy is   -1510.29295006423
 **  OPTIMIZATION CONVERGED  **

                    Orbital Energies (a.u.)
 --------------------------------------------------------------

 Alpha MOs
 -- Occupied --
-18.951 -18.929 -18.927 -18.921 -18.898 -18.889 -18.885 -18.874
-18.874 -18.863 -10.117 -10.098 -10.096 -10.091 -10.078 -10.066
-10.064 -10.059 -10.058 -10.055 -10.055 -10.045 -10.038 -10.037
-10.036 -10.035 -10.023 -10.021 -10.019 -10.018  -1.028  -1.011
 -1.003  -0.999  -0.972  -0.968  -0.953  -0.934  -0.931  -0.926
 -0.766  -0.762  -0.729  -0.722  -0.714  -0.705  -0.696  -0.656
 -0.652  -0.621  -0.597  -0.581  -0.547  -0.543  -0.539  -0.536
 -0.514  -0.507  -0.485  -0.475  -0.463  -0.457  -0.457  -0.449
 -0.436  -0.432  -0.428  -0.412  -0.410  -0.408  -0.401  -0.399
 -0.393  -0.381  -0.376  -0.366  -0.363  -0.357  -0.354  -0.347
 -0.344  -0.337  -0.334  -0.331  -0.328  -0.327  -0.325  -0.315
 -0.310  -0.308  -0.304  -0.302  -0.292  -0.286  -0.278  -0.275
 -0.269  -0.262  -0.246  -0.245  -0.243  -0.236  -0.232  -0.197
 -0.175  -0.169  -0.166  -0.163  -0.159  -0.150  -0.147  -0.143
 -0.142

          Ground-State Mulliken Net Atomic Charges

     Atom                 Charge (a.u.)
  ----------------------------------------
      1 O                    -0.212953
      2 C                     0.215541
      3 C                    -0.081290
      4 C                    -0.077204
      5 C                     0.221982
      6 O                    -0.168692
      7 C                    -0.050891
      8 C                    -0.059873
      9 O                    -0.174278
     10 C                     0.214329
     11 C                    -0.078863
     12 C                    -0.077850
     13 C                     0.214558
     14 O                    -0.209472
     15 O                    -0.177655
     16 O                    -0.178510
     17 O                    -0.209297
     18 C                    -0.153982
     19 C                     0.025960
     20 C                    -0.143848
     21 C                    -0.144269
     22 C                     0.024320
     23 O                    -0.185601
     24 H                     0.085994
     25 H                     0.084298
     26 H                     0.083968
     27 H                     0.078127
     28 H                     0.073056
     29 H                     0.078429
     30 H                     0.072643
     31 H                     0.091494
     32 O                    -0.205132
     33 C                    -0.129337
     34 C                     0.024887
     35 C                    -0.143728
     36 C                    -0.143889
     37 C                     0.025165
     38 O                    -0.188543
     39 H                     0.083953
     40 H                     0.088469
     41 H                     0.095052
     42 H                     0.091476
     43 H                     0.078793
     44 H                     0.073623
     45 H                     0.078781
     46 H                     0.073735
     47 H                     0.083997
     48 H                     0.084709
     49 H                     0.085506
     50 H                     0.074820
     51 H                     0.097383
     52 H                     0.109491
     53 H                     0.107589
     54 H                     0.083341
     55 H                     0.097668
     56 H                     0.092021
  ----------------------------------------
  Sum of atomic charges =    -0.000000

                    Cartesian Multipole Moments
 -----------------------------------------------------------------
    Charge (ESU x 10^10)
                -0.0000
    Dipole Moment (Debye)
         X      -1.7126      Y      -1.6668      Z      -4.1380
       Tot       4.7786
    Quadrupole Moments (Debye-Ang)
        XX    -137.0204     XY      -3.5896     YY    -155.0022
        XZ      -8.5158     YZ      -1.7497     ZZ    -165.1132

 Total job time:  141.06s(wall), 6723.83s(cpu)
        *  Thank you very much for using Q-Chem.  Have a nice day.  *
