 Q-Chem 5.0, Q-Chem, Inc., Pleasanton, CA (2017)
 Q-Chem 5.0.1 for Intel X86 EM64T Linux

User input:
--------------------------------------------------------------
$molecule
0  1
O -3.94934 -3.66094 2.70899
C -3.26408 -4.56952 2.26188
C -3.36658 -6.02376 2.66595
C -2.65325 -6.44509 3.96113
C -2.06679 -5.33195 4.80083
O -1.57464 -5.84156 5.96852
C -0.88425 -4.86928 6.76053
C -0.70048 -5.38535 8.18392
O 0.22039 -4.54303 8.89482
C -0.08315 -4.31583 10.19689
C 0.95081 -4.87067 11.14754
C 1.14049 -4.06394 12.4404
C 0.05245 -3.05765 12.75699
O -1.08365 -3.33151 13.11595
O -2.43856 -4.30465 1.21509
O 0.43317 -1.75308 12.7457
O -1.23387 -4.08742 10.54659
C -0.40221 -0.69679 13.04325
C 0.57225 -6.24374 11.74673
C 1.84195 -6.97828 12.17545
C 2.26455 -6.14069 13.36789
C 1.06168 -5.19476 13.478
O -0.01887 -5.95428 12.99069
H 1.9032 -4.99661 10.58171
H 2.11172 -3.5205 12.42592
H -0.02622 -6.87553 11.05441
H 1.5202 -7.98014 12.54092
H 2.61813 -7.11161 11.3915
H 2.33952 -6.807 14.25553
H 3.20885 -5.56916 13.23556
H 0.95739 -4.8037 14.51434
O -1.96102 -4.15503 4.47856
C -2.24981 -3.05126 0.67146
C -4.81602 -6.42898 2.98265
C -4.98027 -7.9429 2.85302
C -4.24236 -8.412 4.08844
C -3.85383 -7.06712 4.70993
O -4.92471 -6.22045 4.36835
H -2.99021 -6.62227 1.805
H -1.84356 -7.1884 3.78537
H -1.84288 -2.35921 1.43959
H -5.56285 -5.90547 2.34586
H -6.06161 -8.17838 2.97622
H -4.6171 -8.36646 1.89193
H -4.96709 -8.93599 4.75105
H -3.36252 -9.06452 3.90025
H -3.67021 -7.19839 5.79864
H -3.21067 -2.6547 0.27927
H -1.52485 -3.12291 -0.16507
H 0.16534 0.25215 12.95442
H -0.78293 -0.79013 14.0828
H -1.25488 -0.67192 12.3313
H -1.68508 -5.53367 8.6829
H -0.21795 -6.38302 8.09977
H -1.45806 -3.91809 6.85196
H 0.10579 -4.664 6.29547
$end

$opt
CONSTRAINT
tors           1           2           3           4     -81.371
tors           3           4           5           6    +174.631
tors           4           5           6           7    +174.206
tors           5           6           7           8    +164.583
tors           6           7           8           9    +168.212
tors           7           8           9          10    +141.673
tors           8           9          10          11    +116.235
tors           9          10          11          12    +147.511
tors          11          12          13          14     +71.054
ENDCONSTRAINT
$end

$rem
JOBTYPE                   OPT
METHOD                    B3LYP
DFT_D                     d3_op
BASIS                     STO-3G
GEOM_OPT_MAX_CYCLES       100
GEOM_OPT_TOL_GRADIENT     300
GEOM_OPT_TOL_DISPLACEMENT 1200
GEOM_OPT_TOL_ENERGY       100
SYMMETRY                  False
THRESH                    12
SCF_CONVERGENCE           8
MAX_SUB_FILE_NUM          128
MEM_STATIC                400
MEM_TOTAL                 4000
$end
--------------------------------------------------------------

   15   -1510.1290088779      6.74E-09 Convergence criterion met
 Total energy in the final basis set = -1510.12900888
   14   -1510.1992360111      5.46E-09 Convergence criterion met
 Total energy in the final basis set = -1510.19923601
   14   -1510.2367326178      6.15E-09 Convergence criterion met
 Total energy in the final basis set = -1510.23673262
   14   -1510.2528954905      4.49E-09 Convergence criterion met
 Total energy in the final basis set = -1510.25289549
    2   -1510.2528954906      1.98E-09 Convergence criterion met
 Total energy in the final basis set = -1510.25289549
   14   -1510.2581353113      4.25E-09 Convergence criterion met
 Total energy in the final basis set = -1510.25813531
   13   -1510.2600744755      3.85E-09 Convergence criterion met
 Total energy in the final basis set = -1510.26007448
   13   -1510.2607535291      2.77E-09 Convergence criterion met
   11   -1510.2615667664      5.80E-09 Convergence criterion met
 Total energy in the final basis set = -1510.26156677
   11   -1510.2615864105      4.70E-09 Convergence criterion met
 Total energy in the final basis set = -1510.26158641
   11   -1510.2615974618      3.23E-09 Convergence criterion met
 Total energy in the final basis set = -1510.26159746
   11   -1510.2616035580      2.17E-09 Convergence criterion met
 Total energy in the final basis set = -1510.26160356
    9   -1510.2616068664      6.73E-09 Convergence criterion met
 Total energy in the final basis set = -1510.26160687
    9   -1510.2616093222      9.32E-09 Convergence criterion met
 Total energy in the final basis set = -1510.26160932

             Standard Nuclear Orientation (Angstroms)
    I     Atom           X                Y                Z
 ----------------------------------------------------------------
    1      O      -5.4025671224     1.8920226053     0.9372944726
    2      C      -5.6328837299     1.1971188192    -0.0747377453
    3      C      -5.6289140531    -0.3731286135    -0.1842995904
    4      C      -4.1859225838    -1.0055365694    -0.3536694061
    5      C      -3.0573241240     0.0579082180    -0.5725928907
    6      O      -1.7967086340    -0.6170047538    -0.5853579106
    7      C      -0.7083760355     0.3333192055    -0.9292830834
    8      C       0.6409774985    -0.3600044296    -0.5383247373
    9      O       1.7485151979     0.4290506753    -1.1250840670
   10      C       2.8722748927     0.4802664387    -0.1963036344
   11      C       4.1048594200    -0.2425790501    -0.8381109080
   12      C       5.5446712186     0.3134177194    -0.4706919219
   13      C       5.5653989448     1.3423433645     0.7156174023
   14      O       5.3746095500     1.1226918395     1.9298697062
   15      O      -6.0210232037     1.7229054059    -1.3523776751
   16      O       5.8173711565     2.6429087634     0.1646473005
   17      O       2.7837459940     0.9877338944     0.9397069302
   18      C       5.7844234986     3.6590991622     1.2418947423
   19      C       4.2265073497    -1.7624880188    -0.3603392901
   20      C       5.0204876613    -2.5430384417    -1.4789534244
   21      C       6.4698782563    -1.9673269746    -1.2668423109
   22      C       6.2536077807    -1.0329603719    -0.0107372754
   23      O       5.1852795898    -1.7108174113     0.7618565988
   24      H       3.9522070796    -0.2074339222    -1.9315929213
   25      H       6.0278933690     0.7765526372    -1.3486610007
   26      H       3.2742968927    -2.2287685514    -0.0409971625
   27      H       4.9840540652    -3.6272480720    -1.2856756920
   28      H       4.6250995347    -2.3483861783    -2.4885512712
   29      H       7.1941463329    -2.7643653696    -1.0361677969
   30      H       6.8328741783    -1.4028760135    -2.1406253313
   31      H       7.1477423807    -0.8828706202     0.6247053573
   32      O      -3.1968952723     1.2870965559    -0.7600119384
   33      C      -5.9476426525     3.2005131614    -1.3262149167
   34      C      -6.0599233238    -1.0193534658     1.2000268217
   35      C      -6.3540448263    -2.5562082689     0.9792535642
   36      C      -4.8951393810    -3.1378972769     0.8778069633
   37      C      -4.0374714632    -1.8188306788     1.0056188479
   38      O      -4.7996593549    -1.0087968897     1.9805079159
   39      H      -6.2929868181    -0.6689986646    -1.0150448461
   40      H      -4.1573796779    -1.6947209805    -1.2180493695
   41      H      -4.9134105572     3.5455792576    -1.1216805260
   42      H      -6.8481937974    -0.4593561566     1.7390989512
   43      H      -6.8980600681    -2.9744823765     1.8408835780
   44      H      -6.9461519501    -2.7347511310     0.0672931560
   45      H      -4.6738963970    -3.8195735842     1.7145443210
   46      H      -4.7107654986    -3.6687994259    -0.0698889537
   47      H      -2.9911090444    -1.9590740617     1.3394843542
   48      H      -6.6226478475     3.6318965234    -0.5587615415
   49      H      -6.2616393360     3.5421980521    -2.3297526889
   50      H       5.9520312702     4.6340573488     0.7483840227
   51      H       6.5798641243     3.4825741121     1.9944984846
   52      H       4.8047083335     3.6668148863     1.7617373031
   53      H       0.7156925521    -0.4240381499     0.5684319249
   54      H       0.6604943332    -1.3932980416    -0.9556086890
   55      H      -0.8326379919     1.2938643766    -0.3853540846
   56      H      -0.7192264422     0.5507015595    -2.0202659283
 ----------------------------------------------------------------

    9   -1510.2616100869      9.34E-09 Convergence criterion met
 Total energy in the final basis set = -1510.26161009
 Final energy is   -1510.26161008694
 **  OPTIMIZATION CONVERGED  **

                    Orbital Energies (a.u.)
 --------------------------------------------------------------

 Alpha MOs
 -- Occupied --
-18.940 -18.928 -18.919 -18.910 -18.903 -18.895 -18.887 -18.886
-18.871 -18.858 -10.110 -10.106 -10.093 -10.087 -10.079 -10.075
-10.068 -10.063 -10.060 -10.059 -10.057 -10.052 -10.042 -10.040
-10.038 -10.032 -10.026 -10.024 -10.020 -10.019  -1.020  -1.012
 -1.004  -0.995  -0.976  -0.969  -0.946  -0.939  -0.929  -0.921
 -0.766  -0.762  -0.728  -0.724  -0.716  -0.708  -0.697  -0.660
 -0.653  -0.614  -0.598  -0.581  -0.550  -0.545  -0.542  -0.537
 -0.520  -0.511  -0.478  -0.473  -0.463  -0.455  -0.453  -0.450
 -0.440  -0.434  -0.430  -0.412  -0.408  -0.407  -0.400  -0.399
 -0.396  -0.382  -0.377  -0.364  -0.359  -0.356  -0.354  -0.349
 -0.346  -0.344  -0.336  -0.332  -0.330  -0.328  -0.324  -0.314
 -0.313  -0.310  -0.305  -0.301  -0.297  -0.280  -0.278  -0.275
 -0.273  -0.258  -0.252  -0.250  -0.242  -0.239  -0.233  -0.185
 -0.175  -0.166  -0.163  -0.161  -0.158  -0.150  -0.144  -0.143
 -0.138

          Ground-State Mulliken Net Atomic Charges

     Atom                 Charge (a.u.)
  ----------------------------------------
      1 O                    -0.215335
      2 C                     0.213832
      3 C                    -0.081134
      4 C                    -0.078429
      5 C                     0.213930
      6 O                    -0.175336
      7 C                    -0.047245
      8 C                    -0.046624
      9 O                    -0.194663
     10 C                     0.216070
     11 C                    -0.081418
     12 C                    -0.080171
     13 C                     0.208403
     14 O                    -0.202082
     15 O                    -0.173891
     16 O                    -0.172667
     17 O                    -0.181365
     18 C                    -0.129419
     19 C                     0.026132
     20 C                    -0.142303
     21 C                    -0.144912
     22 C                     0.026603
     23 O                    -0.182705
     24 H                     0.087430
     25 H                     0.086434
     26 H                     0.081340
     27 H                     0.079032
     28 H                     0.074762
     29 H                     0.079131
     30 H                     0.074748
     31 H                     0.085499
     32 O                    -0.205956
     33 C                    -0.128344
     34 C                     0.025950
     35 C                    -0.144742
     36 C                    -0.143211
     37 C                     0.025174
     38 O                    -0.186374
     39 H                     0.084138
     40 H                     0.085394
     41 H                     0.092915
     42 H                     0.085569
     43 H                     0.077985
     44 H                     0.073130
     45 H                     0.078198
     46 H                     0.072766
     47 H                     0.086631
     48 H                     0.085922
     49 H                     0.085854
     50 H                     0.088777
     51 H                     0.087501
     52 H                     0.092740
     53 H                     0.090383
     54 H                     0.080239
     55 H                     0.098092
     56 H                     0.087622
  ----------------------------------------
  Sum of atomic charges =    -0.000000

                    Cartesian Multipole Moments
 -----------------------------------------------------------------
    Charge (ESU x 10^10)
                 0.0000
    Dipole Moment (Debye)
         X       0.7939      Y      -2.2431      Z      -3.9710
       Tot       4.6293
    Quadrupole Moments (Debye-Ang)
        XX    -144.1142     XY       8.8206     YY    -150.9567
        XZ      -3.8387     YZ       1.4588     ZZ    -167.4719

 Total job time:  51.79s(wall), 2459.92s(cpu)
        *  Thank you very much for using Q-Chem.  Have a nice day.  *
