 Q-Chem 5.0, Q-Chem, Inc., Pleasanton, CA (2017)
 Q-Chem 5.0.1 for Intel X86 EM64T Linux

User input:
--------------------------------------------------------------
$molecule
0  1
O -3.94934 -3.66094 2.70899
C -3.26408 -4.56952 2.26188
C -3.36658 -6.02376 2.66595
C -2.17526 -6.93361 2.32422
C -0.94119 -6.25165 1.7764
O -0.97728 -6.25392 0.41107
C -1.2752 -7.54013 -0.14224
C -1.67293 -7.40239 -1.60817
O -0.85637 -8.26127 -2.4196
C -1.32697 -8.50432 -3.66805
C -0.23473 -8.55022 -4.70995
C -0.55086 -9.41113 -5.94168
C -2.00518 -9.79707 -6.1225
O -2.40721 -10.88697 -6.50334
O -2.48526 -4.24749 1.19591
O -2.89778 -8.77137 -6.22632
O -2.49234 -8.25335 -3.93186
C -4.24466 -8.91438 -6.49085
C 0.05204 -7.1905 -5.37679
C 1.47675 -7.19122 -5.93266
C 1.32333 -8.14742 -7.10009
C -0.18811 -8.40132 -7.04999
O -0.71738 -7.19532 -6.55219
H 0.69613 -8.88471 -4.19615
H 0.05708 -10.34131 -5.9932
H -0.09893 -6.32736 -4.69208
H 1.67169 -6.17005 -6.33155
H 2.27553 -7.45624 -5.20658
H 1.60249 -7.60831 -8.03245
H 1.89799 -9.09547 -7.01892
H -0.5654 -8.72227 -8.04624
O -0.31163 -5.40017 2.38871
C -2.33077 -2.97718 0.67868
C -3.36273 -6.12862 4.20847
C -3.95159 -7.47056 4.64928
C -2.79849 -8.39275 4.33203
C -1.79243 -7.39189 3.75636
O -2.0045 -6.24478 4.53842
H -4.34673 -6.38611 2.28258
H -2.59756 -7.83269 1.87112
H -1.90531 -2.30053 1.45036
H -3.91504 -5.30044 4.70466
H -4.10043 -7.45841 5.75254
H -4.91116 -7.7171 4.1458
H -2.38838 -8.78328 5.29097
H -3.03434 -9.24369 3.65782
H -0.76957 -7.82948 3.8067
H -3.30871 -2.5831 0.32901
H -1.63344 -3.01894 -0.18299
H -4.72076 -7.91234 -6.49489
H -4.72296 -9.53191 -5.7006
H -4.39493 -9.38774 -7.48397
H -2.76122 -7.6292 -1.66016
H -1.5087 -6.3601 -1.96274
H -1.62756 -8.46497 0.34044
H -0.23408 -7.92874 -0.21417
$end

$opt
CONSTRAINT
tors           1           2           3           4    -162.237
tors           3           4           5           6     -93.489
tors           4           5           6           7     -48.892
tors           5           6           7           8    +164.583
tors           6           7           8           9    +126.093
tors           7           8           9          10    +163.209
tors           8           9          10          11    +141.598
tors           9          10          11          12    +153.292
tors          11          12          13          14    -140.350
ENDCONSTRAINT
$end

$rem
JOBTYPE                   OPT
METHOD                    B3LYP
DFT_D                     d3_op
BASIS                     STO-3G
GEOM_OPT_MAX_CYCLES       100
GEOM_OPT_TOL_GRADIENT     300
GEOM_OPT_TOL_DISPLACEMENT 1200
GEOM_OPT_TOL_ENERGY       100
SYMMETRY                  False
THRESH                    12
SCF_CONVERGENCE           8
MAX_SUB_FILE_NUM          128
MEM_STATIC                400
MEM_TOTAL                 4000
$end
--------------------------------------------------------------

   15   -1510.0606781861      9.62E-09 Convergence criterion met
 Total energy in the final basis set = -1510.06067819
   14   -1510.1398191976      4.58E-09 Convergence criterion met
 Total energy in the final basis set = -1510.13981920
   14   -1510.1850714860      5.60E-09 Convergence criterion met
 Total energy in the final basis set = -1510.18507149
   14   -1510.2116653398      7.75E-09 Convergence criterion met
 Total energy in the final basis set = -1510.21166534
   13   -1510.2262761354      8.99E-09 Convergence criterion met
 Total energy in the final basis set = -1510.22627614
   13   -1510.2352012406      9.19E-09 Convergence criterion met
 Total energy in the final basis set = -1510.23520124
   13   -1510.2407857894      5.71E-09 Convergence criterion met
 Total energy in the final basis set = -1510.24078579
   13   -1510.2441634421      2.77E-09 Convergence criterion met
   11   -1510.2463426403      9.14E-09 Convergence criterion met
 Total energy in the final basis set = -1510.24634264
   11   -1510.2464110605      9.15E-09 Convergence criterion met
 Total energy in the final basis set = -1510.24641106
   11   -1510.2464454200      6.76E-09 Convergence criterion met
 Total energy in the final basis set = -1510.24644542
   11   -1510.2464643376      9.21E-09 Convergence criterion met
 Total energy in the final basis set = -1510.24646434
   11   -1510.2464619557      5.04E-09 Convergence criterion met
 Total energy in the final basis set = -1510.24646196
   10   -1510.2464641315      6.65E-09 Convergence criterion met
 Total energy in the final basis set = -1510.24646413

             Standard Nuclear Orientation (Angstroms)
    I     Atom           X                Y                Z
 ----------------------------------------------------------------
    1      O      -5.4659031742    -1.0159352438     2.5678304675
    2      C      -4.6667752596    -0.7113047102     1.6558880589
    3      C      -4.7969205379     0.5273834466     0.6970296286
    4      C      -3.9557011822     0.5315446826    -0.6517570149
    5      C      -3.1015119625    -0.7730903503    -0.9410693774
    6      O      -1.7123841615    -0.8108057023    -0.5189661158
    7      C      -0.9131852220     0.3690893335    -0.9040919896
    8      C       0.3957450890     0.3211644869    -0.0323309596
    9      O       1.5589370496     0.3925343059    -0.9470210073
   10      C       2.7564195038     0.7466185203    -0.2100980500
   11      C       3.9218675594    -0.0959751873    -0.8308912426
   12      C       5.3963085432     0.4690184011    -0.7356675357
   13      C       5.6744666514     1.5550724695     0.3655860450
   14      O       6.3989623571     2.5671658101     0.2328973802
   15      O      -3.4504737586    -1.4081772270     1.3967740776
   16      O       5.1499997414     1.1079157179     1.6165586835
   17      O       2.7621545795     1.5601052400     0.7360565870
   18      C       5.4407723379     2.1034464920     2.6723100458
   19      C       4.0948317750    -1.5552856170    -0.1991134475
   20      C       4.6512133326    -2.4803956526    -1.3508355207
   21      C       6.1117927171    -1.9107157992    -1.4982491052
   22      C       6.1620204057    -0.8638615513    -0.3130908234
   23      O       5.2543543275    -1.4357896122     0.7089652928
   24      H       3.6491939800    -0.2118293875    -1.8956829608
   25      H       5.7444928538     0.8680451582    -1.7042937140
   26      H       3.2095697875    -1.9432542137     0.3410371813
   27      H       4.6613973726    -3.5326455308    -1.0234421814
   28      H       4.0614674242    -2.4022382197    -2.2780554877
   29      H       6.8701519549    -2.6957361444    -1.3506711525
   30      H       6.2854562602    -1.4335051900    -2.4760751815
   31      H       7.1680874484    -0.6935274886     0.1169961677
   32      O      -3.5886894044    -1.8063129451    -1.4474759747
   33      C      -3.3329316464    -2.6024027650     2.2631191739
   34      C      -6.2790686475     0.6389513966     0.1368018311
   35      C      -6.5207173070     2.1162432109    -0.3644454605
   36      C      -5.6905378206     2.1201068975    -1.7012412404
   37      C      -5.1328274011     0.6424808770    -1.7192271221
   38      O      -6.2268654758    -0.1502534409    -1.1143650515
   39      H      -4.5431701248     1.4206186112     1.2991310338
   40      H      -3.3185423433     1.4284131780    -0.6852772609
   41      H      -4.1658807518    -3.3129279971     2.0870205134
   42      H      -7.0449588366     0.2348314222     0.8275570131
   43      H      -7.5923171229     2.2869797192    -0.5540760222
   44      H      -6.1663044315     2.8651288908     0.3618956863
   45      H      -6.3360104788     2.2967354482    -2.5763147425
   46      H      -4.8832854352     2.8701856275    -1.7010861880
   47      H      -4.8774382482     0.2425798607    -2.7195394837
   48      H      -3.3225681938    -2.3246748481     3.3369923793
   49      H      -2.3735469106    -3.0786294456     1.9898323721
   50      H       5.0370916738     1.6775742202     3.6090009668
   51      H       4.9439345464     3.0725923852     2.4627349862
   52      H       6.5307437492     2.2796682858     2.7807101716
   53      H       0.4226163815     1.1496563251     0.7077085510
   54      H       0.4093851345    -0.6461095174     0.5199582087
   55      H      -1.4424844550     1.3301599032    -0.7404141811
   56      H      -0.6277221215     0.3120057759    -1.9803797301
 ----------------------------------------------------------------

    9   -1510.2464647058      5.85E-09 Convergence criterion met
 Total energy in the final basis set = -1510.24646471
 Final energy is   -1510.24646470575
 **  OPTIMIZATION CONVERGED  **

                    Orbital Energies (a.u.)
 --------------------------------------------------------------

 Alpha MOs
 -- Occupied --
-18.944 -18.928 -18.921 -18.915 -18.893 -18.890 -18.890 -18.879
-18.878 -18.865 -10.105 -10.105 -10.102 -10.092 -10.077 -10.074
-10.068 -10.065 -10.063 -10.061 -10.061 -10.056 -10.043 -10.039
-10.039 -10.037 -10.023 -10.023 -10.022 -10.022  -1.018  -1.012
 -1.003  -0.998  -0.974  -0.972  -0.942  -0.941  -0.932  -0.927
 -0.765  -0.765  -0.726  -0.724  -0.715  -0.707  -0.700  -0.666
 -0.654  -0.611  -0.604  -0.584  -0.549  -0.547  -0.541  -0.540
 -0.518  -0.514  -0.486  -0.483  -0.467  -0.466  -0.454  -0.438
 -0.435  -0.433  -0.421  -0.415  -0.414  -0.410  -0.404  -0.403
 -0.397  -0.384  -0.383  -0.373  -0.365  -0.354  -0.352  -0.348
 -0.343  -0.340  -0.335  -0.333  -0.331  -0.330  -0.320  -0.315
 -0.313  -0.309  -0.308  -0.304  -0.296  -0.295  -0.283  -0.277
 -0.274  -0.256  -0.254  -0.244  -0.237  -0.236  -0.232  -0.182
 -0.177  -0.170  -0.165  -0.159  -0.153  -0.147  -0.147  -0.144
 -0.143

          Ground-State Mulliken Net Atomic Charges

     Atom                 Charge (a.u.)
  ----------------------------------------
      1 O                    -0.213215
      2 C                     0.211625
      3 C                    -0.078643
      4 C                    -0.084772
      5 C                     0.219135
      6 O                    -0.180323
      7 C                    -0.045820
      8 C                    -0.049628
      9 O                    -0.184986
     10 C                     0.210971
     11 C                    -0.080249
     12 C                    -0.079750
     13 C                     0.208253
     14 O                    -0.218581
     15 O                    -0.164904
     16 O                    -0.158742
     17 O                    -0.197425
     18 C                    -0.125290
     19 C                     0.027700
     20 C                    -0.141524
     21 C                    -0.145086
     22 C                     0.026104
     23 O                    -0.183546
     24 H                     0.086612
     25 H                     0.085019
     26 H                     0.083435
     27 H                     0.078679
     28 H                     0.075575
     29 H                     0.078802
     30 H                     0.074727
     31 H                     0.083421
     32 O                    -0.193120
     33 C                    -0.125239
     34 C                     0.024864
     35 C                    -0.143968
     36 C                    -0.144631
     37 C                     0.026112
     38 O                    -0.186207
     39 H                     0.083703
     40 H                     0.074349
     41 H                     0.093643
     42 H                     0.090034
     43 H                     0.079277
     44 H                     0.073030
     45 H                     0.078741
     46 H                     0.071283
     47 H                     0.085623
     48 H                     0.090272
     49 H                     0.096151
     50 H                     0.090271
     51 H                     0.089625
     52 H                     0.086690
     53 H                     0.090879
     54 H                     0.088353
     55 H                     0.076512
     56 H                     0.086179
  ----------------------------------------
  Sum of atomic charges =    -0.000000

                    Cartesian Multipole Moments
 -----------------------------------------------------------------
    Charge (ESU x 10^10)
                -0.0000
    Dipole Moment (Debye)
         X       0.6305      Y       1.3566      Z      -0.4516
       Tot       1.5627
    Quadrupole Moments (Debye-Ang)
        XX    -174.4229     XY     -22.9617     YY    -161.2537
        XZ      -4.8280     YZ      -2.1582     ZZ    -157.2282

 Total job time:  46.87s(wall), 2222.31s(cpu)
        *  Thank you very much for using Q-Chem.  Have a nice day.  *
