 Q-Chem 5.0, Q-Chem, Inc., Pleasanton, CA (2017)
 Q-Chem 5.0.1 for Intel X86 EM64T Linux

User input:
--------------------------------------------------------------
$molecule
0  1
O -5.4659031742 -1.0159352438 2.5678304675
C -4.6667752596 -0.7113047102 1.6558880589
C -4.7969205379 0.5273834466 0.6970296286
C -3.9557011822 0.5315446826 -0.6517570149
C -3.1015119625 -0.7730903503 -0.9410693774
O -1.7123841615 -0.8108057023 -0.5189661158
C -0.913185222 0.3690893335 -0.9040919896
C 0.395745089 0.3211644869 -0.0323309596
O 1.5589370496 0.3925343059 -0.9470210073
C 2.7564195038 0.7466185203 -0.21009805
C 3.9218675594 -0.0959751873 -0.8308912426
C 5.3963085432 0.4690184011 -0.7356675357
C 5.6744666514 1.5550724695 0.365586045
O 6.3989623571 2.5671658101 0.2328973802
O -3.4504737586 -1.408177227 1.3967740776
O 5.1499997414 1.1079157179 1.6165586835
O 2.7621545795 1.56010524 0.736056587
C 5.4407723379 2.103446492 2.6723100458
C 4.094831775 -1.555285617 -0.1991134475
C 4.6512133326 -2.4803956526 -1.3508355207
C 6.1117927171 -1.9107157992 -1.4982491052
C 6.1620204057 -0.8638615513 -0.3130908234
O 5.2543543275 -1.4357896122 0.7089652928
H 3.64919398 -0.2118293875 -1.8956829608
H 5.7444928538 0.8680451582 -1.704293714
H 3.2095697875 -1.9432542137 0.3410371813
H 4.6613973726 -3.5326455308 -1.0234421814
H 4.0614674242 -2.4022382197 -2.2780554877
H 6.8701519549 -2.6957361444 -1.3506711525
H 6.2854562602 -1.43350519 -2.4760751815
H 7.1680874484 -0.6935274886 0.1169961677
O -3.5886894044 -1.8063129451 -1.4474759747
C -3.3329316464 -2.602402765 2.2631191739
C -6.2790686475 0.6389513966 0.1368018311
C -6.520717307 2.1162432109 -0.3644454605
C -5.6905378206 2.1201068975 -1.7012412404
C -5.1328274011 0.642480877 -1.7192271221
O -6.2268654758 -0.1502534409 -1.1143650515
H -4.5431701248 1.4206186112 1.2991310338
H -3.3185423433 1.428413178 -0.6852772609
H -4.1658807518 -3.3129279971 2.0870205134
H -7.0449588366 0.2348314222 0.8275570131
H -7.5923171229 2.2869797192 -0.5540760222
H -6.1663044315 2.8651288908 0.3618956863
H -6.3360104788 2.2967354482 -2.5763147425
H -4.8832854352 2.8701856275 -1.701086188
H -4.8774382482 0.2425798607 -2.7195394837
H -3.3225681938 -2.3246748481 3.3369923793
H -2.3735469106 -3.0786294456 1.9898323721
H 5.0370916738 1.6775742202 3.6090009668
H 4.9439345464 3.0725923852 2.4627349862
H 6.5307437492 2.2796682858 2.7807101716
H 0.4226163815 1.1496563251 0.707708551
H 0.4093851345 -0.6461095174 0.5199582087
H -1.442484455 1.3301599032 -0.7404141811
H -0.6277221215 0.3120057759 -1.9803797301
$end

$rem
JOBTYPE                   OPT
METHOD                    B3LYP
DFT_D                     d3_op
BASIS                     STO-3G
GEOM_OPT_MAX_CYCLES       100
GEOM_OPT_TOL_GRADIENT     300
GEOM_OPT_TOL_DISPLACEMENT 1200
GEOM_OPT_TOL_ENERGY       100
SYMMETRY                  False
THRESH                    12
SCF_CONVERGENCE           8
MAX_SUB_FILE_NUM          128
MEM_STATIC                400
MEM_TOTAL                 4000
$end
--------------------------------------------------------------

   16   -1510.2461421879      4.93E-09 Convergence criterion met
 Total energy in the final basis set = -1510.24614219
   15   -1510.2506860654      2.75E-09 Convergence criterion met
 Total energy in the final basis set = -1510.25068607
   15   -1510.2541768283      2.54E-09 Convergence criterion met
 Total energy in the final basis set = -1510.25417683
   15   -1510.2572398599      2.52E-09 Convergence criterion met
 Total energy in the final basis set = -1510.25723986
   15   -1510.2602987369      2.36E-09 Convergence criterion met
 Total energy in the final basis set = -1510.26029874
   15   -1510.2459013017      5.63E-09 Convergence criterion met
 Total energy in the final basis set = -1510.24590130
   15   -1510.2629798098      3.79E-09 Convergence criterion met
 Total energy in the final basis set = -1510.26297981
   15   -1510.2655858868      2.57E-09 Convergence criterion met
   13   -1510.2837925427      5.17E-09 Convergence criterion met
 Total energy in the final basis set = -1510.28379254
   12   -1510.2838049883      9.99E-09 Convergence criterion met
 Total energy in the final basis set = -1510.28380499
   11   -1510.2838235375      9.27E-09 Convergence criterion met
 Total energy in the final basis set = -1510.28382354
   11   -1510.2838362431      6.96E-09 Convergence criterion met
 Total energy in the final basis set = -1510.28383624
   10   -1510.2838337709      8.46E-09 Convergence criterion met
 Total energy in the final basis set = -1510.28383377
   10   -1510.2838326729      8.72E-09 Convergence criterion met
 Total energy in the final basis set = -1510.28383267

             Standard Nuclear Orientation (Angstroms)
    I     Atom           X                Y                Z
 ----------------------------------------------------------------
    1      O      -3.1368443358     0.8694703061     2.3938374885
    2      C      -2.7383195217     0.8774347816     1.2107425376
    3      C      -3.5910249197     0.7924408709    -0.1004843199
    4      C      -3.9808459289    -0.6917234026    -0.5295994422
    5      C      -3.5096175456    -1.8349110890     0.4596413160
    6      O      -2.1683122883    -2.3433576068     0.3767320938
    7      C      -1.2484172155    -1.5983327412    -0.5185140269
    8      C       0.1305292564    -2.3334541456    -0.3770007657
    9      O       1.1867330626    -1.5953598518    -1.1173400215
   10      C       1.9467455306    -0.7741532307    -0.2334263501
   11      C       3.0540765291    -0.0461491200    -1.0608435625
   12      C       3.8615991309     1.0326638467    -0.2265933396
   13      C       3.3301384780     1.2463413130     1.2416109167
   14      O       2.4726263012     2.0838143649     1.5999240547
   15      O      -1.3559241104     0.9673069226     0.8230380842
   16      O       4.0616662436     0.4053641600     2.1393915815
   17      O       1.7582799227    -0.7049915626     1.0049188762
   18      C       3.5189486031     0.5453799095     3.5085825290
   19      C       4.2187560512    -1.0596448854    -1.4530137515
   20      C       5.1066896233    -0.3868358948    -2.5729128013
   21      C       5.9125721119     0.6678714428    -1.7277944036
   22      C       5.3236197131     0.4155804294    -0.2834725700
   23      O       5.0885499601    -1.0476366571    -0.2575792202
   24      H       2.5864302442     0.3907093684    -1.9615849143
   25      H       3.8176269000     2.0125297142    -0.7344759257
   26      H       3.8694406764    -2.0861736202    -1.6782259869
   27      H       5.7739522070    -1.1334601391    -3.0320992825
   28      H       4.4958003861     0.0761870619    -3.3641929921
   29      H       6.9936692192     0.4570342233    -1.7445718496
   30      H       5.7484531079     1.7025533819    -2.0688742076
   31      H       5.9792537329     0.7152533132     0.5559187376
   32      O      -4.2667970138    -2.3814407210     1.2914281204
   33      C      -0.4613064620     0.9848541913     2.0086577898
   34      C      -5.0304412826     1.4325194286     0.1019764738
   35      C      -5.6603079881     1.6935757948    -1.3227998282
   36      C      -6.0443822491     0.2297163815    -1.7560469074
   37      C      -5.5659149005    -0.5958097818    -0.4973599636
   38      O      -5.8328561673     0.3128974091     0.6400584433
   39      H      -3.0262234431     1.2926225465    -0.9072158468
   40      H      -3.6153606376    -0.9066488811    -1.5488914732
   41      H      -1.0430786710     0.7404867632     2.9186715510
   42      H      -5.0515164236     2.2934409456     0.7976604781
   43      H      -6.5506176058     2.3366255750    -1.2373045796
   44      H      -4.9454132567     2.1691197027    -2.0132300524
   45      H      -7.1317538430     0.1216538924    -1.8955231787
   46      H      -5.5362833387    -0.0880016565    -2.6805619702
   47      H      -6.0703430598    -1.5680854291    -0.3365949980
   48      H      -0.0062903198     1.9900562519     2.1072052491
   49      H       0.3452212408     0.2422243074     1.8240908128
   50      H       4.1622373019    -0.0763727112     4.1579691374
   51      H       2.4733080271     0.1790258925     3.5623440052
   52      H       3.5436496753     1.5989013517     3.8549496133
   53      H       0.4027356322    -2.4005499693     0.6975757354
   54      H       0.0817852965    -3.3492184883    -0.8187657219
   55      H      -1.1517021440    -0.5346277635    -0.1784070477
   56      H      -1.5846318425    -1.6312524554    -1.5769198183
 ----------------------------------------------------------------

   10   -1510.2838318772      5.49E-09 Convergence criterion met
 Total energy in the final basis set = -1510.28383188
 Final energy is   -1510.28383187718
 **  OPTIMIZATION CONVERGED  **

                    Orbital Energies (a.u.)
 --------------------------------------------------------------

 Alpha MOs
 -- Occupied --
-18.952 -18.940 -18.928 -18.928 -18.899 -18.893 -18.889 -18.887
-18.872 -18.863 -10.119 -10.104 -10.097 -10.096 -10.078 -10.067
-10.063 -10.063 -10.062 -10.059 -10.058 -10.048 -10.043 -10.043
-10.040 -10.039 -10.026 -10.024 -10.022 -10.021  -1.031  -1.015
 -1.004  -1.002  -0.975  -0.971  -0.955  -0.942  -0.933  -0.929
 -0.769  -0.765  -0.731  -0.724  -0.718  -0.706  -0.703  -0.657
 -0.656  -0.617  -0.600  -0.586  -0.551  -0.549  -0.542  -0.540
 -0.520  -0.510  -0.492  -0.476  -0.471  -0.461  -0.458  -0.455
 -0.438  -0.438  -0.431  -0.419  -0.413  -0.411  -0.407  -0.404
 -0.398  -0.392  -0.377  -0.370  -0.364  -0.363  -0.354  -0.347
 -0.342  -0.340  -0.337  -0.336  -0.332  -0.330  -0.321  -0.316
 -0.313  -0.309  -0.308  -0.301  -0.299  -0.285  -0.283  -0.281
 -0.279  -0.264  -0.255  -0.248  -0.241  -0.239  -0.234  -0.196
 -0.182  -0.173  -0.169  -0.165  -0.161  -0.151  -0.145  -0.144
 -0.144

          Ground-State Mulliken Net Atomic Charges

     Atom                 Charge (a.u.)
  ----------------------------------------
      1 O                    -0.198618
      2 C                     0.208748
      3 C                    -0.081115
      4 C                    -0.084008
      5 C                     0.203821
      6 O                    -0.174346
      7 C                    -0.067612
      8 C                    -0.051121
      9 O                    -0.169502
     10 C                     0.220983
     11 C                    -0.077912
     12 C                    -0.081260
     13 C                     0.213457
     14 O                    -0.224597
     15 O                    -0.176667
     16 O                    -0.167283
     17 O                    -0.210564
     18 C                    -0.126986
     19 C                     0.025792
     20 C                    -0.143646
     21 C                    -0.144299
     22 C                     0.026394
     23 O                    -0.186460
     24 H                     0.088223
     25 H                     0.083651
     26 H                     0.085584
     27 H                     0.079217
     28 H                     0.073927
     29 H                     0.078757
     30 H                     0.073804
     31 H                     0.089598
     32 O                    -0.196445
     33 C                    -0.150696
     34 C                     0.026578
     35 C                    -0.144069
     36 C                    -0.144681
     37 C                     0.026700
     38 O                    -0.182592
     39 H                     0.084286
     40 H                     0.078020
     41 H                     0.097025
     42 H                     0.086795
     43 H                     0.079071
     44 H                     0.072368
     45 H                     0.079170
     46 H                     0.071611
     47 H                     0.091076
     48 H                     0.093201
     49 H                     0.105152
     50 H                     0.089614
     51 H                     0.091010
     52 H                     0.087134
     53 H                     0.103163
     54 H                     0.091310
     55 H                     0.106375
     56 H                     0.072862
  ----------------------------------------
  Sum of atomic charges =     0.000000

                    Cartesian Multipole Moments
 -----------------------------------------------------------------
    Charge (ESU x 10^10)
                 0.0000
    Dipole Moment (Debye)
         X       2.6612      Y       1.7228      Z      -4.9473
       Tot       5.8758
    Quadrupole Moments (Debye-Ang)
        XX    -166.1360     XY      -2.8364     YY    -163.3645
        XZ      13.7629     YZ       3.4412     ZZ    -157.9724

 Total job time:  162.12s(wall), 7723.18s(cpu)
        *  Thank you very much for using Q-Chem.  Have a nice day.  *
