 Q-Chem 5.0, Q-Chem, Inc., Pleasanton, CA (2017)
 Q-Chem 5.0.1 for Intel X86 EM64T Linux

User input:
--------------------------------------------------------------
$molecule
0  1
O 5.216947304 -2.8900837441 0.1248251276
C 4.5430070179 -1.9765047641 -0.3982379673
C 4.9809345409 -0.4787498053 -0.5753141732
C 3.8313409548 0.5943426744 -0.6824052317
C 2.5196650315 0.1496248096 0.0614191001
O 1.5018500339 1.1396977935 -0.1750025699
C 0.1557325932 0.5225830518 -0.0984475417
C -0.675570233 1.1887738813 1.0642146955
O -2.1442623489 1.0500544468 0.888856201
C -2.5477116382 -0.3213787878 0.9161766577
C -4.1137237474 -0.4314617638 1.0648161425
C -4.9707147236 0.5159946699 0.1220338057
C -4.2178122629 1.7423627757 -0.5016154782
O -3.8918430476 1.9077474535 -1.6968245574
O 3.3808039739 -2.2075742261 -1.2074445706
O -4.1297482967 2.7623231903 0.50289451
O -1.7550575871 -1.288774073 0.9136094741
C -3.4075115491 3.9352678205 -0.0364824223
C -4.5272977697 -1.8473583175 0.4839100981
C -6.0517468742 -2.1388628369 0.7744336173
C -6.7530881102 -1.254216261 -0.3245555945
C -5.504441962 -0.5236182149 -0.9527847331
O -4.4774667799 -1.5910961345 -0.976829877
H -4.3790315774 -0.2933924028 2.1294259017
H -5.8115184303 0.9313601093 0.7070847148
H -3.8195493721 -2.6540757967 0.7575233501
H -6.2743206873 -3.2088958697 0.6377695422
H -6.338288926 -1.8484535426 1.7981922594
H -7.2515435674 -1.8789555625 -1.0829361095
H -7.4889485849 -0.5505879042 0.0961457554
H -5.6468242318 -0.0990835649 -1.9656250942
O 2.3499808184 -0.8639380337 0.7714746354
C 2.9716091969 -3.6261793938 -1.1173258667
C 5.8836359881 0.1288170201 0.5811113545
C 6.8370510793 1.1870261179 -0.0971571757
C 5.7942433606 2.2991603958 -0.4936102983
C 4.4771074541 1.7565275308 0.193191546
O 4.9644794078 0.9884665731 1.3659556727
H 5.556448702 -0.4652709858 -1.5209014717
H 3.5969119042 0.8916186965 -1.7192486586
H 2.5969126366 -3.8720282166 -0.1025177667
H 6.3719672715 -0.6249950888 1.2290792651
H 7.5705234868 1.5669008401 0.6324033791
H 7.37792068 0.7756733942 -0.9643277935
H 6.0691904748 3.2829630425 -0.0819241114
H 5.6742705931 2.395686843 -1.5849557201
H 3.7560097875 2.5356256179 0.5088895272
H 3.8093220023 -4.3110194604 -1.3610655929
H 2.1552699478 -3.757082193 -1.851313008
H -3.4258491616 4.7009762832 0.7607589581
H -3.8955694704 4.3348655664 -0.9490908681
H -2.3556316258 3.6833466554 -0.2823599027
H -0.3607652679 0.7613659495 2.0406024422
H -0.4921845085 2.282329553 1.0737941031
H 0.2220303032 -0.569386548 0.0807724498
H -0.3563778689 0.7152847125 -1.0663500048
$end

$rem
JOBTYPE                   OPT
METHOD                    B3LYP
DFT_D                     d3_op
BASIS                     STO-3G
GEOM_OPT_MAX_CYCLES       100
GEOM_OPT_TOL_GRADIENT     300
GEOM_OPT_TOL_DISPLACEMENT 1200
GEOM_OPT_TOL_ENERGY       100
SYMMETRY                  False
THRESH                    12
SCF_CONVERGENCE           8
MAX_SUB_FILE_NUM          128
MEM_STATIC                400
MEM_TOTAL                 4000
$end
--------------------------------------------------------------

   16   -1510.2683319031      5.35E-09 Convergence criterion met
 Total energy in the final basis set = -1510.26833190
   13   -1510.2733201051      9.96E-09 Convergence criterion met
 Total energy in the final basis set = -1510.27332011
   14   -1510.2771168256      6.10E-09 Convergence criterion met
 Total energy in the final basis set = -1510.27711683
   13   -1510.2803924289      9.80E-09 Convergence criterion met
 Total energy in the final basis set = -1510.28039243
   14   -1510.2833615085      6.91E-09 Convergence criterion met
 Total energy in the final basis set = -1510.28336151
   14   -1510.2846226571      9.67E-09 Convergence criterion met
 Total energy in the final basis set = -1510.28462266
   13   -1510.2864420429      3.86E-09 Convergence criterion met
 Total energy in the final basis set = -1510.28644204
   13   -1510.2873855696      8.30E-09 Convergence criterion met
   12   -1510.2996770236      3.66E-09 Convergence criterion met
 Total energy in the final basis set = -1510.29967702
   11   -1510.2996882501      5.61E-09 Convergence criterion met
 Total energy in the final basis set = -1510.29968825
   11   -1510.2996861098      4.85E-09 Convergence criterion met
 Total energy in the final basis set = -1510.29968611
   11   -1510.2996817900      5.17E-09 Convergence criterion met
 Total energy in the final basis set = -1510.29968179
   10   -1510.2996847824      8.36E-09 Convergence criterion met
 Total energy in the final basis set = -1510.29968478
    9   -1510.2996803057      9.05E-09 Convergence criterion met
 Total energy in the final basis set = -1510.29968031

             Standard Nuclear Orientation (Angstroms)
    I     Atom           X                Y                Z
 ----------------------------------------------------------------
    1      O      -4.2101767917     1.2831914623     1.7117069222
    2      C      -4.2645465026     0.8416886688     0.5445788208
    3      C      -3.7079937998    -0.5321183621     0.0134878497
    4      C      -2.3995740423    -0.4269284515    -0.8708146315
    5      C      -1.8243546938     1.0300671473    -0.9082830458
    6      O      -0.6143990679     1.0335181911    -1.6672897648
    7      C       0.0435006130     2.3646318564    -1.6691599114
    8      C       0.5170988047     2.8098748944    -0.2363399777
    9      O       1.1580360547     1.6722939083     0.4583624963
   10      C       2.5888693344     1.8030512833     0.4363108562
   11      C       3.1776727350     0.5178315358     1.1181698276
   12      C       2.8691455207    -0.8176346954     0.3240285970
   13      C       2.2009221044    -0.5438075097    -1.0630103292
   14      O       2.4046752280     0.4369350764    -1.8125954026
   15      O      -5.0089708891     1.4499461229    -0.5237493374
   16      O       1.3239650669    -1.6297044117    -1.3804081571
   17      O       3.2031051082     2.8050873231     0.0143386372
   18      C       0.6970329548    -1.3971976036    -2.7085893559
   19      C       4.7617741793     0.5157689199     1.1271925704
   20      C       5.2402918345    -0.5205722096     2.2160048704
   21      C       4.8969452564    -1.8825308254     1.5050852250
   22      C       4.3461303975    -1.3739026357     0.1133520616
   23      O       5.1222018608    -0.1423465388    -0.1513764945
   24      H       2.7665636743     0.4578803090     2.1422260307
   25      H       2.2386670979    -1.5167056523     0.9006947690
   26      H       5.2135057838     1.5251049361     1.1826424061
   27      H       6.3231448698    -0.4208857242     2.3927054151
   28      H       4.7113770744    -0.3933728175     3.1741668107
   29      H       5.7951486265    -2.5037811590     1.3605034150
   30      H       4.1447969577    -2.4708243412     2.0547496040
   31      H       4.4501912872    -2.0898064258    -0.7252183434
   32      O      -2.3115997849     2.0476677358    -0.3664186676
   33      C      -5.5105476870     2.7720919905    -0.0912545581
   34      C      -3.2001729386    -1.4595578223     1.1979284570
   35      C      -3.1727229214    -2.9477516211     0.6759627882
   36      C      -1.9408811465    -2.8928765735    -0.3003917453
   37      C      -1.4302198135    -1.4116884806    -0.0826774273
   38      O      -1.7621345204    -1.1217770449     1.3292561186
   39      H      -4.5154120389    -1.0194950978    -0.5617066827
   40      H      -2.5719062153    -0.7669930898    -1.9081991849
   41      H      -4.6728263980     3.4717468597     0.1076286873
   42      H      -3.7240681113    -1.2903826701     2.1587065964
   43      H      -2.9948611909    -3.6442478637     1.5108836414
   44      H      -4.1089293673    -3.2332889662     0.1704604839
   45      H      -1.1588825845    -3.6130109276    -0.0119675938
   46      H      -2.2223301280    -3.0813947330    -1.3487614189
   47      H      -0.3480624858    -1.2748803077    -0.2949310208
   48      H      -6.1318061050     2.6965615122     0.8245893508
   49      H      -6.1247876727     3.1578756324    -0.9257352691
   50      H       0.0398602009    -2.2672276871    -2.8869286674
   51      H       1.4602277854    -1.3317303241    -3.5090293851
   52      H       0.1006271535    -0.4582744188    -2.6707385396
   53      H       1.2415385764     3.6473914491    -0.3341316727
   54      H      -0.3587133999     3.1152728287     0.3704812934
   55      H      -0.6327368444     3.1388874186    -2.0930366062
   56      H       0.9238363622     2.2266818009    -2.3290314810
 ----------------------------------------------------------------

    9   -1510.2996808045      4.61E-09 Convergence criterion met
 Total energy in the final basis set = -1510.29968080
 Final energy is   -1510.29968080453
 **  OPTIMIZATION CONVERGED  **

                    Orbital Energies (a.u.)
 --------------------------------------------------------------

 Alpha MOs
 -- Occupied --
-18.949 -18.941 -18.927 -18.917 -18.891 -18.888 -18.882 -18.879
-18.876 -18.858 -10.112 -10.103 -10.099 -10.088 -10.077 -10.066
-10.062 -10.058 -10.055 -10.053 -10.053 -10.050 -10.040 -10.039
-10.037 -10.030 -10.021 -10.019 -10.017 -10.016  -1.026  -1.016
 -1.007  -0.995  -0.971  -0.965  -0.949  -0.940  -0.934  -0.922
 -0.764  -0.761  -0.728  -0.722  -0.712  -0.704  -0.695  -0.662
 -0.653  -0.620  -0.597  -0.581  -0.546  -0.542  -0.538  -0.533
 -0.512  -0.507  -0.482  -0.466  -0.463  -0.457  -0.454  -0.452
 -0.437  -0.431  -0.428  -0.418  -0.415  -0.408  -0.403  -0.400
 -0.394  -0.381  -0.372  -0.365  -0.361  -0.359  -0.353  -0.349
 -0.342  -0.341  -0.334  -0.330  -0.329  -0.328  -0.322  -0.311
 -0.311  -0.308  -0.305  -0.299  -0.293  -0.286  -0.277  -0.274
 -0.269  -0.263  -0.252  -0.244  -0.242  -0.235  -0.230  -0.195
 -0.182  -0.170  -0.162  -0.160  -0.159  -0.153  -0.145  -0.141
 -0.139

          Ground-State Mulliken Net Atomic Charges

     Atom                 Charge (a.u.)
  ----------------------------------------
      1 O                    -0.218380
      2 C                     0.215463
      3 C                    -0.082183
      4 C                    -0.078499
      5 C                     0.220691
      6 O                    -0.172183
      7 C                    -0.049937
      8 C                    -0.058319
      9 O                    -0.177269
     10 C                     0.216823
     11 C                    -0.078866
     12 C                    -0.078331
     13 C                     0.214952
     14 O                    -0.213238
     15 O                    -0.177415
     16 O                    -0.170414
     17 O                    -0.210899
     18 C                    -0.141957
     19 C                     0.024599
     20 C                    -0.143413
     21 C                    -0.143962
     22 C                     0.025394
     23 O                    -0.187674
     24 H                     0.087832
     25 H                     0.088840
     26 H                     0.090662
     27 H                     0.078406
     28 H                     0.074239
     29 H                     0.078271
     30 H                     0.074633
     31 H                     0.082484
     32 O                    -0.205509
     33 C                    -0.128535
     34 C                     0.024418
     35 C                    -0.144002
     36 C                    -0.144786
     37 C                     0.015585
     38 O                    -0.191381
     39 H                     0.082827
     40 H                     0.084295
     41 H                     0.090164
     42 H                     0.088021
     43 H                     0.076720
     44 H                     0.072152
     45 H                     0.077060
     46 H                     0.069357
     47 H                     0.097497
     48 H                     0.086659
     49 H                     0.085220
     50 H                     0.084228
     51 H                     0.085681
     52 H                     0.109028
     53 H                     0.101186
     54 H                     0.098970
     55 H                     0.089512
     56 H                     0.105280
  ----------------------------------------
  Sum of atomic charges =    -0.000000

                    Cartesian Multipole Moments
 -----------------------------------------------------------------
    Charge (ESU x 10^10)
                -0.0000
    Dipole Moment (Debye)
         X      -0.9525      Y      -2.2577      Z      -1.0638
       Tot       2.6714
    Quadrupole Moments (Debye-Ang)
        XX    -162.4875     XY      -5.1940     YY    -153.8700
        XZ      13.7244     YZ      -0.6049     ZZ    -158.4334

 Total job time:  167.00s(wall), 7961.56s(cpu)
        *  Thank you very much for using Q-Chem.  Have a nice day.  *
