 Q-Chem 5.0, Q-Chem, Inc., Pleasanton, CA (2017)
 Q-Chem 5.0.1 for Intel X86 EM64T Linux

User input:
--------------------------------------------------------------
$molecule
0  1
O -3.94934 -3.66094 2.70899
C -3.26408 -4.56952 2.26188
C -3.36658 -6.02376 2.66595
C -2.11315 -6.89458 2.48041
C -0.84505 -6.17444 2.07865
O 0.15361 -7.0802 1.86024
C 1.13551 -6.62124 0.9251
C 2.50303 -6.54125 1.59562
O 3.53934 -6.61135 0.60364
C 3.55935 -5.59295 -0.29169
C 4.83335 -5.54622 -1.10126
C 5.29266 -6.8992 -1.66406
C 4.25871 -8.00706 -1.6476
O 3.7045 -8.47405 -2.63214
O -2.70676 -4.35819 1.03708
O 4.14058 -8.70056 -0.48332
O 2.87527 -4.584 -0.16808
C 3.34587 -9.8152 -0.30963
C 4.72402 -4.71597 -2.39872
C 6.1131 -4.23584 -2.81428
C 6.74069 -5.54109 -3.25552
C 5.53389 -6.47954 -3.13131
O 4.426 -5.65585 -3.39878
H 5.60232 -5.08264 -0.44274
H 6.22148 -7.29306 -1.19564
H 4.03217 -3.84946 -2.32184
H 5.97536 -3.58717 -3.70928
H 6.68053 -3.67422 -2.04131
H 7.05705 -5.4361 -4.31708
H 7.59294 -5.89338 -2.63491
H 5.66405 -7.35492 -3.80548
O -0.58869 -5.0068 2.34575
C -2.66091 -3.13925 0.39202
C -3.57409 -6.17357 4.18835
C -4.20451 -7.53059 4.50069
C -3.03064 -8.45126 4.24717
C -1.94202 -7.42668 3.91571
O -2.27425 -6.3118 4.70509
H -4.25345 -6.43516 2.13402
H -2.28067 -7.70829 1.73936
H -2.09878 -2.40382 1.00624
H -4.19159 -5.36297 4.63326
H -4.43741 -7.54831 5.58959
H -5.12558 -7.76246 3.92383
H -2.7839 -8.97584 5.19718
H -3.17329 -9.19197 3.43078
H -0.93632 -7.86684 4.09502
H -3.68985 -2.76499 0.20378
H -2.14306 -3.26282 -0.58114
H 3.43624 -10.16572 0.73885
H 3.67483 -10.62998 -0.98934
H 2.28332 -9.5639 -0.51238
H 2.59071 -5.64451 2.24765
H 2.62818 -7.44229 2.23337
H 0.86066 -5.6742 0.4097
H 1.18324 -7.40226 0.13674
$end

$opt
CONSTRAINT
tors           1           2           3           4    -155.003
tors           3           4           5           6    -175.742
tors           4           5           6           7    +152.576
tors           5           6           7           8    +118.738
tors           6           7           8           9    +157.100
tors           7           8           9          10     +63.091
tors           8           9          10          11    +166.912
tors           9          10          11          12     +46.065
tors          11          12          13          14    +109.379
ENDCONSTRAINT
$end

$rem
JOBTYPE                   OPT
METHOD                    B3LYP
DFT_D                     d3_op
BASIS                     STO-3G
GEOM_OPT_MAX_CYCLES       100
GEOM_OPT_TOL_GRADIENT     300
GEOM_OPT_TOL_DISPLACEMENT 1200
GEOM_OPT_TOL_ENERGY       100
SYMMETRY                  False
THRESH                    12
SCF_CONVERGENCE           8
MAX_SUB_FILE_NUM          128
MEM_STATIC                400
MEM_TOTAL                 4000
$end
--------------------------------------------------------------

   15   -1510.1248408815      6.86E-09 Convergence criterion met
 Total energy in the final basis set = -1510.12484088
   14   -1510.1963677591      7.20E-09 Convergence criterion met
 Total energy in the final basis set = -1510.19636776
   14   -1510.2345569973      8.99E-09 Convergence criterion met
 Total energy in the final basis set = -1510.23455700
   15   -1510.2515934334      1.29E-09 Convergence criterion met
 Total energy in the final basis set = -1510.25159343
   14   -1510.2592319506      6.76E-09 Convergence criterion met
 Total energy in the final basis set = -1510.25923195
   14   -1510.2626644260      4.12E-09 Convergence criterion met
 Total energy in the final basis set = -1510.26266443
   13   -1510.2645433867      3.50E-09 Convergence criterion met
 Total energy in the final basis set = -1510.26454339
   13   -1510.2654934438      3.80E-09 Convergence criterion met
   12   -1510.2683275128      1.65E-09 Convergence criterion met
 Total energy in the final basis set = -1510.26832751
   11   -1510.2683352685      6.39E-09 Convergence criterion met
 Total energy in the final basis set = -1510.26833527
   10   -1510.2683448361      8.29E-09 Convergence criterion met
 Total energy in the final basis set = -1510.26834484
    9   -1510.2683508354      8.01E-09 Convergence criterion met
 Total energy in the final basis set = -1510.26835084
    9   -1510.2683557588      5.50E-09 Convergence criterion met
 Total energy in the final basis set = -1510.26835576
    9   -1510.2683545891      8.25E-09 Convergence criterion met
 Total energy in the final basis set = -1510.26835459

             Standard Nuclear Orientation (Angstroms)
    I     Atom           X                Y                Z
 ----------------------------------------------------------------
    1      O       5.2169473040    -2.8900837441     0.1248251276
    2      C       4.5430070179    -1.9765047641    -0.3982379673
    3      C       4.9809345409    -0.4787498053    -0.5753141732
    4      C       3.8313409548     0.5943426744    -0.6824052317
    5      C       2.5196650315     0.1496248096     0.0614191001
    6      O       1.5018500339     1.1396977935    -0.1750025699
    7      C       0.1557325932     0.5225830518    -0.0984475417
    8      C      -0.6755702330     1.1887738813     1.0642146955
    9      O      -2.1442623489     1.0500544468     0.8888562010
   10      C      -2.5477116382    -0.3213787878     0.9161766577
   11      C      -4.1137237474    -0.4314617638     1.0648161425
   12      C      -4.9707147236     0.5159946699     0.1220338057
   13      C      -4.2178122629     1.7423627757    -0.5016154782
   14      O      -3.8918430476     1.9077474535    -1.6968245574
   15      O       3.3808039739    -2.2075742261    -1.2074445706
   16      O      -4.1297482967     2.7623231903     0.5028945100
   17      O      -1.7550575871    -1.2887740730     0.9136094741
   18      C      -3.4075115491     3.9352678205    -0.0364824223
   19      C      -4.5272977697    -1.8473583175     0.4839100981
   20      C      -6.0517468742    -2.1388628369     0.7744336173
   21      C      -6.7530881102    -1.2542162610    -0.3245555945
   22      C      -5.5044419620    -0.5236182149    -0.9527847331
   23      O      -4.4774667799    -1.5910961345    -0.9768298770
   24      H      -4.3790315774    -0.2933924028     2.1294259017
   25      H      -5.8115184303     0.9313601093     0.7070847148
   26      H      -3.8195493721    -2.6540757967     0.7575233501
   27      H      -6.2743206873    -3.2088958697     0.6377695422
   28      H      -6.3382889260    -1.8484535426     1.7981922594
   29      H      -7.2515435674    -1.8789555625    -1.0829361095
   30      H      -7.4889485849    -0.5505879042     0.0961457554
   31      H      -5.6468242318    -0.0990835649    -1.9656250942
   32      O       2.3499808184    -0.8639380337     0.7714746354
   33      C       2.9716091969    -3.6261793938    -1.1173258667
   34      C       5.8836359881     0.1288170201     0.5811113545
   35      C       6.8370510793     1.1870261179    -0.0971571757
   36      C       5.7942433606     2.2991603958    -0.4936102983
   37      C       4.4771074541     1.7565275308     0.1931915460
   38      O       4.9644794078     0.9884665731     1.3659556727
   39      H       5.5564487020    -0.4652709858    -1.5209014717
   40      H       3.5969119042     0.8916186965    -1.7192486586
   41      H       2.5969126366    -3.8720282166    -0.1025177667
   42      H       6.3719672715    -0.6249950888     1.2290792651
   43      H       7.5705234868     1.5669008401     0.6324033791
   44      H       7.3779206800     0.7756733942    -0.9643277935
   45      H       6.0691904748     3.2829630425    -0.0819241114
   46      H       5.6742705931     2.3956868430    -1.5849557201
   47      H       3.7560097875     2.5356256179     0.5088895272
   48      H       3.8093220023    -4.3110194604    -1.3610655929
   49      H       2.1552699478    -3.7570821930    -1.8513130080
   50      H      -3.4258491616     4.7009762832     0.7607589581
   51      H      -3.8955694704     4.3348655664    -0.9490908681
   52      H      -2.3556316258     3.6833466554    -0.2823599027
   53      H      -0.3607652679     0.7613659495     2.0406024422
   54      H      -0.4921845085     2.2823295530     1.0737941031
   55      H       0.2220303032    -0.5693865480     0.0807724498
   56      H      -0.3563778689     0.7152847125    -1.0663500048
 ----------------------------------------------------------------

    9   -1510.2683544800      5.55E-09 Convergence criterion met
 Total energy in the final basis set = -1510.26835448
 Final energy is   -1510.26835448005
 **  OPTIMIZATION CONVERGED  **

                    Orbital Energies (a.u.)
 --------------------------------------------------------------

 Alpha MOs
 -- Occupied --
-18.942 -18.929 -18.925 -18.924 -18.885 -18.884 -18.882 -18.882
-18.870 -18.867 -10.105 -10.101 -10.097 -10.094 -10.075 -10.066
-10.061 -10.060 -10.057 -10.057 -10.057 -10.056 -10.041 -10.039
-10.036 -10.034 -10.021 -10.020 -10.019 -10.019  -1.019  -1.011
 -1.005  -1.001  -0.969  -0.969  -0.944  -0.936  -0.932  -0.927
 -0.763  -0.762  -0.728  -0.722  -0.710  -0.704  -0.695  -0.660
 -0.655  -0.617  -0.597  -0.585  -0.544  -0.544  -0.537  -0.537
 -0.510  -0.509  -0.484  -0.477  -0.460  -0.458  -0.456  -0.448
 -0.431  -0.430  -0.425  -0.411  -0.408  -0.405  -0.402  -0.399
 -0.390  -0.385  -0.372  -0.369  -0.362  -0.357  -0.355  -0.345
 -0.343  -0.338  -0.335  -0.331  -0.329  -0.327  -0.321  -0.311
 -0.310  -0.308  -0.306  -0.300  -0.296  -0.289  -0.281  -0.273
 -0.270  -0.256  -0.251  -0.248  -0.241  -0.233  -0.232  -0.190
 -0.174  -0.171  -0.163  -0.159  -0.155  -0.148  -0.146  -0.143
 -0.143

          Ground-State Mulliken Net Atomic Charges

     Atom                 Charge (a.u.)
  ----------------------------------------
      1 O                    -0.215998
      2 C                     0.215526
      3 C                    -0.080127
      4 C                    -0.075497
      5 C                     0.220624
      6 O                    -0.182607
      7 C                    -0.057002
      8 C                    -0.048671
      9 O                    -0.169877
     10 C                     0.211986
     11 C                    -0.075892
     12 C                    -0.081156
     13 C                     0.213396
     14 O                    -0.216742
     15 O                    -0.173378
     16 O                    -0.168266
     17 O                    -0.209975
     18 C                    -0.127103
     19 C                     0.023189
     20 C                    -0.145428
     21 C                    -0.142534
     22 C                     0.023154
     23 O                    -0.191040
     24 H                     0.086850
     25 H                     0.084623
     26 H                     0.090671
     27 H                     0.078556
     28 H                     0.072988
     29 H                     0.078066
     30 H                     0.072898
     31 H                     0.088500
     32 O                    -0.201668
     33 C                    -0.128153
     34 C                     0.023891
     35 C                    -0.141529
     36 C                    -0.145329
     37 C                     0.023823
     38 O                    -0.191593
     39 H                     0.083392
     40 H                     0.088365
     41 H                     0.091506
     42 H                     0.090832
     43 H                     0.077999
     44 H                     0.073530
     45 H                     0.078070
     46 H                     0.073593
     47 H                     0.084430
     48 H                     0.088714
     49 H                     0.088977
     50 H                     0.088419
     51 H                     0.088451
     52 H                     0.086027
     53 H                     0.089706
     54 H                     0.090823
     55 H                     0.111215
     56 H                     0.086774
  ----------------------------------------
  Sum of atomic charges =    -0.000000

                    Cartesian Multipole Moments
 -----------------------------------------------------------------
    Charge (ESU x 10^10)
                 0.0000
    Dipole Moment (Debye)
         X      -1.4329      Y       2.1380      Z      -0.3494
       Tot       2.5973
    Quadrupole Moments (Debye-Ang)
        XX    -144.9225     XY       8.1782     YY    -155.9280
        XZ     -16.7435     YZ       2.0163     ZZ    -162.8520

 Total job time:  72.37s(wall), 3443.68s(cpu)
        *  Thank you very much for using Q-Chem.  Have a nice day.  *
