 Q-Chem 5.0, Q-Chem, Inc., Pleasanton, CA (2017)
 Q-Chem 5.0.1 for Intel X86 EM64T Linux

User input:
--------------------------------------------------------------
$molecule
0  1
O -5.3424041806 1.9691700963 1.3546523631
C -5.0494989585 1.5650288353 0.2099859055
C -5.3641415164 0.1537226577 -0.4145725746
C -4.1225419925 -0.8256176989 -0.4951077121
C -2.8032083244 -0.1911846018 0.0596619047
O -1.6974247455 -1.0195472022 -0.3197617957
C -0.4329282064 -0.2427904415 -0.2664001492
C 0.7519417091 -1.2662961462 -0.2956336847
O 1.8879614528 -0.617429122 -0.9918411089
C 3.1287739724 -0.9744262817 -0.3559873499
C 4.2919603279 -0.260937814 -1.1331789766
C 5.1108644874 0.7939136686 -0.2816780971
C 4.4470445748 1.368400011 1.0200411135
O 4.967469273 2.1910724601 1.8046027667
O -4.4725902306 2.3817269843 -0.8210554899
O 3.0903016834 0.9288104922 1.1260404802
O 3.2254339769 -1.8036016756 0.5734439636
C 2.4473853188 1.4914574974 2.3341908863
C 5.4310407607 -1.3408576055 -1.3898605835
C 6.5436831115 -0.7343465694 -2.3352698037
C 7.3553625332 0.1599119479 -1.3257449386
C 6.4738984664 0.0072117519 -0.0262045864
O 6.0837444448 -1.4194274693 -0.0612765375
H 3.8880729457 0.1825106281 -2.0598364304
H 5.3223692757 1.678753799 -0.9121609039
H 5.0512204005 -2.3367102525 -1.6898933309
H 7.1676304889 -1.5348662458 -2.7627344133
H 6.1050215531 -0.1507826762 -3.160571899
H 8.3638931112 -0.2479492031 -1.150865686
H 7.4485331905 1.2071259168 -1.6546690756
H 6.9767071478 0.2578290059 0.9279663677
O -2.6911222706 0.8870166022 0.6857356243
C -4.1041126985 3.7009640471 -0.2625417905
C -6.3393388237 -0.6747504482 0.5216355001
C -6.9541203469 -1.8605876974 -0.3201720539
C -5.7225872669 -2.8368792767 -0.412453325
C -4.6353907083 -2.0354270136 0.4062574196
O -5.4190923839 -1.3586644065 1.4619615525
H -5.7938035473 0.3123104525 -1.4198154397
H -3.9274576292 -1.1579228531 -1.5303770006
H -3.3331859583 3.5995657408 0.5286822935
H -7.0644513554 -0.0528702513 1.0811650165
H -7.7958234523 -2.3232196548 0.2194928238
H -7.3079729759 -1.5274264234 -1.3089525339
H -5.9339848658 -3.8016635417 0.0755900025
H -5.4048594716 -3.027777594 -1.4499084082
H -3.8275409212 -2.6507858628 0.8480524886
H -4.9824906796 4.2256866818 0.1660609514
H -3.6957501319 4.2890359008 -1.1050276029
H 1.418677145 1.0862158217 2.3462854483
H 2.4108226604 2.5994592919 2.2953725873
H 2.9782797861 1.1856967521 3.2584446359
H 1.0650557115 -1.5875677256 0.72014701
H 0.4335407477 -2.1680772568 -0.8649247892
H -0.4012367023 0.3984390206 0.6397297538
H -0.3649595562 0.4175497629 -1.1598263912
$end

$rem
JOBTYPE                   OPT
METHOD                    B3LYP
DFT_D                     d3_op
BASIS                     STO-3G
GEOM_OPT_MAX_CYCLES       100
GEOM_OPT_TOL_GRADIENT     300
GEOM_OPT_TOL_DISPLACEMENT 1200
GEOM_OPT_TOL_ENERGY       100
SYMMETRY                  False
THRESH                    12
SCF_CONVERGENCE           8
MAX_SUB_FILE_NUM          128
MEM_STATIC                400
MEM_TOTAL                 4000
$end
--------------------------------------------------------------

   16   -1510.2764981768      5.47E-09 Convergence criterion met
 Total energy in the final basis set = -1510.27649818
   14   -1510.2791577913      2.47E-09 Convergence criterion met
 Total energy in the final basis set = -1510.27915779
   13   -1510.2806965749      7.15E-09 Convergence criterion met
 Total energy in the final basis set = -1510.28069657
   13   -1510.2816435821      5.73E-09 Convergence criterion met
 Total energy in the final basis set = -1510.28164358
   13   -1510.2826579907      6.19E-09 Convergence criterion met
 Total energy in the final basis set = -1510.28265799
   13   -1510.2834532551      3.42E-09 Convergence criterion met
 Total energy in the final basis set = -1510.28345326
   13   -1510.2842776732      4.03E-09 Convergence criterion met
 Total energy in the final basis set = -1510.28427767
   13   -1510.2850814775      4.96E-09 Convergence criterion met
   12   -1510.2928168198      5.22E-09 Convergence criterion met
 Total energy in the final basis set = -1510.29281682
   11   -1510.2928299941      9.99E-09 Convergence criterion met
 Total energy in the final basis set = -1510.29282999
   10   -1510.2928411218      9.85E-09 Convergence criterion met
 Total energy in the final basis set = -1510.29284112
   10   -1510.2928362066      7.42E-09 Convergence criterion met
 Total energy in the final basis set = -1510.29283621
    9   -1510.2928342040      8.06E-09 Convergence criterion met
 Total energy in the final basis set = -1510.29283420
   10   -1510.2928357853      8.33E-09 Convergence criterion met
 Total energy in the final basis set = -1510.29283579

             Standard Nuclear Orientation (Angstroms)
    I     Atom           X                Y                Z
 ----------------------------------------------------------------
    1      O      -2.8498718785     2.2650812914     0.9475329541
    2      C      -3.5828492803     1.8006681349     0.0486822090
    3      C      -4.3780863754     0.4413335673     0.0743798322
    4      C      -3.7318263698    -0.7225334870    -0.7834041604
    5      C      -2.3457208180    -0.3306314272    -1.3913760167
    6      O      -1.7902807287    -1.4641231646    -2.0520783786
    7      C      -0.4034121508    -1.1774623418    -2.5058296315
    8      C       0.5998534345    -2.0703951226    -1.6933019017
    9      O       1.9547651820    -1.4829738766    -1.8171958403
   10      C       2.5319154843    -1.2917249070    -0.5121729933
   11      C       3.9187749834    -0.5939319290    -0.6999944178
   12      C       4.0182343448     0.8144732667     0.0264995173
   13      C       2.7257318098     1.2049567976     0.8322458049
   14      O       2.6653740824     1.5600501274     2.0282510443
   15      O      -3.9508934948     2.5032501741    -1.1475523058
   16      O       1.6001729177     1.0976848287    -0.0424762928
   17      O       1.9953713925    -1.6729686953     0.5509240470
   18      C       0.3412806716     1.3329906625     0.7066712952
   19      C       5.0831800708    -1.3853888469     0.0412725083
   20      C       6.4649978073    -0.8649433295    -0.5212174530
   21      C       6.5686637499     0.5404427862     0.1804181221
   22      C       5.2288667014     0.5646364429     1.0143330570
   23      O       5.0438511073    -0.8498744585     1.4190992226
   24      H       4.1087352076    -0.5023754205    -1.7836325883
   25      H       4.2355989612     1.6153389794    -0.7040502167
   26      H       4.9591807327    -2.4856844548     0.0489628783
   27      H       7.2826682432    -1.5339015387    -0.2087262106
   28      H       6.4667121987    -0.7949635016    -1.6207646536
   29      H       7.4413927967     0.5937049316     0.8504863223
   30      H       6.6254541506     1.3721676069    -0.5400095512
   31      H       5.2191512028     1.2243211705     1.9036554152
   32      O      -1.7774990220     0.7856303420    -1.3119614150
   33      C      -3.1681428219     3.7546307435    -1.2486624363
   34      C      -4.3611809786    -0.2093842471     1.5214118273
   35      C      -5.5336430181    -1.2616418536     1.6058295128
   36      C      -4.9569806146    -2.4250207902     0.7157916047
   37      C      -3.5405196276    -1.8438092442     0.3292355307
   38      O      -3.1422482586    -1.0536720760     1.5148596520
   39      H      -5.4077279259     0.6430655391    -0.2706882474
   40      H      -4.3971903520    -1.0617408233    -1.5982269352
   41      H      -2.0862025103     3.5394480012    -1.3674117512
   42      H      -4.3108780328     0.5276077450     2.3461285182
   43      H      -5.6844370516    -1.5883761102     2.6469403998
   44      H      -6.4835231146    -0.8592595558     1.2192310337
   45      H      -4.8439236882    -3.3578479069     1.2909098470
   46      H      -5.5763673828    -2.6316586517    -0.1719563077
   47      H      -2.7686425749    -2.5972471592     0.0777247627
   48      H      -3.3046724032     4.3972500182    -0.3550250426
   49      H      -3.5416796823     4.2808149768    -2.1463149802
   50      H      -0.4800667777     1.2298285191    -0.0334570706
   51      H       0.3200690979     2.3446604905     1.1580334625
   52      H       0.2148061586     0.5822070134     1.5125390120
   53      H       0.3255450916    -2.0966186736    -0.6146568969
   54      H       0.6118082903    -3.1079297681    -2.0887987691
   55      H      -0.1830898377    -0.1020724224    -2.3300474112
   56      H      -0.3483692581    -1.4000402681    -3.5908772522
 ----------------------------------------------------------------

   10   -1510.2928360042      8.71E-09 Convergence criterion met
 Total energy in the final basis set = -1510.29283600
 Final energy is   -1510.29283600423
 **  OPTIMIZATION CONVERGED  **

                    Orbital Energies (a.u.)
 --------------------------------------------------------------

 Alpha MOs
 -- Occupied --
-18.952 -18.929 -18.922 -18.921 -18.900 -18.890 -18.883 -18.872
-18.867 -18.863 -10.119 -10.097 -10.093 -10.090 -10.075 -10.068
-10.065 -10.059 -10.057 -10.056 -10.053 -10.047 -10.036 -10.035
-10.035 -10.032 -10.023 -10.021 -10.018 -10.016  -1.031  -1.010
 -1.001  -0.998  -0.973  -0.966  -0.955  -0.934  -0.927  -0.925
 -0.767  -0.760  -0.730  -0.722  -0.714  -0.704  -0.696  -0.657
 -0.645  -0.619  -0.596  -0.579  -0.548  -0.541  -0.540  -0.534
 -0.516  -0.505  -0.485  -0.472  -0.461  -0.458  -0.455  -0.447
 -0.442  -0.433  -0.427  -0.413  -0.409  -0.404  -0.402  -0.400
 -0.393  -0.383  -0.370  -0.368  -0.360  -0.355  -0.353  -0.348
 -0.340  -0.336  -0.335  -0.331  -0.328  -0.327  -0.323  -0.314
 -0.309  -0.306  -0.305  -0.299  -0.290  -0.280  -0.279  -0.276
 -0.267  -0.261  -0.247  -0.247  -0.241  -0.237  -0.230  -0.195
 -0.174  -0.171  -0.167  -0.165  -0.156  -0.148  -0.144  -0.143
 -0.140

          Ground-State Mulliken Net Atomic Charges

     Atom                 Charge (a.u.)
  ----------------------------------------
      1 O                    -0.218035
      2 C                     0.214864
      3 C                    -0.081891
      4 C                    -0.077096
      5 C                     0.223614
      6 O                    -0.168897
      7 C                    -0.055364
      8 C                    -0.056356
      9 O                    -0.174108
     10 C                     0.214790
     11 C                    -0.078996
     12 C                    -0.078555
     13 C                     0.211928
     14 O                    -0.208505
     15 O                    -0.175392
     16 O                    -0.178205
     17 O                    -0.213751
     18 C                    -0.141935
     19 C                     0.025769
     20 C                    -0.143716
     21 C                    -0.144305
     22 C                     0.024120
     23 O                    -0.186376
     24 H                     0.085640
     25 H                     0.083584
     26 H                     0.082654
     27 H                     0.077580
     28 H                     0.072783
     29 H                     0.077949
     30 H                     0.072681
     31 H                     0.091504
     32 O                    -0.209494
     33 C                    -0.128524
     34 C                     0.024841
     35 C                    -0.143776
     36 C                    -0.143816
     37 C                     0.024930
     38 O                    -0.188852
     39 H                     0.084770
     40 H                     0.089297
     41 H                     0.090810
     42 H                     0.090196
     43 H                     0.079313
     44 H                     0.073795
     45 H                     0.079529
     46 H                     0.073753
     47 H                     0.086823
     48 H                     0.087818
     49 H                     0.086605
     50 H                     0.105352
     51 H                     0.086866
     52 H                     0.089887
     53 H                     0.102986
     54 H                     0.082799
     55 H                     0.107566
     56 H                     0.088552
  ----------------------------------------
  Sum of atomic charges =     0.000000

                    Cartesian Multipole Moments
 -----------------------------------------------------------------
    Charge (ESU x 10^10)
                 0.0000
    Dipole Moment (Debye)
         X      -1.6696      Y      -0.6963      Z      -4.1272
       Tot       4.5062
    Quadrupole Moments (Debye-Ang)
        XX    -136.9602     XY       4.9416     YY    -154.7459
        XZ      -8.5302     YZ       0.5239     ZZ    -165.7007

 Total job time:  99.99s(wall), 4764.38s(cpu)
        *  Thank you very much for using Q-Chem.  Have a nice day.  *
