 Q-Chem 5.0, Q-Chem, Inc., Pleasanton, CA (2017)
 Q-Chem 5.0.1 for Intel X86 EM64T Linux

User input:
--------------------------------------------------------------
$molecule
0  1
O -3.94934 -3.66094 2.70899
C -3.26408 -4.56952 2.26188
C -3.36658 -6.02376 2.66595
C -2.27333 -6.57303 3.59705
C -1.29943 -5.56331 4.16282
O -0.23844 -6.20955 4.73036
C 0.9211 -5.38045 4.86191
C 1.91707 -6.01858 5.82469
O 3.25792 -5.67814 5.43854
C 4.11446 -5.43215 6.46078
C 5.50589 -5.08043 5.9908
C 5.97487 -3.6651 6.35844
C 5.16035 -2.95409 7.42038
O 5.3864 -1.8342 7.85549
O -2.28486 -4.2741 1.3666
O 4.04515 -3.49796 7.97074
O 3.93449 -5.92168 7.57337
C 3.23372 -2.91447 8.92583
C 6.62742 -5.9173 6.64475
C 7.86289 -5.91668 5.74518
C 8.32847 -4.48293 5.90422
C 7.34519 -3.99169 6.9732
O 7.06184 -5.14118 7.73495
H 5.54951 -5.24815 4.8894
H 6.01672 -2.99133 5.47476
H 6.3209 -6.96113 6.87488
H 8.61023 -6.5878 6.22656
H 7.69857 -6.24843 4.69745
H 9.37037 -4.49393 6.29429
H 8.26965 -3.85944 4.98573
H 7.7744 -3.13064 7.53192
O -1.3458 -4.34915 4.00796
C -2.01771 -3.00486 0.89797
C -4.60195 -6.28688 3.5624
C -4.99556 -7.76284 3.4972
C -3.87543 -8.38956 4.29911
C -3.12078 -7.13437 4.74612
O -4.12487 -6.15999 4.87994
H -3.49553 -6.6114 1.72937
H -1.6693 -7.3427 3.06523
H -1.73586 -2.33729 1.74019
H -5.47992 -5.65741 3.29797
H -5.94398 -7.8755 4.07018
H -5.13617 -8.17219 2.47376
H -4.31896 -8.90936 5.17739
H -3.21959 -9.08767 3.735
H -2.51921 -7.3464 5.65761
H -2.90792 -2.59478 0.37487
H -1.17206 -3.05221 0.18169
H 2.40449 -3.6096 9.1703
H 2.80229 -1.96808 8.53561
H 3.81524 -2.71237 9.85051
H 1.63699 -5.83356 6.88692
H 1.85071 -7.11527 5.65374
H 0.7159 -4.35098 5.23449
H 1.37908 -5.31501 3.84929
$end

$opt
CONSTRAINT
tors           1           2           3           4    -104.211
tors           3           4           5           6    -167.398
tors           4           5           6           7    +159.295
tors           5           6           7           8    +164.583
tors           6           7           8           9    +148.354
tors           7           8           9          10    +141.673
tors           8           9          10          11    -180.000
tors           9          10          11          12    +116.779
tors          11          12          13          14    +179.059
ENDCONSTRAINT
$end

$rem
JOBTYPE                   OPT
METHOD                    B3LYP
DFT_D                     d3_op
BASIS                     STO-3G
GEOM_OPT_MAX_CYCLES       100
GEOM_OPT_TOL_GRADIENT     300
GEOM_OPT_TOL_DISPLACEMENT 1200
GEOM_OPT_TOL_ENERGY       100
SYMMETRY                  False
THRESH                    12
SCF_CONVERGENCE           8
MAX_SUB_FILE_NUM          128
MEM_STATIC                400
MEM_TOTAL                 4000
$end
--------------------------------------------------------------

   15   -1510.1242096737      9.84E-09 Convergence criterion met
 Total energy in the final basis set = -1510.12420967
   13   -1510.1980716158      6.97E-09 Convergence criterion met
 Total energy in the final basis set = -1510.19807162
   13   -1510.2390690147      8.48E-09 Convergence criterion met
 Total energy in the final basis set = -1510.23906901
   14   -1510.2572548241      2.36E-09 Convergence criterion met
 Total energy in the final basis set = -1510.25725482
   13   -1510.2659190215      8.30E-09 Convergence criterion met
 Total energy in the final basis set = -1510.26591902
   13   -1510.2693133740      3.58E-09 Convergence criterion met
 Total energy in the final basis set = -1510.26931337
   12   -1510.2712048855      7.38E-09 Convergence criterion met
 Total energy in the final basis set = -1510.27120489
   12   -1510.2722836093      7.40E-09 Convergence criterion met
   12   -1510.2764213019      4.66E-09 Convergence criterion met
 Total energy in the final basis set = -1510.27642130
   11   -1510.2764669552      6.18E-09 Convergence criterion met
 Total energy in the final basis set = -1510.27646696
   11   -1510.2764878848      4.46E-09 Convergence criterion met
 Total energy in the final basis set = -1510.27648788
   10   -1510.2765068088      7.18E-09 Convergence criterion met
 Total energy in the final basis set = -1510.27650681
    9   -1510.2765131860      5.94E-09 Convergence criterion met
 Total energy in the final basis set = -1510.27651319
    9   -1510.2765145879      4.96E-09 Convergence criterion met
 Total energy in the final basis set = -1510.27651459

             Standard Nuclear Orientation (Angstroms)
    I     Atom           X                Y                Z
 ----------------------------------------------------------------
    1      O      -5.3424041806     1.9691700963     1.3546523631
    2      C      -5.0494989585     1.5650288353     0.2099859055
    3      C      -5.3641415164     0.1537226577    -0.4145725746
    4      C      -4.1225419925    -0.8256176989    -0.4951077121
    5      C      -2.8032083244    -0.1911846018     0.0596619047
    6      O      -1.6974247455    -1.0195472022    -0.3197617957
    7      C      -0.4329282064    -0.2427904415    -0.2664001492
    8      C       0.7519417091    -1.2662961462    -0.2956336847
    9      O       1.8879614528    -0.6174291220    -0.9918411089
   10      C       3.1287739724    -0.9744262817    -0.3559873499
   11      C       4.2919603279    -0.2609378140    -1.1331789766
   12      C       5.1108644874     0.7939136686    -0.2816780971
   13      C       4.4470445748     1.3684000110     1.0200411135
   14      O       4.9674692730     2.1910724601     1.8046027667
   15      O      -4.4725902306     2.3817269843    -0.8210554899
   16      O       3.0903016834     0.9288104922     1.1260404802
   17      O       3.2254339769    -1.8036016756     0.5734439636
   18      C       2.4473853188     1.4914574974     2.3341908863
   19      C       5.4310407607    -1.3408576055    -1.3898605835
   20      C       6.5436831115    -0.7343465694    -2.3352698037
   21      C       7.3553625332     0.1599119479    -1.3257449386
   22      C       6.4738984664     0.0072117519    -0.0262045864
   23      O       6.0837444448    -1.4194274693    -0.0612765375
   24      H       3.8880729457     0.1825106281    -2.0598364304
   25      H       5.3223692757     1.6787537990    -0.9121609039
   26      H       5.0512204005    -2.3367102525    -1.6898933309
   27      H       7.1676304889    -1.5348662458    -2.7627344133
   28      H       6.1050215531    -0.1507826762    -3.1605718990
   29      H       8.3638931112    -0.2479492031    -1.1508656860
   30      H       7.4485331905     1.2071259168    -1.6546690756
   31      H       6.9767071478     0.2578290059     0.9279663677
   32      O      -2.6911222706     0.8870166022     0.6857356243
   33      C      -4.1041126985     3.7009640471    -0.2625417905
   34      C      -6.3393388237    -0.6747504482     0.5216355001
   35      C      -6.9541203469    -1.8605876974    -0.3201720539
   36      C      -5.7225872669    -2.8368792767    -0.4124533250
   37      C      -4.6353907083    -2.0354270136     0.4062574196
   38      O      -5.4190923839    -1.3586644065     1.4619615525
   39      H      -5.7938035473     0.3123104525    -1.4198154397
   40      H      -3.9274576292    -1.1579228531    -1.5303770006
   41      H      -3.3331859583     3.5995657408     0.5286822935
   42      H      -7.0644513554    -0.0528702513     1.0811650165
   43      H      -7.7958234523    -2.3232196548     0.2194928238
   44      H      -7.3079729759    -1.5274264234    -1.3089525339
   45      H      -5.9339848658    -3.8016635417     0.0755900025
   46      H      -5.4048594716    -3.0277775940    -1.4499084082
   47      H      -3.8275409212    -2.6507858628     0.8480524886
   48      H      -4.9824906796     4.2256866818     0.1660609514
   49      H      -3.6957501319     4.2890359008    -1.1050276029
   50      H       1.4186771450     1.0862158217     2.3462854483
   51      H       2.4108226604     2.5994592919     2.2953725873
   52      H       2.9782797861     1.1856967521     3.2584446359
   53      H       1.0650557115    -1.5875677256     0.7201470100
   54      H       0.4335407477    -2.1680772568    -0.8649247892
   55      H      -0.4012367023     0.3984390206     0.6397297538
   56      H      -0.3649595562     0.4175497629    -1.1598263912
 ----------------------------------------------------------------

    9   -1510.2765140631      3.42E-09 Convergence criterion met
 Total energy in the final basis set = -1510.27651406
 Final energy is   -1510.27651406309
 **  OPTIMIZATION CONVERGED  **

                    Orbital Energies (a.u.)
 --------------------------------------------------------------

 Alpha MOs
 -- Occupied --
-18.945 -18.938 -18.927 -18.919 -18.890 -18.889 -18.887 -18.879
-18.867 -18.861 -10.108 -10.106 -10.098 -10.090 -10.076 -10.071
-10.069 -10.062 -10.062 -10.061 -10.057 -10.054 -10.042 -10.041
-10.039 -10.033 -10.022 -10.021 -10.021 -10.019  -1.020  -1.019
 -1.005  -0.997  -0.972  -0.970  -0.945  -0.942  -0.931  -0.924
 -0.765  -0.763  -0.729  -0.723  -0.714  -0.706  -0.697  -0.667
 -0.655  -0.618  -0.598  -0.579  -0.547  -0.546  -0.540  -0.537
 -0.517  -0.512  -0.486  -0.479  -0.465  -0.457  -0.452  -0.451
 -0.434  -0.433  -0.427  -0.416  -0.413  -0.408  -0.404  -0.399
 -0.394  -0.389  -0.378  -0.365  -0.363  -0.359  -0.355  -0.350
 -0.342  -0.337  -0.333  -0.332  -0.331  -0.327  -0.324  -0.316
 -0.313  -0.308  -0.305  -0.301  -0.297  -0.296  -0.277  -0.276
 -0.273  -0.255  -0.249  -0.246  -0.245  -0.235  -0.234  -0.185
 -0.183  -0.170  -0.165  -0.161  -0.159  -0.150  -0.145  -0.143
 -0.141

          Ground-State Mulliken Net Atomic Charges

     Atom                 Charge (a.u.)
  ----------------------------------------
      1 O                    -0.215137
      2 C                     0.215599
      3 C                    -0.081314
      4 C                    -0.078385
      5 C                     0.214813
      6 O                    -0.175486
      7 C                    -0.048669
      8 C                    -0.052327
      9 O                    -0.176610
     10 C                     0.219651
     11 C                    -0.079058
     12 C                    -0.079417
     13 C                     0.211102
     14 O                    -0.212964
     15 O                    -0.177250
     16 O                    -0.168108
     17 O                    -0.216187
     18 C                    -0.125663
     19 C                     0.026198
     20 C                    -0.145495
     21 C                    -0.142177
     22 C                     0.025719
     23 O                    -0.184680
     24 H                     0.085855
     25 H                     0.085450
     26 H                     0.083723
     27 H                     0.078646
     28 H                     0.073489
     29 H                     0.078957
     30 H                     0.074083
     31 H                     0.087878
     32 O                    -0.204519
     33 C                    -0.128580
     34 C                     0.025172
     35 C                    -0.144131
     36 C                    -0.143588
     37 C                     0.025565
     38 O                    -0.187641
     39 H                     0.083575
     40 H                     0.086685
     41 H                     0.091549
     42 H                     0.089114
     43 H                     0.078203
     44 H                     0.073144
     45 H                     0.078423
     46 H                     0.073488
     47 H                     0.084633
     48 H                     0.086619
     49 H                     0.085464
     50 H                     0.091419
     51 H                     0.091723
     52 H                     0.094120
     53 H                     0.099893
     54 H                     0.086228
     55 H                     0.092521
     56 H                     0.088684
  ----------------------------------------
  Sum of atomic charges =    -0.000000

                    Cartesian Multipole Moments
 -----------------------------------------------------------------
    Charge (ESU x 10^10)
                 0.0000
    Dipole Moment (Debye)
         X       0.0031      Y       0.2329      Z      -3.9927
       Tot       3.9995
    Quadrupole Moments (Debye-Ang)
        XX    -158.5866     XY       9.6834     YY    -159.5744
        XZ       0.8437     YZ       0.4786     ZZ    -161.4774

 Total job time:  59.14s(wall), 2810.72s(cpu)
        *  Thank you very much for using Q-Chem.  Have a nice day.  *
