 Q-Chem 5.0, Q-Chem, Inc., Pleasanton, CA (2017)
 Q-Chem 5.0.1 for Intel X86 EM64T Linux

User input:
--------------------------------------------------------------
$molecule
0  1
O 3.8206419758 -1.9547856637 0.09134953
C 4.8600438734 -1.3524222204 -0.258823336
C 5.0157958561 0.1538912942 -0.6548888641
C 3.6725184186 0.9846655963 -0.5977073311
C 2.5627631213 0.2993280492 0.2836566841
O 1.4155861357 0.035007858 -0.545224292
C 0.6772918706 -1.1443512849 -0.0324381105
C -0.5168425809 -0.7337320093 0.8948512084
O -1.4493647892 0.116222212 0.1145932667
C -2.8067615506 -0.1885704534 0.4572979827
C -3.734797453 0.7429780314 -0.4013581879
C -5.1813936075 0.1600373289 -0.6449610359
C -5.3564014121 -1.3966650256 -0.5859290694
O -6.4430791916 -2.0085847015 -0.4846256258
O 6.1437176745 -1.9729291371 -0.3631025823
O -4.1136798096 -2.0275152566 -0.9221200058
O -3.1428603291 -0.9924495532 1.3535744176
C -4.2610900093 -3.5000837301 -0.9238256706
C -4.1078386045 1.9818523629 0.5292831072
C -4.9591292676 3.038489162 -0.283237901
C -6.3855081477 2.3718027772 -0.2640466151
C -6.0464982089 0.9844242664 0.4055140362
O -5.0824271255 1.3663742374 1.4627045266
H -3.219452456 1.033615575 -1.3325802227
H -5.5050471475 0.4390103652 -1.6667916407
H -3.248824499 2.4026055523 1.0874323714
H -4.9573425185 4.0139350287 0.2280113646
H -4.570077431 3.176161521 -1.3051290121
H -7.084681627 2.9405435129 0.3700005853
H -6.824554004 2.2636183549 -1.2686855819
H -6.904447716 0.4283971065 0.8310648032
O 2.6050439278 0.0726819785 1.5114241243
C 6.0497890999 -3.4027137576 0.01455423
C 5.9683920699 1.0184716042 0.2859733165
C 6.5125090035 2.2144717483 -0.5882762758
C 5.2042700049 3.0747152106 -0.7511259091
C 4.1900615198 2.2802079504 0.1649740246
O 5.0442288563 1.6911068916 1.2248314536
H 5.4192620969 0.1640195789 -1.6847933017
H 3.264091458 1.1945477188 -1.6009754386
H 5.3694337563 -3.9594965291 -0.6618552336
H 6.7337027608 0.4339978218 0.8323219537
H 7.2910577468 2.7671191167 -0.0381534237
H 6.9290646352 1.8772862682 -1.5508473308
H 5.3428614168 4.100962786 -0.3761987463
H 4.858609656 3.1252407311 -1.7963497608
H 3.3857715286 2.8929871926 0.6158654149
H 5.6895869094 -3.526462551 1.056251534
H 7.07397906 -3.8091460455 -0.0744426327
H -3.7224894441 -3.9248772118 -0.0530131433
H -3.8163439077 -3.8925079273 -1.8584835396
H -5.3362583543 -3.765354064 -0.8650103155
H -1.057183927 -1.6281040943 1.274891423
H -0.1308203192 -0.1605360821 1.7658777663
H 1.3598496126 -1.821940494 0.5238301789
H 0.2839194558 -1.669109011 -0.9281501788
$end

$rem
JOBTYPE                   OPT
METHOD                    B3LYP
DFT_D                     d3_op
BASIS                     STO-3G
GEOM_OPT_MAX_CYCLES       100
GEOM_OPT_TOL_GRADIENT     300
GEOM_OPT_TOL_DISPLACEMENT 1200
GEOM_OPT_TOL_ENERGY       100
SYMMETRY                  False
THRESH                    12
SCF_CONVERGENCE           8
MAX_SUB_FILE_NUM          128
MEM_STATIC                400
MEM_TOTAL                 4000
$end
--------------------------------------------------------------

   16   -1510.2717744479      5.20E-09 Convergence criterion met
 Total energy in the final basis set = -1510.27177445
   13   -1510.2756179087      6.63E-09 Convergence criterion met
 Total energy in the final basis set = -1510.27561791
   13   -1510.2784975080      4.94E-09 Convergence criterion met
 Total energy in the final basis set = -1510.27849751
   13   -1510.2807416202      8.28E-09 Convergence criterion met
 Total energy in the final basis set = -1510.28074162
   13   -1510.2824458383      4.03E-09 Convergence criterion met
 Total energy in the final basis set = -1510.28244584
   13   -1510.2837609088      4.37E-09 Convergence criterion met
 Total energy in the final basis set = -1510.28376091
   12   -1510.2848348895      9.83E-09 Convergence criterion met
 Total energy in the final basis set = -1510.28483489
   13   -1510.2857227906      5.15E-09 Convergence criterion met
   11   -1510.2898896068      5.09E-09 Convergence criterion met
 Total energy in the final basis set = -1510.28988961
   12   -1510.2898979746      2.98E-09 Convergence criterion met
 Total energy in the final basis set = -1510.28989797
   11   -1510.2898928786      9.66E-09 Convergence criterion met
 Total energy in the final basis set = -1510.28989288
   11   -1510.2898825712      8.49E-09 Convergence criterion met
 Total energy in the final basis set = -1510.28988257
    9   -1510.2898837136      9.21E-09 Convergence criterion met
 Total energy in the final basis set = -1510.28988371
    9   -1510.2898812194      3.47E-09 Convergence criterion met
 Total energy in the final basis set = -1510.28988122

             Standard Nuclear Orientation (Angstroms)
    I     Atom           X                Y                Z
 ----------------------------------------------------------------
    1      O       3.4554903383    -1.7430504178     0.9671581681
    2      C       3.9461252351    -1.4952218705    -0.1575844026
    3      C       3.9977541923    -0.1110298071    -0.8841117651
    4      C       3.0969808496     0.9831981714    -0.1798140509
    5      C       2.2563473866     0.4467155866     1.0376306031
    6      O       1.1535398593    -0.3079413442     0.5087424704
    7      C       0.3777012308    -0.9261208557     1.6064083440
    8      C      -0.5374261846     0.1067555712     2.3645855255
    9      O      -1.3574738258     0.9230326772     1.4353891817
   10      C      -2.4178098136     0.1416512345     0.8842807213
   11      C      -3.2702455138     1.0435101140    -0.0679130454
   12      C      -4.1259678322     0.1987600193    -1.0972114762
   13      C      -3.8654273898    -1.3513564824    -1.0331104732
   14      O      -4.6732503232    -2.2419534117    -0.6962716601
   15      O       4.5911551928    -2.4688755713    -0.9803476145
   16      O      -2.5481496535    -1.6003224876    -1.5492865602
   17      O      -2.6292667306    -1.0607180035     1.1641072757
   18      C      -2.2301020148    -3.0398011562    -1.4280984398
   19      C      -4.4287329036     1.7669281417     0.7515057539
   20      C      -5.0758306575     2.8807379204    -0.1643204652
   21      C      -5.9395576879     2.0055146848    -1.1467152949
   22      C      -5.5996953095     0.5521890377    -0.6342701170
   23      O      -5.4744105300     0.7239953797     0.8332366241
   24      H      -2.6065470987     1.7713128616    -0.5665086722
   25      H      -3.9324131753     0.5385157880    -2.1306958455
   26      H      -4.1300387616     2.1040053777     1.7633449309
   27      H      -5.7050922528     3.5548593477     0.4384661836
   28      H      -4.3140680273     3.4819400007    -0.6864325040
   29      H      -7.0152337347     2.2145726392    -1.0331344840
   30      H      -5.6602742391     2.1483995992    -2.2027021363
   31      H      -6.3449615059    -0.2330342058    -0.8668649348
   32      O       2.4262797951     0.7061331895     2.2477281260
   33      C       4.5935683832    -3.7859831323    -0.3005669001
   34      C       5.4394430334     0.5444229684    -0.7235704435
   35      C       5.5488833461     1.7721075817    -1.7121910211
   36      C       4.6733684335     2.8458122062    -0.9645503701
   37      C       4.1957274075     2.0221224675     0.2941534401
   38      O       5.3679005848     1.1718432693     0.6140674867
   39      H       3.7329487973    -0.2544315747    -1.9467824768
   40      H       2.3980450591     1.4326710694    -0.9078170859
   41      H       3.5629396662    -4.1367699370    -0.0887240816
   42      H       6.2755987425    -0.1799030076    -0.7759179693
   43      H       6.5973955201     2.0969200901    -1.8053130801
   44      H       5.1636279458     1.5312044808    -2.7160255330
   45      H       5.2776265246     3.7123043566    -0.6523149863
   46      H       3.8273844974     3.2036715641    -1.5728029064
   47      H       3.9010048897     2.6166454161     1.1804302272
   48      H       5.1570816205    -3.7503378346     0.6541153877
   49      H       5.0883768674    -4.4873791446    -0.9971911674
   50      H      -2.2289922710    -3.3613043315    -0.3661786524
   51      H      -1.2186780126    -3.1684381631    -1.8557969703
   52      H      -2.9527291959    -3.6700184800    -1.9860101439
   53      H      -1.1825135169    -0.4476851375     3.0802903886
   54      H       0.0977394662     0.8298033290     2.9131746955
   55      H       1.0539376737    -1.4086497350     2.3450550011
   56      H      -0.2584613980    -1.6956889837     1.1254586538
 ----------------------------------------------------------------

    9   -1510.2898804331      5.59E-09 Convergence criterion met
 Total energy in the final basis set = -1510.28988043
 Final energy is   -1510.28988043315
 **  OPTIMIZATION CONVERGED  **

                    Orbital Energies (a.u.)
 --------------------------------------------------------------

 Alpha MOs
 -- Occupied --
-18.943 -18.938 -18.922 -18.919 -18.888 -18.885 -18.885 -18.878
-18.865 -18.862 -10.107 -10.102 -10.094 -10.090 -10.070 -10.069
-10.065 -10.063 -10.060 -10.058 -10.055 -10.055 -10.041 -10.037
-10.035 -10.032 -10.022 -10.020 -10.020 -10.018  -1.020  -1.016
 -1.001  -0.997  -0.971  -0.968  -0.943  -0.939  -0.928  -0.925
 -0.764  -0.761  -0.726  -0.722  -0.712  -0.705  -0.694  -0.668
 -0.655  -0.617  -0.597  -0.581  -0.547  -0.543  -0.538  -0.534
 -0.514  -0.506  -0.481  -0.470  -0.457  -0.454  -0.451  -0.450
 -0.435  -0.431  -0.429  -0.417  -0.413  -0.412  -0.406  -0.403
 -0.391  -0.379  -0.373  -0.367  -0.363  -0.352  -0.349  -0.348
 -0.342  -0.341  -0.336  -0.331  -0.331  -0.326  -0.323  -0.313
 -0.310  -0.306  -0.302  -0.302  -0.297  -0.279  -0.277  -0.275
 -0.270  -0.260  -0.255  -0.245  -0.242  -0.235  -0.232  -0.188
 -0.184  -0.166  -0.163  -0.160  -0.155  -0.146  -0.144  -0.143
 -0.141

          Ground-State Mulliken Net Atomic Charges

     Atom                 Charge (a.u.)
  ----------------------------------------
      1 O                    -0.208204
      2 C                     0.214929
      3 C                    -0.078036
      4 C                    -0.081016
      5 C                     0.217631
      6 O                    -0.176986
      7 C                    -0.051523
      8 C                    -0.053212
      9 O                    -0.170098
     10 C                     0.214788
     11 C                    -0.078128
     12 C                    -0.080466
     13 C                     0.215711
     14 O                    -0.213871
     15 O                    -0.168867
     16 O                    -0.177286
     17 O                    -0.212869
     18 C                    -0.128791
     19 C                     0.025322
     20 C                    -0.143715
     21 C                    -0.143940
     22 C                     0.024570
     23 O                    -0.188266
     24 H                     0.087024
     25 H                     0.083033
     26 H                     0.083155
     27 H                     0.078090
     28 H                     0.073425
     29 H                     0.077822
     30 H                     0.072797
     31 H                     0.090217
     32 O                    -0.218131
     33 C                    -0.128288
     34 C                     0.025241
     35 C                    -0.143738
     36 C                    -0.143901
     37 C                     0.024701
     38 O                    -0.188882
     39 H                     0.087560
     40 H                     0.084714
     41 H                     0.090596
     42 H                     0.084302
     43 H                     0.078388
     44 H                     0.073764
     45 H                     0.078241
     46 H                     0.073280
     47 H                     0.089628
     48 H                     0.091329
     49 H                     0.092108
     50 H                     0.090762
     51 H                     0.085955
     52 H                     0.086779
     53 H                     0.091540
     54 H                     0.100144
     55 H                     0.096433
     56 H                     0.094235
  ----------------------------------------
  Sum of atomic charges =    -0.000000

                    Cartesian Multipole Moments
 -----------------------------------------------------------------
    Charge (ESU x 10^10)
                -0.0000
    Dipole Moment (Debye)
         X       1.7400      Y       1.0218      Z      -3.2366
       Tot       3.8141
    Quadrupole Moments (Debye-Ang)
        XX    -167.8571     XY     -15.3025     YY    -148.6744
        XZ      -3.5993     YZ      -1.7535     ZZ    -160.0936

 Total job time:  108.68s(wall), 5177.70s(cpu)
        *  Thank you very much for using Q-Chem.  Have a nice day.  *
