 Q-Chem 5.0, Q-Chem, Inc., Pleasanton, CA (2017)
 Q-Chem 5.0.1 for Intel X86 EM64T Linux

User input:
--------------------------------------------------------------
$molecule
0  1
O -3.94934 -3.66094 2.70899
C -3.26408 -4.56952 2.26188
C -3.36658 -6.02376 2.66595
C -4.4167 -6.38525 3.72916
C -5.36749 -5.28289 4.14013
O -5.24118 -5.03581 5.47745
C -5.55424 -3.68482 5.83253
C -7.00256 -3.58642 6.30031
O -7.20683 -4.43387 7.44179
C -8.02287 -3.93231 8.40182
C -8.19744 -4.86865 9.57376
C -8.5625 -4.18517 10.89961
C -9.04294 -2.75176 10.79374
O -9.62228 -2.13156 11.67368
O -2.34157 -4.28307 1.30601
O -8.22891 -1.94413 10.05269
O -8.93338 -3.17588 8.07488
C -8.33488 -0.57285 9.88854
C -9.38948 -5.83194 9.41157
C -9.17026 -7.06732 10.28274
C -9.35216 -6.47291 11.66502
C -9.77711 -5.0459 11.29648
O -10.45418 -5.19369 10.07165
H -7.2617 -5.46687 9.66727
H -7.73633 -4.20766 11.64381
H -9.57349 -6.12894 8.35577
H -10.01902 -7.759 10.07838
H -8.2129 -7.60801 10.12157
H -10.17838 -7.01715 12.17401
H -8.44328 -6.47017 12.30508
H -10.36626 -4.5944 12.125
O -6.16221 -4.71704 3.39605
C -2.11405 -3.0208 0.79924
C -3.84642 -6.90907 1.49917
C -3.42588 -8.35944 1.73675
C -4.37993 -8.75269 2.84573
C -5.20449 -7.46809 2.9735
O -5.24339 -6.96482 1.65955
H -2.34451 -6.3287 2.98521
H -3.92718 -6.79711 4.64213
H -1.79116 -2.33471 1.61127
H -3.48164 -6.56354 0.50708
H -3.68892 -8.93969 0.82335
H -2.34723 -8.49928 1.96419
H -5.02555 -9.5807 2.47662
H -3.90069 -9.04579 3.80474
H -6.18842 -7.6831 3.44636
H -3.03683 -2.62873 0.32052
H -1.31086 -3.07454 0.03604
H -8.43162 -0.34598 8.80659
H -7.41507 -0.08707 10.27318
H -9.21624 -0.14293 10.41033
H -7.21025 -2.51324 6.52126
H -7.67349 -3.91448 5.47817
H -5.38733 -2.97045 4.99223
H -4.87709 -3.36588 6.65298
$end

$opt
CONSTRAINT
tors           1           2           3           4      -0.186
tors           3           4           5           6    -119.922
tors           4           5           6           7    +151.370
tors           5           6           7           8     +95.892
tors           6           7           8           9     +59.643
tors           7           8           9          10    +141.673
tors           8           9          10          11    -180.000
tors           9          10          11          12    +154.628
tors          11          12          13          14    +164.646
ENDCONSTRAINT
$end

$rem
JOBTYPE                   OPT
METHOD                    B3LYP
DFT_D                     d3_op
BASIS                     STO-3G
GEOM_OPT_MAX_CYCLES       100
GEOM_OPT_TOL_GRADIENT     300
GEOM_OPT_TOL_DISPLACEMENT 1200
GEOM_OPT_TOL_ENERGY       100
SYMMETRY                  False
THRESH                    12
SCF_CONVERGENCE           8
MAX_SUB_FILE_NUM          128
MEM_STATIC                400
MEM_TOTAL                 4000
$end
--------------------------------------------------------------

   16   -1510.1156791007      1.64E-09 Convergence criterion met
 Total energy in the final basis set = -1510.11567910
   14   -1510.1886466616      6.38E-09 Convergence criterion met
 Total energy in the final basis set = -1510.18864666
   14   -1510.2291164313      7.16E-09 Convergence criterion met
 Total energy in the final basis set = -1510.22911643
   14   -1510.2492566962      5.99E-09 Convergence criterion met
 Total energy in the final basis set = -1510.24925670
   14   -1510.2576586962      3.30E-09 Convergence criterion met
 Total energy in the final basis set = -1510.25765870
   13   -1510.2622297722      5.29E-09 Convergence criterion met
 Total energy in the final basis set = -1510.26222977
   13   -1510.2648120708      2.08E-09 Convergence criterion met
 Total energy in the final basis set = -1510.26481207
   13   -1510.2665116780      2.18E-09 Convergence criterion met
    9   -1510.2716754297      3.31E-09 Convergence criterion met
 Total energy in the final basis set = -1510.27167543
    9   -1510.2716766182      3.52E-09 Convergence criterion met
 Total energy in the final basis set = -1510.27167662
    9   -1510.2716776462      1.96E-09 Convergence criterion met
 Total energy in the final basis set = -1510.27167765
    9   -1510.2716787059      2.12E-09 Convergence criterion met
 Total energy in the final basis set = -1510.27167871
    9   -1510.2716798182      2.23E-09 Convergence criterion met
 Total energy in the final basis set = -1510.27167982
    9   -1510.2716810036      2.56E-09 Convergence criterion met
 Total energy in the final basis set = -1510.27168100

             Standard Nuclear Orientation (Angstroms)
    I     Atom           X                Y                Z
 ----------------------------------------------------------------
    1      O       3.8206419758    -1.9547856637     0.0913495300
    2      C       4.8600438734    -1.3524222204    -0.2588233360
    3      C       5.0157958561     0.1538912942    -0.6548888641
    4      C       3.6725184186     0.9846655963    -0.5977073311
    5      C       2.5627631213     0.2993280492     0.2836566841
    6      O       1.4155861357     0.0350078580    -0.5452242920
    7      C       0.6772918706    -1.1443512849    -0.0324381105
    8      C      -0.5168425809    -0.7337320093     0.8948512084
    9      O      -1.4493647892     0.1162222120     0.1145932667
   10      C      -2.8067615506    -0.1885704534     0.4572979827
   11      C      -3.7347974530     0.7429780314    -0.4013581879
   12      C      -5.1813936075     0.1600373289    -0.6449610359
   13      C      -5.3564014121    -1.3966650256    -0.5859290694
   14      O      -6.4430791916    -2.0085847015    -0.4846256258
   15      O       6.1437176745    -1.9729291371    -0.3631025823
   16      O      -4.1136798096    -2.0275152566    -0.9221200058
   17      O      -3.1428603291    -0.9924495532     1.3535744176
   18      C      -4.2610900093    -3.5000837301    -0.9238256706
   19      C      -4.1078386045     1.9818523629     0.5292831072
   20      C      -4.9591292676     3.0384891620    -0.2832379010
   21      C      -6.3855081477     2.3718027772    -0.2640466151
   22      C      -6.0464982089     0.9844242664     0.4055140362
   23      O      -5.0824271255     1.3663742374     1.4627045266
   24      H      -3.2194524560     1.0336155750    -1.3325802227
   25      H      -5.5050471475     0.4390103652    -1.6667916407
   26      H      -3.2488244990     2.4026055523     1.0874323714
   27      H      -4.9573425185     4.0139350287     0.2280113646
   28      H      -4.5700774310     3.1761615210    -1.3051290121
   29      H      -7.0846816270     2.9405435129     0.3700005853
   30      H      -6.8245540040     2.2636183549    -1.2686855819
   31      H      -6.9044477160     0.4283971065     0.8310648032
   32      O       2.6050439278     0.0726819785     1.5114241243
   33      C       6.0497890999    -3.4027137576     0.0145542300
   34      C       5.9683920699     1.0184716042     0.2859733165
   35      C       6.5125090035     2.2144717483    -0.5882762758
   36      C       5.2042700049     3.0747152106    -0.7511259091
   37      C       4.1900615198     2.2802079504     0.1649740246
   38      O       5.0442288563     1.6911068916     1.2248314536
   39      H       5.4192620969     0.1640195789    -1.6847933017
   40      H       3.2640914580     1.1945477188    -1.6009754386
   41      H       5.3694337563    -3.9594965291    -0.6618552336
   42      H       6.7337027608     0.4339978218     0.8323219537
   43      H       7.2910577468     2.7671191167    -0.0381534237
   44      H       6.9290646352     1.8772862682    -1.5508473308
   45      H       5.3428614168     4.1009627860    -0.3761987463
   46      H       4.8586096560     3.1252407311    -1.7963497608
   47      H       3.3857715286     2.8929871926     0.6158654149
   48      H       5.6895869094    -3.5264625510     1.0562515340
   49      H       7.0739790600    -3.8091460455    -0.0744426327
   50      H      -3.7224894441    -3.9248772118    -0.0530131433
   51      H      -3.8163439077    -3.8925079273    -1.8584835396
   52      H      -5.3362583543    -3.7653540640    -0.8650103155
   53      H      -1.0571839270    -1.6281040943     1.2748914230
   54      H      -0.1308203192    -0.1605360821     1.7658777663
   55      H       1.3598496126    -1.8219404940     0.5238301789
   56      H       0.2839194558    -1.6691090110    -0.9281501788
 ----------------------------------------------------------------

    9   -1510.2716819869      2.27E-09 Convergence criterion met
 Total energy in the final basis set = -1510.27168199
 Final energy is   -1510.27168198693
 **  OPTIMIZATION CONVERGED  **

                    Orbital Energies (a.u.)
 --------------------------------------------------------------

 Alpha MOs
 -- Occupied --
-18.942 -18.930 -18.923 -18.915 -18.889 -18.885 -18.884 -18.872
-18.866 -18.865 -10.107 -10.098 -10.092 -10.091 -10.070 -10.064
-10.062 -10.059 -10.059 -10.058 -10.057 -10.055 -10.041 -10.036
-10.035 -10.034 -10.022 -10.021 -10.019 -10.018  -1.019  -1.009
 -1.002  -0.996  -0.971  -0.968  -0.944  -0.934  -0.929  -0.922
 -0.764  -0.761  -0.725  -0.721  -0.711  -0.704  -0.692  -0.667
 -0.657  -0.613  -0.597  -0.574  -0.547  -0.542  -0.538  -0.534
 -0.514  -0.507  -0.481  -0.470  -0.460  -0.454  -0.451  -0.445
 -0.435  -0.431  -0.429  -0.417  -0.412  -0.410  -0.407  -0.401
 -0.385  -0.380  -0.374  -0.362  -0.360  -0.358  -0.352  -0.348
 -0.343  -0.336  -0.331  -0.330  -0.328  -0.320  -0.318  -0.316
 -0.310  -0.305  -0.303  -0.301  -0.292  -0.288  -0.281  -0.273
 -0.267  -0.259  -0.249  -0.243  -0.235  -0.234  -0.231  -0.185
 -0.176  -0.167  -0.161  -0.157  -0.155  -0.147  -0.146  -0.140
 -0.139

          Ground-State Mulliken Net Atomic Charges

     Atom                 Charge (a.u.)
  ----------------------------------------
      1 O                    -0.212623
      2 C                     0.212641
      3 C                    -0.079585
      4 C                    -0.080554
      5 C                     0.215206
      6 O                    -0.179295
      7 C                    -0.048016
      8 C                    -0.054800
      9 O                    -0.175050
     10 C                     0.216455
     11 C                    -0.076440
     12 C                    -0.078840
     13 C                     0.215305
     14 O                    -0.216508
     15 O                    -0.169745
     16 O                    -0.171083
     17 O                    -0.214957
     18 C                    -0.135164
     19 C                     0.024657
     20 C                    -0.145277
     21 C                    -0.141939
     22 C                     0.025513
     23 O                    -0.188092
     24 H                     0.087656
     25 H                     0.084021
     26 H                     0.083452
     27 H                     0.078113
     28 H                     0.073469
     29 H                     0.078138
     30 H                     0.073226
     31 H                     0.089759
     32 O                    -0.208998
     33 C                    -0.128332
     34 C                     0.026194
     35 C                    -0.142004
     36 C                    -0.145398
     37 C                     0.025823
     38 O                    -0.184691
     39 H                     0.085469
     40 H                     0.086155
     41 H                     0.089232
     42 H                     0.087347
     43 H                     0.078462
     44 H                     0.073594
     45 H                     0.078383
     46 H                     0.073632
     47 H                     0.084093
     48 H                     0.092096
     49 H                     0.092011
     50 H                     0.087292
     51 H                     0.084681
     52 H                     0.101995
     53 H                     0.096982
     54 H                     0.089286
     55 H                     0.100768
     56 H                     0.086285
  ----------------------------------------
  Sum of atomic charges =     0.000000

                    Cartesian Multipole Moments
 -----------------------------------------------------------------
    Charge (ESU x 10^10)
                -0.0000
    Dipole Moment (Debye)
         X       2.7118      Y       0.2470      Z      -3.9657
       Tot       4.8106
    Quadrupole Moments (Debye-Ang)
        XX    -153.9724     XY     -11.1594     YY    -145.5640
        XZ       1.0139     YZ      -1.6595     ZZ    -164.6980

 Total job time:  70.88s(wall), 3369.47s(cpu)
        *  Thank you very much for using Q-Chem.  Have a nice day.  *
