 Q-Chem 5.0, Q-Chem, Inc., Pleasanton, CA (2017)
 Q-Chem 5.0.1 for Intel X86 EM64T Linux

User input:
--------------------------------------------------------------
$molecule
0  1
O -3.94934 -3.66094 2.70899
C -3.26408 -4.56952 2.26188
C -3.36658 -6.02376 2.66595
C -4.57839 -6.43209 3.51955
C -5.64454 -5.37882 3.72459
O -6.50302 -5.77342 4.71085
C -7.23192 -4.68655 5.29107
C -8.41794 -5.21632 6.09034
O -9.06542 -4.13547 6.77985
C -10.41746 -4.21488 6.84934
C -11.03814 -3.05124 7.58511
C -10.70742 -1.66819 7.0054
C -10.12302 -1.66032 5.60714
O -9.81251 -0.66149 4.97431
O -2.27008 -4.26459 1.38634
O -10.19501 -2.78075 4.83574
O -11.08523 -5.11322 6.34959
C -9.95282 -2.8408 3.47593
C -12.58058 -3.00164 7.55482
C -13.09121 -2.18758 8.74328
C -12.67481 -0.78953 8.33121
C -12.12046 -1.06873 6.92986
O -12.88465 -2.15866 6.46975
H -10.69796 -3.13917 8.64177
H -9.9989 -1.1063 7.65273
H -13.05947 -4.00467 7.54854
H -14.20326 -2.24632 8.72173
H -12.72843 -2.51603 9.74094
H -13.58634 -0.15385 8.27647
H -11.91197 -0.30933 8.9818
H -12.15711 -0.14895 6.30514
O -6.10132 -4.73774 2.78406
C -2.00746 -2.99361 0.91982
C -3.59655 -6.93097 1.43612
C -3.15434 -8.35984 1.75085
C -4.26084 -8.79737 2.68652
C -5.16086 -7.55877 2.64747
O -4.99357 -7.05829 1.34466
H -2.39578 -6.29262 3.13943
H -4.26574 -6.79295 4.52561
H -1.75005 -2.32053 1.76539
H -3.08096 -6.57228 0.51853
H -3.23694 -8.9476 0.80848
H -2.12322 -8.45579 2.15386
H -4.78387 -9.66725 2.23028
H -3.93912 -9.04717 3.72073
H -6.20091 -7.82712 2.93741
H -2.89176 -2.59522 0.37783
H -1.14764 -3.03343 0.2201
H -10.06626 -3.88964 3.133
H -8.92216 -2.49546 3.24857
H -10.68365 -2.20575 2.9315
H -9.07727 -5.7859 5.39742
H -8.02044 -5.91835 6.85446
H -7.64954 -4.01407 4.51447
H -6.55375 -4.09743 5.94715
$end

$opt
CONSTRAINT
tors           1           2           3           4     +11.096
tors           3           4           5           6    -167.398
tors           4           5           6           7    +159.295
tors           5           6           7           8    +164.583
tors           6           7           8           9    +174.205
tors           7           8           9          10    +142.784
tors           8           9          10          11    -180.000
tors           9          10          11          12     +57.315
tors          11          12          13          14    +179.059
ENDCONSTRAINT
$end

$rem
JOBTYPE                   OPT
METHOD                    B3LYP
DFT_D                     d3_op
BASIS                     STO-3G
GEOM_OPT_MAX_CYCLES       100
GEOM_OPT_TOL_GRADIENT     300
GEOM_OPT_TOL_DISPLACEMENT 1200
GEOM_OPT_TOL_ENERGY       100
SYMMETRY                  False
THRESH                    12
SCF_CONVERGENCE           8
MAX_SUB_FILE_NUM          128
MEM_STATIC                400
MEM_TOTAL                 4000
$end
--------------------------------------------------------------

   16   -1510.1212251781      1.97E-09 Convergence criterion met
 Total energy in the final basis set = -1510.12122518
   13   -1510.1951623753      7.51E-09 Convergence criterion met
 Total energy in the final basis set = -1510.19516238
   13   -1510.2358854298      9.64E-09 Convergence criterion met
 Total energy in the final basis set = -1510.23588543
   13   -1510.2555113689      8.02E-09 Convergence criterion met
 Total energy in the final basis set = -1510.25551137
   13   -1510.2635257753      8.19E-09 Convergence criterion met
 Total energy in the final basis set = -1510.26352578
   13   -1510.2671889222      6.53E-09 Convergence criterion met
 Total energy in the final basis set = -1510.26718892
   13   -1510.2688075727      4.03E-09 Convergence criterion met
 Total energy in the final basis set = -1510.26880757
   13   -1510.2694117067      3.10E-09 Convergence criterion met
   11   -1510.2703974057      6.41E-09 Convergence criterion met
 Total energy in the final basis set = -1510.27039741
   11   -1510.2704034735      3.91E-09 Convergence criterion met
 Total energy in the final basis set = -1510.27040347
    9   -1510.2704099704      8.23E-09 Convergence criterion met
 Total energy in the final basis set = -1510.27040997
    9   -1510.2704158108      5.05E-09 Convergence criterion met
 Total energy in the final basis set = -1510.27041581
    9   -1510.2704197023      4.88E-09 Convergence criterion met
 Total energy in the final basis set = -1510.27041970
    9   -1510.2704213279      4.58E-09 Convergence criterion met
 Total energy in the final basis set = -1510.27042133

             Standard Nuclear Orientation (Angstroms)
    I     Atom           X                Y                Z
 ----------------------------------------------------------------
    1      O       3.8476282657    -2.1253304739    -1.1872865792
    2      C       4.8665523714    -1.5131838406    -0.8062895953
    3      C       5.0872294939     0.0270691790    -0.6038093940
    4      C       3.8137744658     0.9577762973    -0.6514407812
    5      C       2.4502373715     0.2753298276    -0.2642405638
    6      O       1.4016138739     1.1840979841    -0.6550944926
    7      C       0.1189761440     0.4529464991    -0.7946448431
    8      C      -1.0206041138     1.5222813625    -0.8219492719
    9      O      -2.2878047792     0.8075732612    -1.1029014453
   10      C      -3.3680515014     1.3897316971    -0.3553642032
   11      C      -4.6698971913     0.5859757996    -0.7015808989
   12      C      -4.6383284526    -0.9730459706    -0.4282902138
   13      C      -3.5591459394    -1.5006566897     0.5878490943
   14      O      -3.4067921362    -2.6937939682     0.9300844124
   15      O       6.1063889416    -2.1600718161    -0.4819961071
   16      O      -2.8738152107    -0.4116396401     1.2092706943
   17      O      -3.2664863344     2.4011465637     0.3701053806
   18      C      -1.9322196268    -0.9080821293     2.2373566472
   19      C      -5.9488070375     1.0321635560     0.1254597618
   20      C      -7.2119688028     0.7302588567    -0.7699740279
   21      C      -7.2164239841    -0.8439712274    -0.7409128738
   22      C      -6.0529354154    -1.1420439609     0.2882360971
   23      O      -6.0676205530     0.0225287224     1.2035966831
   24      H      -4.8499730683     0.7465303210    -1.7811861990
   25      H      -4.5677583026    -1.5604096312    -1.3611194933
   26      H      -5.8805870227     2.0526412323     0.5505244866
   27      H      -8.1206322032     1.1433378061    -0.3033047710
   28      H      -7.1164689490     1.1396854845    -1.7882926236
   29      H      -8.1733763604    -1.2438912701    -0.3702506470
   30      H      -7.0089311112    -1.2852920601    -1.7290487581
   31      H      -6.1569951513    -2.0876748422     0.8556061095
   32      O       2.2506626134    -0.7970769136     0.3411026328
   33      C       5.9715101694    -3.6239079587    -0.6581937169
   34      C       5.7530123457     0.4638536662     0.7780110264
   35      C       6.6044204351     1.7582885079     0.4835618269
   36      C       5.4572239115     2.7969189327     0.1928750903
   37      C       4.1696697280     1.9493482088     0.5463863825
   38      O       4.6303171126     0.9949801018     1.5839167515
   39      H       5.7663011180     0.3292069331    -1.4241739111
   40      H       3.6988152375     1.4755759404    -1.6194117478
   41      H       5.7427433392    -3.8906000054    -1.7104480068
   42      H       6.2778244413    -0.3508523613     1.3131370856
   43      H       7.1868220882     2.0428070508     1.3746801813
   44      H       7.2939802926     1.6274486468    -0.3654380316
   45      H       5.5304596995     3.6805848247     0.8461036564
   46      H       5.4466709255     3.1338166578    -0.8563068931
   47      H       3.3062670468     2.5378371465     0.9133053350
   48      H       5.1742997307    -4.0416548974    -0.0099278725
   49      H       6.9474993392    -4.0569945711    -0.3714937150
   50      H      -1.4634224898    -0.0090573488     2.6780652745
   51      H      -1.1489779923    -1.5577390816     1.7951645113
   52      H      -2.4604547217    -1.4794267933     3.0274379737
   53      H      -1.0954568791     2.0637606714     0.1450050390
   54      H      -0.8208384412     2.2650990042    -1.6253234724
   55      H      -0.0292430922    -0.2546910747     0.0484511250
   56      H       0.1129948128    -0.1298631112    -1.7423321956
 ----------------------------------------------------------------

    9   -1510.2704217675      2.24E-09 Convergence criterion met
 Total energy in the final basis set = -1510.27042177
 Final energy is   -1510.27042176752
 **  OPTIMIZATION CONVERGED  **

                    Orbital Energies (a.u.)
 --------------------------------------------------------------

 Alpha MOs
 -- Occupied --
-18.939 -18.930 -18.924 -18.922 -18.888 -18.885 -18.880 -18.875
-18.872 -18.869 -10.099 -10.099 -10.098 -10.098 -10.069 -10.067
-10.064 -10.062 -10.061 -10.060 -10.059 -10.056 -10.039 -10.039
-10.037 -10.035 -10.022 -10.020 -10.020 -10.018  -1.015  -1.011
 -1.005  -1.002  -0.971  -0.969  -0.938  -0.935  -0.933  -0.929
 -0.764  -0.762  -0.727  -0.722  -0.713  -0.704  -0.694  -0.661
 -0.660  -0.613  -0.597  -0.577  -0.545  -0.543  -0.539  -0.537
 -0.516  -0.509  -0.485  -0.470  -0.462  -0.460  -0.451  -0.442
 -0.437  -0.435  -0.427  -0.412  -0.410  -0.410  -0.408  -0.398
 -0.393  -0.379  -0.374  -0.370  -0.360  -0.358  -0.352  -0.348
 -0.344  -0.338  -0.332  -0.330  -0.329  -0.319  -0.315  -0.314
 -0.308  -0.306  -0.302  -0.299  -0.297  -0.293  -0.293  -0.274
 -0.268  -0.255  -0.249  -0.244  -0.242  -0.234  -0.233  -0.181
 -0.178  -0.171  -0.167  -0.160  -0.155  -0.147  -0.145  -0.143
 -0.141

          Ground-State Mulliken Net Atomic Charges

     Atom                 Charge (a.u.)
  ----------------------------------------
      1 O                    -0.206282
      2 C                     0.210793
      3 C                    -0.080433
      4 C                    -0.077750
      5 C                     0.214645
      6 O                    -0.182904
      7 C                    -0.048620
      8 C                    -0.049968
      9 O                    -0.178970
     10 C                     0.222591
     11 C                    -0.080115
     12 C                    -0.075980
     13 C                     0.213003
     14 O                    -0.214802
     15 O                    -0.174595
     16 O                    -0.167112
     17 O                    -0.217445
     18 C                    -0.126766
     19 C                     0.023834
     20 C                    -0.142388
     21 C                    -0.145107
     22 C                     0.024482
     23 O                    -0.191182
     24 H                     0.082904
     25 H                     0.086998
     26 H                     0.090740
     27 H                     0.078034
     28 H                     0.072884
     29 H                     0.078492
     30 H                     0.073613
     31 H                     0.085723
     32 O                    -0.198631
     33 C                    -0.128639
     34 C                     0.025826
     35 C                    -0.141714
     36 C                    -0.145354
     37 C                     0.024661
     38 O                    -0.190151
     39 H                     0.083441
     40 H                     0.086126
     41 H                     0.087317
     42 H                     0.090215
     43 H                     0.078195
     44 H                     0.073991
     45 H                     0.078672
     46 H                     0.073784
     47 H                     0.084970
     48 H                     0.091345
     49 H                     0.089257
     50 H                     0.093839
     51 H                     0.091971
     52 H                     0.093371
     53 H                     0.098676
     54 H                     0.082845
     55 H                     0.092837
     56 H                     0.084835
  ----------------------------------------
  Sum of atomic charges =     0.000000

                    Cartesian Multipole Moments
 -----------------------------------------------------------------
    Charge (ESU x 10^10)
                 0.0000
    Dipole Moment (Debye)
         X       1.5495      Y       0.8512      Z      -2.7177
       Tot       3.2421
    Quadrupole Moments (Debye-Ang)
        XX    -137.3467     XY       2.1408     YY    -161.3819
        XZ       4.3442     YZ      -2.1105     ZZ    -158.8964

 Total job time:  55.76s(wall), 2651.59s(cpu)
        *  Thank you very much for using Q-Chem.  Have a nice day.  *
