 Q-Chem 5.0, Q-Chem, Inc., Pleasanton, CA (2017)
 Q-Chem 5.0.1 for Intel X86 EM64T Linux

User input:
--------------------------------------------------------------
$molecule
0  1
O 3.8476282657 -2.1253304739 -1.1872865792
C 4.8665523714 -1.5131838406 -0.8062895953
C 5.0872294939 0.027069179 -0.603809394
C 3.8137744658 0.9577762973 -0.6514407812
C 2.4502373715 0.2753298276 -0.2642405638
O 1.4016138739 1.1840979841 -0.6550944926
C 0.118976144 0.4529464991 -0.7946448431
C -1.0206041138 1.5222813625 -0.8219492719
O -2.2878047792 0.8075732612 -1.1029014453
C -3.3680515014 1.3897316971 -0.3553642032
C -4.6698971913 0.5859757996 -0.7015808989
C -4.6383284526 -0.9730459706 -0.4282902138
C -3.5591459394 -1.5006566897 0.5878490943
O -3.4067921362 -2.6937939682 0.9300844124
O 6.1063889416 -2.1600718161 -0.4819961071
O -2.8738152107 -0.4116396401 1.2092706943
O -3.2664863344 2.4011465637 0.3701053806
C -1.9322196268 -0.9080821293 2.2373566472
C -5.9488070375 1.032163556 0.1254597618
C -7.2119688028 0.7302588567 -0.7699740279
C -7.2164239841 -0.8439712274 -0.7409128738
C -6.0529354154 -1.1420439609 0.2882360971
O -6.067620553 0.0225287224 1.2035966831
H -4.8499730683 0.746530321 -1.781186199
H -4.5677583026 -1.5604096312 -1.3611194933
H -5.8805870227 2.0526412323 0.5505244866
H -8.1206322032 1.1433378061 -0.303304771
H -7.116468949 1.1396854845 -1.7882926236
H -8.1733763604 -1.2438912701 -0.370250647
H -7.0089311112 -1.2852920601 -1.7290487581
H -6.1569951513 -2.0876748422 0.8556061095
O 2.2506626134 -0.7970769136 0.3411026328
C 5.9715101694 -3.6239079587 -0.6581937169
C 5.7530123457 0.4638536662 0.7780110264
C 6.6044204351 1.7582885079 0.4835618269
C 5.4572239115 2.7969189327 0.1928750903
C 4.169669728 1.9493482088 0.5463863825
O 4.6303171126 0.9949801018 1.5839167515
H 5.766301118 0.3292069331 -1.4241739111
H 3.6988152375 1.4755759404 -1.6194117478
H 5.7427433392 -3.8906000054 -1.7104480068
H 6.2778244413 -0.3508523613 1.3131370856
H 7.1868220882 2.0428070508 1.3746801813
H 7.2939802926 1.6274486468 -0.3654380316
H 5.5304596995 3.6805848247 0.8461036564
H 5.4466709255 3.1338166578 -0.8563068931
H 3.3062670468 2.5378371465 0.913305335
H 5.1742997307 -4.0416548974 -0.0099278725
H 6.9474993392 -4.0569945711 -0.371493715
H -1.4634224898 -0.0090573488 2.6780652745
H -1.1489779923 -1.5577390816 1.7951645113
H -2.4604547217 -1.4794267933 3.0274379737
H -1.0954568791 2.0637606714 0.145005039
H -0.8208384412 2.2650990042 -1.6253234724
H -0.0292430922 -0.2546910747 0.048451125
H 0.1129948128 -0.1298631112 -1.7423321956
$end

$rem
JOBTYPE                   OPT
METHOD                    B3LYP
DFT_D                     d3_op
BASIS                     STO-3G
GEOM_OPT_MAX_CYCLES       100
GEOM_OPT_TOL_GRADIENT     300
GEOM_OPT_TOL_DISPLACEMENT 1200
GEOM_OPT_TOL_ENERGY       100
SYMMETRY                  False
THRESH                    12
SCF_CONVERGENCE           8
MAX_SUB_FILE_NUM          128
MEM_STATIC                400
MEM_TOTAL                 4000
$end
--------------------------------------------------------------

   16   -1510.2704567937      7.01E-09 Convergence criterion met
 Total energy in the final basis set = -1510.27045679
   14   -1510.2733230376      1.55E-09 Convergence criterion met
 Total energy in the final basis set = -1510.27332304
   14   -1510.2753977220      1.93E-09 Convergence criterion met
 Total energy in the final basis set = -1510.27539772
   13   -1510.2767782788      6.89E-09 Convergence criterion met
 Total energy in the final basis set = -1510.27677828
   13   -1510.2781641431      3.09E-09 Convergence criterion met
 Total energy in the final basis set = -1510.27816414
   13   -1510.2793859795      2.99E-09 Convergence criterion met
 Total energy in the final basis set = -1510.27938598
   13   -1510.2804366075      2.71E-09 Convergence criterion met
 Total energy in the final basis set = -1510.28043661
   13   -1510.2813054265      2.42E-09 Convergence criterion met
   11   -1510.2943084004      8.48E-09 Convergence criterion met
 Total energy in the final basis set = -1510.29430840
   12   -1510.2943727249      2.84E-09 Convergence criterion met
 Total energy in the final basis set = -1510.29437272
   12   -1510.2943704522      8.25E-09 Convergence criterion met
 Total energy in the final basis set = -1510.29437045
   12   -1510.2944209326      7.24E-09 Convergence criterion met
 Total energy in the final basis set = -1510.29442093
   11   -1510.2944318898      7.85E-09 Convergence criterion met
 Total energy in the final basis set = -1510.29443189
   11   -1510.2944370902      2.50E-09 Convergence criterion met
 Total energy in the final basis set = -1510.29443709

             Standard Nuclear Orientation (Angstroms)
    I     Atom           X                Y                Z
 ----------------------------------------------------------------
    1      O       2.4346334440    -1.3247800223     0.0014784739
    2      C       3.6748537543    -1.2148278573    -0.1406043021
    3      C       4.4922250112     0.1143385182    -0.2433073368
    4      C       3.5567641231     1.3860226926    -0.3613623941
    5      C       2.0235299430     1.0418939921    -0.4415438772
    6      O       1.7401387295     0.6360808173    -1.7875026057
    7      C       0.3510635410     0.1332078443    -1.9153547712
    8      C      -0.7272278012     1.2751872933    -1.8412439057
    9      O      -2.0489801414     0.6062736257    -1.8686153821
   10      C      -2.9761237331     1.2610197606    -0.9884657173
   11      C      -4.2922217956     0.4061993555    -1.0010080222
   12      C      -4.0621205940    -1.0970243610    -0.5452358519
   13      C      -2.5906933559    -1.3964512890    -0.0916591328
   14      O      -1.8515819737    -2.3269331652    -0.4847700075
   15      O       4.5720210969    -2.3210062649    -0.2084264542
   16      O      -2.2327609492    -0.4334602497     0.9001297200
   17      O      -2.7468803646     2.3234542727    -0.3754318180
   18      C      -0.8759119594    -0.6945898303     1.4425413336
   19      C      -5.3358146521     0.9052630965     0.0801698391
   20      C      -6.7492785541     0.3077978778    -0.2879936431
   21      C      -6.5501733920    -1.2015446160     0.1134191726
   22      C      -5.0738375860    -1.1782139845     0.6804783444
   23      O      -4.9584750157     0.1587283818     1.3032715942
   24      H      -4.7163795810     0.4408476048    -2.0215247674
   25      H      -4.3247800748    -1.8115785109    -1.3447170124
   26      H      -5.3023174257     1.9960137091     0.2681910197
   27      H      -7.5377966694     0.7844151001     0.3157964660
   28      H      -6.9935117667     0.4373308417    -1.3544916502
   29      H      -7.2588706933    -1.5083563930     0.8991096166
   30      H      -6.6539973931    -1.8871251143    -0.7426832134
   31      H      -4.8408250813    -1.9717369317     1.4167373302
   32      O       1.1721897868     1.2267882440     0.4583389193
   33      C       3.8193682165    -3.5930283525    -0.0861793651
   34      C       5.2370480342     0.4198699768     1.1294918522
   35      C       6.2745878875     1.5867633259     0.8896940742
   36      C       5.3177648014     2.8343060811     0.8108519573
   37      C       3.9083602713     2.1463247478     0.9841791425
   38      O       4.1759522465     1.0497207388     1.9453849511
   39      H       5.2039107794     0.0347291676    -1.0843229679
   40      H       3.8207632135     1.9814675506    -1.2536091955
   41      H       3.0655921450    -3.6977555359    -0.8928490208
   42      H       5.6424724857    -0.4783206487     1.6349602786
   43      H       6.9696813425     1.6629810216     1.7408150392
   44      H       6.8599443719     1.4378644886    -0.0319792692
   45      H       5.5060718381     3.5380798766     1.6370515430
   46      H       5.4017421276     3.3778068522    -0.1437586287
   47      H       3.0946841139     2.7956389598     1.3613561016
   48      H       3.3019981037    -3.6666665169     0.8920890962
   49      H       4.5703963823    -4.3997179092    -0.1708700457
   50      H      -0.9470500593    -0.6573474134     2.5459810092
   51      H      -0.1643742683     0.0867228905     1.0844202096
   52      H      -0.5252816474    -1.6935989481     1.1156453248
   53      H      -0.6158611414     1.8599396517    -0.9037947345
   54      H      -0.6284372579     1.9617648351    -2.7095252091
   55      H       0.1348149965    -0.6275196386    -1.1361682669
   56      H       0.3092562969    -0.3582085321    -2.9080654488
 ----------------------------------------------------------------

    9   -1510.2944362738      7.96E-09 Convergence criterion met
 Total energy in the final basis set = -1510.29443627
 Final energy is   -1510.29443627384
 **  OPTIMIZATION CONVERGED  **

                    Orbital Energies (a.u.)
 --------------------------------------------------------------

 Alpha MOs
 -- Occupied --
-18.948 -18.930 -18.923 -18.917 -18.890 -18.890 -18.881 -18.875
-18.872 -18.859 -10.110 -10.104 -10.094 -10.087 -10.071 -10.066
-10.065 -10.061 -10.060 -10.054 -10.052 -10.044 -10.038 -10.031
-10.029 -10.026 -10.023 -10.022 -10.015 -10.014  -1.024  -1.009
 -1.005  -0.994  -0.973  -0.963  -0.947  -0.937  -0.930  -0.921
 -0.767  -0.757  -0.728  -0.720  -0.712  -0.701  -0.692  -0.669
 -0.639  -0.613  -0.594  -0.580  -0.548  -0.540  -0.538  -0.531
 -0.515  -0.503  -0.484  -0.469  -0.464  -0.459  -0.457  -0.438
 -0.434  -0.429  -0.424  -0.418  -0.413  -0.400  -0.399  -0.394
 -0.385  -0.382  -0.371  -0.369  -0.357  -0.354  -0.350  -0.346
 -0.341  -0.340  -0.334  -0.330  -0.325  -0.324  -0.316  -0.315
 -0.308  -0.304  -0.302  -0.299  -0.291  -0.280  -0.278  -0.277
 -0.270  -0.261  -0.253  -0.241  -0.237  -0.230  -0.227  -0.189
 -0.178  -0.168  -0.164  -0.158  -0.151  -0.148  -0.147  -0.141
 -0.136

          Ground-State Mulliken Net Atomic Charges

     Atom                 Charge (a.u.)
  ----------------------------------------
      1 O                    -0.206909
      2 C                     0.216091
      3 C                    -0.078023
      4 C                    -0.080972
      5 C                     0.224670
      6 O                    -0.175564
      7 C                    -0.050486
      8 C                    -0.057160
      9 O                    -0.179684
     10 C                     0.217893
     11 C                    -0.077604
     12 C                    -0.077936
     13 C                     0.208895
     14 O                    -0.222608
     15 O                    -0.167146
     16 O                    -0.170914
     17 O                    -0.208187
     18 C                    -0.151635
     19 C                     0.024835
     20 C                    -0.143889
     21 C                    -0.144252
     22 C                     0.026057
     23 O                    -0.184503
     24 H                     0.083041
     25 H                     0.083051
     26 H                     0.089522
     27 H                     0.077303
     28 H                     0.072028
     29 H                     0.076960
     30 H                     0.072715
     31 H                     0.082054
     32 O                    -0.217269
     33 C                    -0.128225
     34 C                     0.025274
     35 C                    -0.143696
     36 C                    -0.143874
     37 C                     0.024975
     38 O                    -0.188463
     39 H                     0.088372
     40 H                     0.085511
     41 H                     0.093277
     42 H                     0.085374
     43 H                     0.079067
     44 H                     0.074093
     45 H                     0.079187
     46 H                     0.073827
     47 H                     0.090777
     48 H                     0.092584
     49 H                     0.093088
     50 H                     0.081402
     51 H                     0.109808
     52 H                     0.090300
     53 H                     0.106024
     54 H                     0.079745
     55 H                     0.101968
     56 H                     0.089232
  ----------------------------------------
  Sum of atomic charges =    -0.000000

                    Cartesian Multipole Moments
 -----------------------------------------------------------------
    Charge (ESU x 10^10)
                 0.0000
    Dipole Moment (Debye)
         X       2.2813      Y      -0.9083      Z      -2.4625
       Tot       3.4775
    Quadrupole Moments (Debye-Ang)
        XX    -133.3873     XY       4.4209     YY    -155.4707
        XZ       3.9715     YZ      -5.4869     ZZ    -161.7401

 Total job time:  149.48s(wall), 7119.68s(cpu)
        *  Thank you very much for using Q-Chem.  Have a nice day.  *
