 Q-Chem 5.0, Q-Chem, Inc., Pleasanton, CA (2017)
 Q-Chem 5.0.1 for Intel X86 EM64T Linux

User input:
--------------------------------------------------------------
$molecule
0  1
O -4.8312789236 0.3935054479 2.095303223
C -5.6446157528 0.6449157195 1.1837071086
C -5.5334716619 0.3696188464 -0.3613764457
C -4.0897643628 0.0269730302 -0.8982265052
C -2.8596884937 0.6126448245 -0.1206650249
O -1.6876602548 0.1555433305 -0.8161436764
C -0.4652071336 0.6685312684 -0.1508778295
C 0.7351568807 -0.1738923176 -0.70113508
O 1.9365898236 0.6975156155 -0.7203101264
C 3.1007701321 -0.042251469 -0.3370992151
C 4.3348061182 0.918445783 -0.3734439543
C 5.485171724 0.4619993075 0.6128180562
C 5.0768672767 -0.6969969713 1.5924985124
O 5.668217397 -1.782839838 1.7668692183
O -6.9338744672 1.2386661153 1.4043096526
O 3.9630144236 -0.2429657638 2.3757027031
O 3.1002989027 -1.2591095331 -0.0442011733
C 3.4949461532 -1.3311644865 3.2622005281
C 5.0798745263 0.7592785092 -1.7711104335
C 6.1816731503 1.886205428 -1.8942606816
C 7.3143678244 1.3121213385 -0.9630772852
C 6.6125597044 0.0135892253 -0.406122753
O 5.8556436772 -0.4860047091 -1.5791549932
H 3.998368975 1.9539247005 -0.1918324436
H 5.8203089004 1.3183013062 1.2265197518
H 4.4016328286 0.666434253 -2.6418223654
H 6.521676177 1.9834012463 -2.9373900642
H 5.8064238272 2.8641361074 -1.5522656596
H 8.2115630706 1.0428446877 -1.5430487966
H 7.6058304318 2.0100504842 -0.1618686587
H 7.2824579596 -0.7755854318 -0.0126518117
O -2.8215457431 1.4113952281 0.8373782658
C -7.1395751372 1.4718887086 2.8516986384
C -6.2383078835 -1.0395179224 -0.6000799855
C -6.300733057 -1.3787265292 -2.1438249796
C -4.8323992024 -1.8798527573 -2.4137015896
C -4.1628252306 -1.5640886608 -1.0209753094
O -5.214446461 -1.9681591836 -0.0614742695
H -6.013419906 1.1932337375 -0.9181411142
H -3.994609227 0.44200892 -1.9195719162
H -6.376080106 2.1608189202 3.2674366961
H -7.1960054222 -1.1589224514 -0.0566481746
H -7.0436141211 -2.1685840154 -2.3368060431
H -6.5637706054 -0.4941972234 -2.746323861
H -4.8087505548 -2.9635992236 -2.6119963967
H -4.3429320909 -1.3541473092 -3.2490677854
H -3.2116106575 -2.0908729526 -0.8122060817
H -7.1067777979 0.524441695 3.4278227414
H -8.1417396698 1.9285734922 2.9486359748
H 2.6698964937 -0.9052920529 3.8624350134
H 4.3002020885 -1.6882704544 3.9361576591
H 3.1190692823 -2.1925241343 2.6725277008
H 0.9390882437 -1.0788394979 -0.0903967166
H 0.5009671775 -0.4966944598 -1.7399489319
H -0.5493584624 0.5921385068 0.9537799695
H -0.307474519 1.7406625017 -0.4065564688
$end

$rem
JOBTYPE                   OPT
METHOD                    B3LYP
DFT_D                     d3_op
BASIS                     STO-3G
GEOM_OPT_MAX_CYCLES       100
GEOM_OPT_TOL_GRADIENT     300
GEOM_OPT_TOL_DISPLACEMENT 1200
GEOM_OPT_TOL_ENERGY       100
SYMMETRY                  False
THRESH                    12
SCF_CONVERGENCE           8
MAX_SUB_FILE_NUM          128
MEM_STATIC                400
MEM_TOTAL                 4000
$end
--------------------------------------------------------------

   16   -1510.2739381247      6.24E-09 Convergence criterion met
 Total energy in the final basis set = -1510.27393812
   13   -1510.2753434801      5.62E-09 Convergence criterion met
 Total energy in the final basis set = -1510.27534348
   13   -1510.2766955555      3.76E-09 Convergence criterion met
 Total energy in the final basis set = -1510.27669556
   13   -1510.2778333177      4.60E-09 Convergence criterion met
 Total energy in the final basis set = -1510.27783332
   13   -1510.2788301819      3.83E-09 Convergence criterion met
 Total energy in the final basis set = -1510.27883018
   13   -1510.2797147260      4.20E-09 Convergence criterion met
 Total energy in the final basis set = -1510.27971473
   13   -1510.2806076065      8.39E-09 Convergence criterion met
 Total energy in the final basis set = -1510.28060761
   13   -1510.2814319274      8.70E-09 Convergence criterion met
   10   -1510.3007708501      5.83E-09 Convergence criterion met
 Total energy in the final basis set = -1510.30077085
    9   -1510.3007717327      5.67E-09 Convergence criterion met
 Total energy in the final basis set = -1510.30077173
    9   -1510.3007743570      8.37E-09 Convergence criterion met
 Total energy in the final basis set = -1510.30077436
    9   -1510.3007739544      6.10E-09 Convergence criterion met
 Total energy in the final basis set = -1510.30077395
    9   -1510.3007740966      6.57E-09 Convergence criterion met
 Total energy in the final basis set = -1510.30077410
    9   -1510.3007754715      7.50E-09 Convergence criterion met
 Total energy in the final basis set = -1510.30077547

             Standard Nuclear Orientation (Angstroms)
    I     Atom           X                Y                Z
 ----------------------------------------------------------------
    1      O       3.3344167314    -2.6167612491     0.2668983071
    2      C       3.7379291625    -1.4959166787    -0.1082137272
    3      C       3.6883030705    -0.1444396018     0.6927836373
    4      C       2.6399179140     0.8929884233     0.1141914131
    5      C       1.9196734259     0.4090137238    -1.1830743482
    6      O       1.6276456882     1.5587887250    -1.9854654054
    7      C       0.8065272933     1.1774051335    -3.1573001216
    8      C      -0.5471571769     1.9864826997    -3.1372956173
    9      O      -1.7412702327     1.2045664581    -2.7364736742
   10      C      -1.7245500471     0.8773132014    -1.3427538096
   11      C      -3.1352460981     0.3106838862    -0.9750023724
   12      C      -3.1534322980    -0.5692430505     0.3377106020
   13      C      -1.7413629054    -0.9522943198     0.9218836853
   14      O      -1.2724739506    -0.6017278179     2.0263407070
   15      O       4.3991501774    -1.2474621403    -1.3563580129
   16      O      -1.1301387302    -1.8554209953     0.0051115899
   17      O      -0.7595548570     1.0899396098    -0.5774092376
   18      C       0.1383919294    -2.3963889040     0.5591641932
   19      C      -4.0668788826     1.5216068626    -0.5216322878
   20      C      -5.5564793568     1.0065665284    -0.3996368056
   21      C      -5.5024814914     0.2273325053     0.9672768397
   22      C      -3.9722860014     0.3630206817     1.3253433028
   23      O      -3.6450619327     1.7391259843     0.8787273977
   24      H      -3.5459102475    -0.2219760970    -1.8505027154
   25      H      -3.6981710609    -1.5112930399     0.1447954019
   26      H      -3.9373616586     2.4448456040    -1.1197112224
   27      H      -6.2549731913     1.8573495358    -0.3560027356
   28      H      -5.8395063768     0.3613394725    -1.2467034776
   29      H      -6.1235892452     0.7175056743     1.7339447465
   30      H      -5.8189381811    -0.8236724381     0.8729948953
   31      H      -3.7047683920     0.2315241361     2.3918043976
   32      O       1.6254497091    -0.7638197000    -1.5064557608
   33      C       4.3668761602    -2.4699065186    -2.1901920420
   34      C       3.1133725762    -0.3759070674     2.1465734273
   35      C       3.3717969786     0.9189066856     3.0122066860
   36      C       2.2700807871     1.8957580111     2.4484018038
   37      C       1.6124713013     1.0023846784     1.3304303904
   38      O       1.6464880828    -0.3488426556     1.9330692916
   39      H       4.7026982035     0.2932555095     0.7085332146
   40      H       3.1050913121     1.8709704929    -0.0988200170
   41      H       3.3241764236    -2.7501196625    -2.4456706037
   42      H       3.4148737096    -1.3369671659     2.6058580336
   43      H       3.2149324842     0.7068589737     4.0816228342
   44      H       4.3935577039     1.3069396449     2.8735848113
   45      H       1.5249132185     2.1484864747     3.2193776038
   46      H       2.6930469953     2.8290979667     2.0437840217
   47      H       0.5786881003     1.2582189874     1.0183471274
   48      H       4.8492470212    -3.3287839992    -1.6802985241
   49      H       4.9226258204    -2.2270104671    -3.1145431510
   50      H       0.6976198787    -2.8058912493    -0.3008724421
   51      H      -0.0821486917    -3.2137281154     1.2758493453
   52      H       0.7462545433    -1.6071207493     1.0710821081
   53      H      -0.4157461758     2.8703396721    -2.4743152074
   54      H      -0.7840346047     2.3379219675    -4.1616009885
   55      H       0.6269793166     0.0793029113    -3.1297710465
   56      H       1.3778863807     1.4334785817    -4.0743213480
 ----------------------------------------------------------------

    8   -1510.3007751675      8.97E-09 Convergence criterion met
 Total energy in the final basis set = -1510.30077517
 Final energy is   -1510.30077516755
 **  OPTIMIZATION CONVERGED  **

                    Orbital Energies (a.u.)
 --------------------------------------------------------------

 Alpha MOs
 -- Occupied --
-18.939 -18.933 -18.924 -18.904 -18.897 -18.883 -18.883 -18.877
-18.867 -18.849 -10.106 -10.101 -10.093 -10.078 -10.077 -10.070
-10.059 -10.058 -10.057 -10.052 -10.051 -10.036 -10.035 -10.034
-10.025 -10.018 -10.017 -10.015 -10.015 -10.010  -1.020  -1.011
 -1.001  -0.984  -0.972  -0.966  -0.944  -0.937  -0.928  -0.910
 -0.762  -0.758  -0.726  -0.719  -0.711  -0.701  -0.694  -0.656
 -0.632  -0.618  -0.592  -0.577  -0.544  -0.539  -0.534  -0.531
 -0.511  -0.504  -0.481  -0.464  -0.459  -0.449  -0.448  -0.444
 -0.436  -0.428  -0.425  -0.411  -0.406  -0.400  -0.397  -0.390
 -0.378  -0.375  -0.374  -0.361  -0.354  -0.353  -0.348  -0.345
 -0.342  -0.334  -0.330  -0.328  -0.326  -0.320  -0.318  -0.307
 -0.305  -0.302  -0.297  -0.295  -0.293  -0.279  -0.272  -0.268
 -0.265  -0.257  -0.249  -0.246  -0.239  -0.231  -0.216  -0.189
 -0.172  -0.168  -0.160  -0.157  -0.154  -0.145  -0.141  -0.139
 -0.129

          Ground-State Mulliken Net Atomic Charges

     Atom                 Charge (a.u.)
  ----------------------------------------
      1 O                    -0.212494
      2 C                     0.214277
      3 C                    -0.080778
      4 C                    -0.079145
      5 C                     0.221700
      6 O                    -0.170971
      7 C                    -0.056954
      8 C                    -0.050249
      9 O                    -0.172168
     10 C                     0.219044
     11 C                    -0.077364
     12 C                    -0.081122
     13 C                     0.209632
     14 O                    -0.215978
     15 O                    -0.175578
     16 O                    -0.180846
     17 O                    -0.213696
     18 C                    -0.151402
     19 C                     0.024988
     20 C                    -0.144124
     21 C                    -0.143413
     22 C                     0.023736
     23 O                    -0.190698
     24 H                     0.087686
     25 H                     0.082301
     26 H                     0.080216
     27 H                     0.077174
     28 H                     0.073538
     29 H                     0.077131
     30 H                     0.073414
     31 H                     0.090750
     32 O                    -0.214608
     33 C                    -0.128830
     34 C                     0.026902
     35 C                    -0.143582
     36 C                    -0.142524
     37 C                     0.023197
     38 O                    -0.178698
     39 H                     0.084816
     40 H                     0.087470
     41 H                     0.092344
     42 H                     0.090380
     43 H                     0.079636
     44 H                     0.072676
     45 H                     0.082735
     46 H                     0.073611
     47 H                     0.112201
     48 H                     0.087808
     49 H                     0.086932
     50 H                     0.085366
     51 H                     0.068815
     52 H                     0.119665
     53 H                     0.093674
     54 H                     0.090410
     55 H                     0.105991
     56 H                     0.085007
  ----------------------------------------
  Sum of atomic charges =     0.000000

                    Cartesian Multipole Moments
 -----------------------------------------------------------------
    Charge (ESU x 10^10)
                -0.0000
    Dipole Moment (Debye)
         X       0.2933      Y       1.6113      Z      -2.5392
       Tot       3.0215
    Quadrupole Moments (Debye-Ang)
        XX    -141.2701     XY       3.5170     YY    -160.2602
        XZ       3.3174     YZ      -1.4153     ZZ    -153.0541

 Total job time:  209.95s(wall), 10015.55s(cpu)
        *  Thank you very much for using Q-Chem.  Have a nice day.  *
