 Q-Chem 5.0, Q-Chem, Inc., Pleasanton, CA (2017)
 Q-Chem 5.0.1 for Intel X86 EM64T Linux

User input:
--------------------------------------------------------------
$molecule
0  1
O -3.94934 -3.66094 2.70899
C -3.26408 -4.56952 2.26188
C -3.36658 -6.02376 2.66595
C -4.14293 -6.34199 3.95431
C -4.88075 -5.18965 4.59916
O -5.51619 -5.61972 5.72906
C -6.23523 -4.58018 6.40106
C -7.21098 -5.18165 7.40717
O -7.36792 -4.29556 8.52658
C -8.62415 -4.20901 9.03011
C -8.72392 -3.26332 10.2033
C -10.11004 -2.63661 10.41351
C -11.25375 -3.29807 9.67114
O -12.29182 -3.697 10.17891
O -2.41519 -4.30016 1.23562
O -11.16839 -3.30054 8.31261
O -9.41413 -5.13772 8.8982
C -12.10365 -3.87149 7.47413
C -8.48867 -3.88839 11.59097
C -8.02562 -2.79255 12.55821
C -9.31009 -2.00663 12.7351
C -10.27731 -2.87486 11.92544
O -9.77623 -4.18244 12.07621
H -7.94795 -2.47917 10.04235
H -10.12442 -1.56386 10.12012
H -7.75956 -4.72709 11.5749
H -7.77503 -3.28297 13.52527
H -7.15333 -2.19159 12.21991
H -9.58481 -2.019 13.81333
H -9.28956 -0.96024 12.35908
H -11.32019 -2.70758 12.2736
O -4.27636 -4.15181 4.8384
C -2.20517 -3.04086 0.71356
C -4.15147 -6.8579 1.64231
C -3.78223 -8.3357 1.78048
C -4.48708 -8.68443 3.0753
C -5.16526 -7.34977 3.39373
O -5.47254 -6.82142 2.12461
H -2.3179 -6.38783 2.75461
H -3.47912 -6.78418 4.73198
H -1.81457 -2.3614 1.5015
H -3.99952 -6.51746 0.59448
H -4.27552 -8.89031 0.95061
H -2.69011 -8.54095 1.76445
H -5.26132 -9.45387 2.85797
H -3.82786 -9.03371 3.89919
H -6.03029 -7.5145 4.07291
H -3.15321 -2.6329 0.30266
H -1.45817 -3.10509 -0.10385
H -11.7455 -3.7984 6.42683
H -13.07575 -3.34363 7.56521
H -12.23431 -4.94697 7.72534
H -8.14239 -5.53825 6.91112
H -6.70276 -6.07482 7.83199
H -6.80518 -3.91348 5.71348
H -5.48811 -3.97535 6.96424
$end

$opt
CONSTRAINT
tors           1           2           3           4     -15.190
tors           3           4           5           6    -179.811
tors           4           5           6           7    +179.768
tors           5           6           7           8    +164.583
tors           6           7           8           9    +148.354
tors           7           8           9          10    +141.673
tors           8           9          10          11    -180.000
tors           9          10          11          12    +153.706
tors          11          12          13          14    +126.614
ENDCONSTRAINT
$end

$rem
JOBTYPE                   OPT
METHOD                    B3LYP
DFT_D                     d3_op
BASIS                     STO-3G
GEOM_OPT_MAX_CYCLES       100
GEOM_OPT_TOL_GRADIENT     300
GEOM_OPT_TOL_DISPLACEMENT 1200
GEOM_OPT_TOL_ENERGY       100
SYMMETRY                  False
THRESH                    12
SCF_CONVERGENCE           8
MAX_SUB_FILE_NUM          128
MEM_STATIC                400
MEM_TOTAL                 4000
$end
--------------------------------------------------------------

   16   -1510.0816765567      5.07E-09 Convergence criterion met
 Total energy in the final basis set = -1510.08167656
   15   -1510.1602463822      2.31E-09 Convergence criterion met
 Total energy in the final basis set = -1510.16024638
   14   -1510.2040281889      9.88E-09 Convergence criterion met
 Total energy in the final basis set = -1510.20402819
   15   -1510.2324477915      1.80E-09 Convergence criterion met
 Total energy in the final basis set = -1510.23244779
   14   -1510.2471537657      5.87E-09 Convergence criterion met
 Total energy in the final basis set = -1510.24715377
    2   -1510.2471537657      1.56E-09 Convergence criterion met
 Total energy in the final basis set = -1510.24715377
   14   -1510.2561669294      3.83E-09 Convergence criterion met
 Total energy in the final basis set = -1510.25616693
   13   -1510.2621807042      4.15E-09 Convergence criterion met
   12   -1510.2737757452      2.72E-09 Convergence criterion met
 Total energy in the final basis set = -1510.27377575
   11   -1510.2738147550      4.74E-09 Convergence criterion met
 Total energy in the final basis set = -1510.27381476
   11   -1510.2738450363      6.15E-09 Convergence criterion met
 Total energy in the final basis set = -1510.27384504
   10   -1510.2738688063      5.14E-09 Convergence criterion met
 Total energy in the final basis set = -1510.27386881
    9   -1510.2738781303      7.16E-09 Convergence criterion met
 Total energy in the final basis set = -1510.27387813
    9   -1510.2738825949      5.93E-09 Convergence criterion met
 Total energy in the final basis set = -1510.27388259

             Standard Nuclear Orientation (Angstroms)
    I     Atom           X                Y                Z
 ----------------------------------------------------------------
    1      O      -4.8312789236     0.3935054479     2.0953032230
    2      C      -5.6446157528     0.6449157195     1.1837071086
    3      C      -5.5334716619     0.3696188464    -0.3613764457
    4      C      -4.0897643628     0.0269730302    -0.8982265052
    5      C      -2.8596884937     0.6126448245    -0.1206650249
    6      O      -1.6876602548     0.1555433305    -0.8161436764
    7      C      -0.4652071336     0.6685312684    -0.1508778295
    8      C       0.7351568807    -0.1738923176    -0.7011350800
    9      O       1.9365898236     0.6975156155    -0.7203101264
   10      C       3.1007701321    -0.0422514690    -0.3370992151
   11      C       4.3348061182     0.9184457830    -0.3734439543
   12      C       5.4851717240     0.4619993075     0.6128180562
   13      C       5.0768672767    -0.6969969713     1.5924985124
   14      O       5.6682173970    -1.7828398380     1.7668692183
   15      O      -6.9338744672     1.2386661153     1.4043096526
   16      O       3.9630144236    -0.2429657638     2.3757027031
   17      O       3.1002989027    -1.2591095331    -0.0442011733
   18      C       3.4949461532    -1.3311644865     3.2622005281
   19      C       5.0798745263     0.7592785092    -1.7711104335
   20      C       6.1816731503     1.8862054280    -1.8942606816
   21      C       7.3143678244     1.3121213385    -0.9630772852
   22      C       6.6125597044     0.0135892253    -0.4061227530
   23      O       5.8556436772    -0.4860047091    -1.5791549932
   24      H       3.9983689750     1.9539247005    -0.1918324436
   25      H       5.8203089004     1.3183013062     1.2265197518
   26      H       4.4016328286     0.6664342530    -2.6418223654
   27      H       6.5216761770     1.9834012463    -2.9373900642
   28      H       5.8064238272     2.8641361074    -1.5522656596
   29      H       8.2115630706     1.0428446877    -1.5430487966
   30      H       7.6058304318     2.0100504842    -0.1618686587
   31      H       7.2824579596    -0.7755854318    -0.0126518117
   32      O      -2.8215457431     1.4113952281     0.8373782658
   33      C      -7.1395751372     1.4718887086     2.8516986384
   34      C      -6.2383078835    -1.0395179224    -0.6000799855
   35      C      -6.3007330570    -1.3787265292    -2.1438249796
   36      C      -4.8323992024    -1.8798527573    -2.4137015896
   37      C      -4.1628252306    -1.5640886608    -1.0209753094
   38      O      -5.2144464610    -1.9681591836    -0.0614742695
   39      H      -6.0134199060     1.1932337375    -0.9181411142
   40      H      -3.9946092270     0.4420089200    -1.9195719162
   41      H      -6.3760801060     2.1608189202     3.2674366961
   42      H      -7.1960054222    -1.1589224514    -0.0566481746
   43      H      -7.0436141211    -2.1685840154    -2.3368060431
   44      H      -6.5637706054    -0.4941972234    -2.7463238610
   45      H      -4.8087505548    -2.9635992236    -2.6119963967
   46      H      -4.3429320909    -1.3541473092    -3.2490677854
   47      H      -3.2116106575    -2.0908729526    -0.8122060817
   48      H      -7.1067777979     0.5244416950     3.4278227414
   49      H      -8.1417396698     1.9285734922     2.9486359748
   50      H       2.6698964937    -0.9052920529     3.8624350134
   51      H       4.3002020885    -1.6882704544     3.9361576591
   52      H       3.1190692823    -2.1925241343     2.6725277008
   53      H       0.9390882437    -1.0788394979    -0.0903967166
   54      H       0.5009671775    -0.4966944598    -1.7399489319
   55      H      -0.5493584624     0.5921385068     0.9537799695
   56      H      -0.3074745190     1.7406625017    -0.4065564688
 ----------------------------------------------------------------

    9   -1510.2738835752      3.63E-09 Convergence criterion met
 Total energy in the final basis set = -1510.27388358
 Final energy is   -1510.27388357520
 **  OPTIMIZATION CONVERGED  **

                    Orbital Energies (a.u.)
 --------------------------------------------------------------

 Alpha MOs
 -- Occupied --
-18.938 -18.931 -18.926 -18.924 -18.889 -18.887 -18.880 -18.879
-18.873 -18.868 -10.103 -10.101 -10.094 -10.093 -10.074 -10.072
-10.062 -10.061 -10.061 -10.060 -10.057 -10.056 -10.040 -10.039
-10.038 -10.035 -10.022 -10.021 -10.021 -10.019  -1.018  -1.012
 -1.004  -1.002  -0.972  -0.970  -0.942  -0.937  -0.929  -0.928
 -0.765  -0.763  -0.728  -0.723  -0.717  -0.706  -0.695  -0.659
 -0.656  -0.617  -0.597  -0.578  -0.545  -0.545  -0.539  -0.537
 -0.518  -0.510  -0.481  -0.472  -0.463  -0.458  -0.453  -0.451
 -0.436  -0.431  -0.426  -0.410  -0.408  -0.407  -0.406  -0.401
 -0.390  -0.388  -0.371  -0.365  -0.360  -0.359  -0.355  -0.347
 -0.344  -0.338  -0.338  -0.332  -0.331  -0.325  -0.317  -0.315
 -0.310  -0.305  -0.303  -0.297  -0.294  -0.291  -0.281  -0.273
 -0.271  -0.258  -0.254  -0.248  -0.248  -0.235  -0.234  -0.181
 -0.178  -0.173  -0.168  -0.161  -0.160  -0.147  -0.146  -0.144
 -0.138

          Ground-State Mulliken Net Atomic Charges

     Atom                 Charge (a.u.)
  ----------------------------------------
      1 O                    -0.202166
      2 C                     0.212555
      3 C                    -0.077609
      4 C                    -0.080251
      5 C                     0.210875
      6 O                    -0.178752
      7 C                    -0.048621
      8 C                    -0.052431
      9 O                    -0.172890
     10 C                     0.215478
     11 C                    -0.077430
     12 C                    -0.079949
     13 C                     0.215872
     14 O                    -0.211896
     15 O                    -0.175290
     16 O                    -0.177066
     17 O                    -0.210985
     18 C                    -0.128970
     19 C                     0.025261
     20 C                    -0.144210
     21 C                    -0.143236
     22 C                     0.024229
     23 O                    -0.188401
     24 H                     0.087621
     25 H                     0.084007
     26 H                     0.082326
     27 H                     0.078206
     28 H                     0.073698
     29 H                     0.078380
     30 H                     0.073355
     31 H                     0.091712
     32 O                    -0.202627
     33 C                    -0.129058
     34 C                     0.024614
     35 C                    -0.145506
     36 C                    -0.141546
     37 C                     0.026337
     38 O                    -0.190011
     39 H                     0.086883
     40 H                     0.084416
     41 H                     0.089941
     42 H                     0.084236
     43 H                     0.078608
     44 H                     0.073962
     45 H                     0.078332
     46 H                     0.074114
     47 H                     0.087351
     48 H                     0.087847
     49 H                     0.088345
     50 H                     0.087840
     51 H                     0.088387
     52 H                     0.091787
     53 H                     0.100551
     54 H                     0.088487
     55 H                     0.094337
     56 H                     0.088951
  ----------------------------------------
  Sum of atomic charges =    -0.000000

                    Cartesian Multipole Moments
 -----------------------------------------------------------------
    Charge (ESU x 10^10)
                 0.0000
    Dipole Moment (Debye)
         X      -1.4804      Y       2.6003      Z      -1.5362
       Tot       3.3635
    Quadrupole Moments (Debye-Ang)
        XX    -148.4116     XY      13.6976     YY    -164.0752
        XZ       5.9470     YZ      -0.4362     ZZ    -153.5577

 Total job time:  65.38s(wall), 3110.36s(cpu)
        *  Thank you very much for using Q-Chem.  Have a nice day.  *
