 Q-Chem 5.0, Q-Chem, Inc., Pleasanton, CA (2017)
 Q-Chem 5.0.1 for Intel X86 EM64T Linux

User input:
--------------------------------------------------------------
$molecule
0  1
O -3.94934 -3.66094 2.70899
C -3.26408 -4.56952 2.26188
C -3.36658 -6.02376 2.66595
C -2.27125 -6.97392 2.15478
C -1.09956 -6.3326 1.4449
O -0.44374 -7.26672 0.69473
C 0.11998 -6.72962 -0.50652
C 1.50011 -6.14521 -0.22394
O 2.44932 -7.20494 -0.02682
C 3.682 -6.98825 -0.54903
C 4.63283 -8.13673 -0.3091
C 5.95595 -8.05444 -1.08424
C 6.28579 -6.70363 -1.68691
O 7.37618 -6.15295 -1.63824
O -2.60129 -4.27062 1.11137
O 5.42736 -6.2823 -2.65793
O 4.08933 -5.83219 -0.58336
C 5.61897 -5.16499 -3.44462
C 5.15918 -8.21362 1.13867
C 5.57791 -9.64882 1.44918
C 6.81262 -9.77601 0.57905
C 6.93935 -8.33394 0.06957
O 6.40011 -7.55173 1.10751
H 4.07441 -9.07293 -0.53995
H 6.00417 -8.7995 -1.90857
H 4.42894 -7.85054 1.89462
H 5.89194 -9.66416 2.51779
H 4.8024 -10.42808 1.28739
H 7.67175 -10.05287 1.22943
H 6.72562 -10.49133 -0.26744
H 7.99494 -8.1188 -0.20603
O -0.49852 -5.37118 1.90883
C -2.51168 -3.0154 0.54353
C -3.15571 -6.17956 4.18864
C -3.77999 -7.48825 4.67244
C -2.79997 -8.49282 4.10612
C -1.76374 -7.54839 3.4895
O -1.78005 -6.42631 4.33519
H -4.39849 -6.35701 2.41598
H -2.68754 -7.76562 1.4912
H -2.01831 -2.31247 1.24815
H -3.56227 -5.32855 4.77829
H -3.69827 -7.50351 5.78305
H -4.84131 -7.64086 4.38063
H -2.34947 -9.05972 4.95115
H -3.22019 -9.19789 3.35661
H -0.78405 -8.06539 3.38361
H -3.52342 -2.63906 0.28123
H -1.9037 -3.07908 -0.38215
H 4.76223 -5.06001 -4.14131
H 6.55183 -5.26916 -4.03885
H 5.67711 -4.25599 -2.80862
H 1.75498 -5.56279 -1.14115
H 1.51769 -5.43683 0.62678
H -0.54614 -5.93617 -0.9225
H 0.19727 -7.52158 -1.28158
$end

$opt
CONSTRAINT
tors           1           2           3           4    -170.577
tors           3           4           5           6    -160.977
tors           4           5           6           7    +146.888
tors           5           6           7           8     +85.688
tors           6           7           8           9     +73.600
tors           7           8           9          10    +141.673
tors           8           9          10          11    -180.000
tors           9          10          11          12    +169.756
tors          11          12          13          14    +135.137
ENDCONSTRAINT
$end

$rem
JOBTYPE                   OPT
METHOD                    B3LYP
DFT_D                     d3_op
BASIS                     STO-3G
GEOM_OPT_MAX_CYCLES       100
GEOM_OPT_TOL_GRADIENT     300
GEOM_OPT_TOL_DISPLACEMENT 1200
GEOM_OPT_TOL_ENERGY       100
SYMMETRY                  False
THRESH                    12
SCF_CONVERGENCE           8
MAX_SUB_FILE_NUM          128
MEM_STATIC                400
MEM_TOTAL                 4000
$end
--------------------------------------------------------------

   15   -1510.1036165529      7.95E-09 Convergence criterion met
 Total energy in the final basis set = -1510.10361655
   13   -1510.1780842030      9.41E-09 Convergence criterion met
 Total energy in the final basis set = -1510.17808420
   14   -1510.2197287763      2.84E-09 Convergence criterion met
 Total energy in the final basis set = -1510.21972878
   13   -1510.2411126879      8.15E-09 Convergence criterion met
 Total energy in the final basis set = -1510.24111269
   13   -1510.2513763190      5.86E-09 Convergence criterion met
 Total energy in the final basis set = -1510.25137632
   13   -1510.2568781452      4.81E-09 Convergence criterion met
 Total energy in the final basis set = -1510.25687815
   13   -1510.2601337800      3.99E-09 Convergence criterion met
 Total energy in the final basis set = -1510.26013378
   12   -1510.2623917619      7.37E-09 Convergence criterion met
   12   -1510.2680114809      4.19E-09 Convergence criterion met
 Total energy in the final basis set = -1510.26801148
   11   -1510.2680846357      6.87E-09 Convergence criterion met
 Total energy in the final basis set = -1510.26808464
   11   -1510.2681392412      5.09E-09 Convergence criterion met
 Total energy in the final basis set = -1510.26813924
   11   -1510.2681595592      4.44E-09 Convergence criterion met
 Total energy in the final basis set = -1510.26815956
    9   -1510.2681645058      6.81E-09 Convergence criterion met
 Total energy in the final basis set = -1510.26816451
    9   -1510.2681661948      3.52E-09 Convergence criterion met
 Total energy in the final basis set = -1510.26816619

             Standard Nuclear Orientation (Angstroms)
    I     Atom           X                Y                Z
 ----------------------------------------------------------------
    1      O      -6.2682662229     1.9047296770     1.1686578190
    2      C      -5.3406787707     1.4506415694     0.4634036364
    3      C      -5.3043438935     0.0234761359    -0.1905789944
    4      C      -3.9638552647    -0.4691481232    -0.8603760916
    5      C      -2.6618863695     0.1339736416    -0.2139577055
    6      O      -1.5786721359    -0.0154162378    -1.1544337720
    7      C      -0.6325560784     1.1186099310    -1.0345671692
    8      C       0.4524198509     0.8977739288     0.0792802903
    9      O       1.4313228522    -0.1044412543    -0.4087458706
   10      C       2.7551435903     0.2436009316    -0.0022642745
   11      C       3.7401043340    -0.8471483019    -0.5448583387
   12      C       5.2484844100    -0.4173188992    -0.3703356342
   13      C       5.4729440337     1.1181499916    -0.1178676584
   14      O       6.2275223427     1.6404692518     0.7291453422
   15      O      -4.2956848698     2.2662566338    -0.0808786756
   16      O       4.8472782916     1.8363341155    -1.1947810037
   17      O       3.0427805852     1.2349976067     0.7065955459
   18      C       5.0210023951     3.2908418336    -0.9942011555
   19      C       3.6870133919    -2.0856617855     0.4533758359
   20      C       4.5719797782    -3.2649172109    -0.1163589885
   21      C       6.0218648230    -2.7691689315     0.2462297287
   22      C       5.7049366787    -1.3404109894     0.8356042193
   23      O       4.4614678604    -1.5745693503     1.6089639487
   24      H       3.4753734945    -1.1165966869    -1.5822009475
   25      H       5.8149288428    -0.6737965921    -1.2850042764
   26      H       2.6631064835    -2.3727069656     0.7633975673
   27      H       4.3267680265    -4.2115739483     0.3904511752
   28      H       4.4280809277    -3.3980192227    -1.2008133696
   29      H       6.4826888846    -3.4078315522     1.0167164659
   30      H       6.6917539953    -2.7278570697    -0.6273488867
   31      H       6.4867024272    -0.8901285392     1.4779344562
   32      O      -2.5322131190     0.6250203511     0.9266627832
   33      C      -4.3951489351     3.6418146116     0.4559496674
   34      C      -5.6609879495    -1.2008796767     0.7640055988
   35      C      -6.4183378151    -2.2614547731    -0.1249926265
   36      C      -5.2477160145    -2.7344239494    -1.0653394688
   37      C      -4.0060253841    -2.0006531218    -0.4165169352
   38      O      -4.3637252242    -1.8702490873     1.0177005070
   39      H      -6.0761793072     0.0744667399    -0.9835013691
   40      H      -3.9422021217    -0.3243571835    -1.9538966969
   41      H      -4.2172357394     3.6634713559     1.5504661772
   42      H      -6.1574011180    -0.9205028003     1.7131822462
   43      H      -6.7890237467    -3.0889617569     0.5011668594
   44      H      -7.2655892519    -1.8249637516    -0.6775188524
   45      H      -5.1129819020    -3.8270120952    -1.0335327035
   46      H      -5.3986699744    -2.4291331976    -2.1134076467
   47      H      -3.0395769504    -2.5298695645    -0.5294310521
   48      H      -5.3887321456     4.0900810823     0.2509000284
   49      H      -3.6091470973     4.2264357919    -0.0565564395
   50      H       4.5918200745     3.7787540684    -1.8887901456
   51      H       6.0903603191     3.5683146286    -0.8951517189
   52      H       4.4810708137     3.6373543788    -0.0889584409
   53      H       0.9839993960     1.8464495570     0.3117561740
   54      H      -0.0390332231     0.5320819067     1.0068939639
   55      H      -1.1760368467     2.0638464015    -0.8185643322
   56      H      -0.1340656586     1.2020629180    -2.0226126397
 ----------------------------------------------------------------

    9   -1510.2681663527      1.99E-09 Convergence criterion met
 Total energy in the final basis set = -1510.26816635
 Final energy is   -1510.26816635272
 **  OPTIMIZATION CONVERGED  **

                    Orbital Energies (a.u.)
 --------------------------------------------------------------

 Alpha MOs
 -- Occupied --
-18.935 -18.935 -18.922 -18.920 -18.889 -18.884 -18.882 -18.879
-18.873 -18.864 -10.102 -10.101 -10.101 -10.092 -10.077 -10.068
-10.066 -10.062 -10.061 -10.059 -10.056 -10.055 -10.040 -10.039
-10.038 -10.032 -10.023 -10.021 -10.019 -10.017  -1.016  -1.013
 -1.006  -0.999  -0.972  -0.968  -0.942  -0.937  -0.933  -0.926
 -0.765  -0.761  -0.728  -0.722  -0.713  -0.704  -0.696  -0.663
 -0.655  -0.618  -0.599  -0.579  -0.547  -0.543  -0.539  -0.535
 -0.515  -0.509  -0.485  -0.473  -0.460  -0.456  -0.453  -0.447
 -0.434  -0.432  -0.429  -0.415  -0.410  -0.410  -0.404  -0.403
 -0.392  -0.379  -0.374  -0.365  -0.363  -0.358  -0.354  -0.349
 -0.344  -0.339  -0.338  -0.332  -0.330  -0.322  -0.321  -0.314
 -0.309  -0.309  -0.304  -0.300  -0.294  -0.291  -0.278  -0.275
 -0.269  -0.260  -0.252  -0.245  -0.240  -0.234  -0.232  -0.185
 -0.177  -0.167  -0.165  -0.157  -0.155  -0.151  -0.145  -0.144
 -0.141

          Ground-State Mulliken Net Atomic Charges

     Atom                 Charge (a.u.)
  ----------------------------------------
      1 O                    -0.215103
      2 C                     0.212432
      3 C                    -0.079763
      4 C                    -0.077023
      5 C                     0.219878
      6 O                    -0.181778
      7 C                    -0.045644
      8 C                    -0.055522
      9 O                    -0.173467
     10 C                     0.217202
     11 C                    -0.076409
     12 C                    -0.080514
     13 C                     0.216899
     14 O                    -0.215594
     15 O                    -0.171813
     16 O                    -0.178074
     17 O                    -0.210499
     18 C                    -0.128738
     19 C                     0.024536
     20 C                    -0.144651
     21 C                    -0.142666
     22 C                     0.023709
     23 O                    -0.190307
     24 H                     0.087535
     25 H                     0.082912
     26 H                     0.084864
     27 H                     0.078242
     28 H                     0.073346
     29 H                     0.078078
     30 H                     0.072893
     31 H                     0.091395
     32 O                    -0.202296
     33 C                    -0.127670
     34 C                     0.025524
     35 C                    -0.141480
     36 C                    -0.145484
     37 C                     0.024375
     38 O                    -0.188874
     39 H                     0.084072
     40 H                     0.087054
     41 H                     0.092082
     42 H                     0.089856
     43 H                     0.078714
     44 H                     0.073911
     45 H                     0.078813
     46 H                     0.073625
     47 H                     0.084561
     48 H                     0.090088
     49 H                     0.088044
     50 H                     0.085445
     51 H                     0.088044
     52 H                     0.090250
     53 H                     0.097519
     54 H                     0.097028
     55 H                     0.088824
     56 H                     0.091620
  ----------------------------------------
  Sum of atomic charges =    -0.000000

                    Cartesian Multipole Moments
 -----------------------------------------------------------------
    Charge (ESU x 10^10)
                -0.0000
    Dipole Moment (Debye)
         X      -1.2098      Y      -0.3689      Z      -4.5082
       Tot       4.6822
    Quadrupole Moments (Debye-Ang)
        XX    -161.5538     XY      -4.1671     YY    -147.4692
        XZ      -0.7740     YZ      -1.6366     ZZ    -165.3047

 Total job time:  59.18s(wall), 2809.88s(cpu)
        *  Thank you very much for using Q-Chem.  Have a nice day.  *
