 Q-Chem 5.0, Q-Chem, Inc., Pleasanton, CA (2017)
 Q-Chem 5.0.1 for Intel X86 EM64T Linux

User input:
--------------------------------------------------------------
$molecule
0  1
O -6.2682662229 1.904729677 1.168657819
C -5.3406787707 1.4506415694 0.4634036364
C -5.3043438935 0.0234761359 -0.1905789944
C -3.9638552647 -0.4691481232 -0.8603760916
C -2.6618863695 0.1339736416 -0.2139577055
O -1.5786721359 -0.0154162378 -1.154433772
C -0.6325560784 1.118609931 -1.0345671692
C 0.4524198509 0.8977739288 0.0792802903
O 1.4313228522 -0.1044412543 -0.4087458706
C 2.7551435903 0.2436009316 -0.0022642745
C 3.740104334 -0.8471483019 -0.5448583387
C 5.24848441 -0.4173188992 -0.3703356342
C 5.4729440337 1.1181499916 -0.1178676584
O 6.2275223427 1.6404692518 0.7291453422
O -4.2956848698 2.2662566338 -0.0808786756
O 4.8472782916 1.8363341155 -1.1947810037
O 3.0427805852 1.2349976067 0.7065955459
C 5.0210023951 3.2908418336 -0.9942011555
C 3.6870133919 -2.0856617855 0.4533758359
C 4.5719797782 -3.2649172109 -0.1163589885
C 6.021864823 -2.7691689315 0.2462297287
C 5.7049366787 -1.3404109894 0.8356042193
O 4.4614678604 -1.5745693503 1.6089639487
H 3.4753734945 -1.1165966869 -1.5822009475
H 5.8149288428 -0.6737965921 -1.2850042764
H 2.6631064835 -2.3727069656 0.7633975673
H 4.3267680265 -4.2115739483 0.3904511752
H 4.4280809277 -3.3980192227 -1.2008133696
H 6.4826888846 -3.4078315522 1.0167164659
H 6.6917539953 -2.7278570697 -0.6273488867
H 6.4867024272 -0.8901285392 1.4779344562
O -2.532213119 0.6250203511 0.9266627832
C -4.3951489351 3.6418146116 0.4559496674
C -5.6609879495 -1.2008796767 0.7640055988
C -6.4183378151 -2.2614547731 -0.1249926265
C -5.2477160145 -2.7344239494 -1.0653394688
C -4.0060253841 -2.0006531218 -0.4165169352
O -4.3637252242 -1.8702490873 1.017700507
H -6.0761793072 0.0744667399 -0.9835013691
H -3.9422021217 -0.3243571835 -1.9538966969
H -4.2172357394 3.6634713559 1.5504661772
H -6.157401118 -0.9205028003 1.7131822462
H -6.7890237467 -3.0889617569 0.5011668594
H -7.2655892519 -1.8249637516 -0.6775188524
H -5.112981902 -3.8270120952 -1.0335327035
H -5.3986699744 -2.4291331976 -2.1134076467
H -3.0395769504 -2.5298695645 -0.5294310521
H -5.3887321456 4.0900810823 0.2509000284
H -3.6091470973 4.2264357919 -0.0565564395
H 4.5918200745 3.7787540684 -1.8887901456
H 6.0903603191 3.5683146286 -0.8951517189
H 4.4810708137 3.6373543788 -0.0889584409
H 0.983999396 1.846449557 0.311756174
H -0.0390332231 0.5320819067 1.0068939639
H -1.1760368467 2.0638464015 -0.8185643322
H -0.1340656586 1.202062918 -2.0226126397
$end

$rem
JOBTYPE                   OPT
METHOD                    B3LYP
DFT_D                     d3_op
BASIS                     STO-3G
GEOM_OPT_MAX_CYCLES       100
GEOM_OPT_TOL_GRADIENT     300
GEOM_OPT_TOL_DISPLACEMENT 1200
GEOM_OPT_TOL_ENERGY       100
SYMMETRY                  False
THRESH                    12
SCF_CONVERGENCE           8
MAX_SUB_FILE_NUM          128
MEM_STATIC                400
MEM_TOTAL                 4000
$end
--------------------------------------------------------------

   16   -1510.2681385161      4.75E-09 Convergence criterion met
 Total energy in the final basis set = -1510.26813852
   14   -1510.2729228109      1.66E-09 Convergence criterion met
 Total energy in the final basis set = -1510.27292281
   13   -1510.2767262096      5.99E-09 Convergence criterion met
 Total energy in the final basis set = -1510.27672621
   13   -1510.2795145284      6.63E-09 Convergence criterion met
 Total energy in the final basis set = -1510.27951453
   13   -1510.2817467512      4.27E-09 Convergence criterion met
 Total energy in the final basis set = -1510.28174675
   13   -1510.2833524360      2.68E-09 Convergence criterion met
 Total energy in the final basis set = -1510.28335244
   13   -1510.2846922815      3.11E-09 Convergence criterion met
 Total energy in the final basis set = -1510.28469228
   13   -1510.2856362307      3.51E-09 Convergence criterion met
   14   -1510.2906410621      1.56E-09 Convergence criterion met
 Total energy in the final basis set = -1510.29064106
   13   -1510.2908347984      2.02E-09 Convergence criterion met
 Total energy in the final basis set = -1510.29083480
   12   -1510.2909102633      9.65E-09 Convergence criterion met
 Total energy in the final basis set = -1510.29091026
   12   -1510.2908970212      6.79E-09 Convergence criterion met
 Total energy in the final basis set = -1510.29089702
   11   -1510.2909236397      9.98E-09 Convergence criterion met
 Total energy in the final basis set = -1510.29092364
   10   -1510.2909280177      7.60E-09 Convergence criterion met
 Total energy in the final basis set = -1510.29092802

             Standard Nuclear Orientation (Angstroms)
    I     Atom           X                Y                Z
 ----------------------------------------------------------------
    1      O      -5.1660877896     0.5154011350     1.4417138553
    2      C      -4.8274929169     0.7434689671     0.2615511584
    3      C      -4.0652052046    -0.2263397105    -0.7167656971
    4      C      -2.5706390609     0.1948491008    -1.0132073094
    5      C      -2.1043014885     1.4563685718    -0.2204714535
    6      O      -0.8275608154     1.8500183298    -0.7349294930
    7      C      -0.1637693237     2.7966904839     0.1921221207
    8      C       0.2952149826     2.0370522648     1.4971050337
    9      O       0.6946413013     0.6429875492     1.1789838370
   10      C       1.9706273719     0.6186861173     0.5330616924
   11      C       2.3215159633    -0.8667322288     0.1912201687
   12      C       3.6606991593    -1.0121753899    -0.6390254474
   13      C       4.3354401002     0.3538232287    -1.0358473935
   14      O       5.3742490413     0.8549828220    -0.5573823777
   15      O      -5.1963955142     1.9155940695    -0.4804405078
   16      O       3.6197093815     0.8796440948    -2.1647566160
   17      O       2.6672961055     1.6362646739     0.3202341555
   18      C       4.1762020899     2.1979110911    -2.5384203280
   19      C       2.6956272776    -1.6774795525     1.5079175314
   20      C       2.7170246689    -3.2176034589     1.1595746259
   21      C       4.0745077298    -3.3337943156     0.3714912728
   22      C       4.5584341290    -1.8313161860     0.3795289298
   23      O       4.1214778200    -1.3373914998     1.7074283362
   24      H       1.4600987770    -1.3205970432    -0.3309594116
   25      H       3.4747666939    -1.5802112385    -1.5683467515
   26      H       2.0949098818    -1.4017967140     2.3965736169
   27      H       2.7320922632    -3.8186976184     2.0825167556
   28      H       1.8448300345    -3.5188759455     0.5576292916
   29      H       4.7956866050    -3.9732822037     0.9048219168
   30      H       3.9427492831    -3.7246663476    -0.6500492576
   31      H       5.6466680883    -1.6728587794     0.2508450907
   32      O      -2.6789728585     2.0083474309     0.7442164418
   33      C      -5.8694273696     2.8804712955     0.4164844726
   34      C      -3.8495471090    -1.6488987546    -0.0525301967
   35      C      -3.4601351626    -2.6801990321    -1.1840109983
   36      C      -1.9685246612    -2.2668226599    -1.4744088398
   37      C      -1.7823710955    -1.0749012640    -0.4568492117
   38      O      -2.5906885746    -1.4836303891     0.7123781646
   39      H      -4.6429038864    -0.2916544360    -1.6562358027
   40      H      -2.3806138799     0.3489425892    -2.0901366790
   41      H      -5.1709266275     3.2591668032     1.1908837149
   42      H      -4.6700138678    -1.9604553157     0.6225415397
   43      H      -3.5256421617    -3.7122554680    -0.8043081398
   44      H      -4.1071931133    -2.5887129815    -2.0710816318
   45      H      -1.2692141006    -3.0849249170    -1.2386515739
   46      H      -1.8063271654    -1.9529603576    -2.5180494987
   47      H      -0.7416029642    -0.8505582532    -0.1479809117
   48      H      -6.7458112520     2.4271217870     0.9231547553
   49      H      -6.2018534293     3.7177256155    -0.2244617219
   50      H       3.6041482988     2.5346447880    -3.4226150256
   51      H       5.2532494440     2.1317564093    -2.7956885395
   52      H       4.0546758272     2.9316859538    -1.7152967879
   53      H       1.1248841409     2.5929673846     1.9835355088
   54      H      -0.5569812070     1.9393312851     2.1980908492
   55      H      -0.8327928116     3.6402425276     0.4670716814
   56      H       0.7186871097     3.1760308787    -0.3588780714
 ----------------------------------------------------------------

   10   -1510.2909272158      4.76E-09 Convergence criterion met
 Total energy in the final basis set = -1510.29092722
 Final energy is   -1510.29092721577
 **  OPTIMIZATION CONVERGED  **

                    Orbital Energies (a.u.)
 --------------------------------------------------------------

 Alpha MOs
 -- Occupied --
-18.946 -18.942 -18.921 -18.920 -18.890 -18.888 -18.887 -18.887
-18.862 -18.862 -10.110 -10.108 -10.091 -10.091 -10.080 -10.079
-10.062 -10.060 -10.057 -10.057 -10.055 -10.055 -10.042 -10.041
-10.034 -10.034 -10.023 -10.021 -10.021 -10.020  -1.028  -1.017
 -0.999  -0.998  -0.971  -0.971  -0.951  -0.942  -0.925  -0.925
 -0.765  -0.763  -0.731  -0.723  -0.716  -0.706  -0.698  -0.656
 -0.655  -0.626  -0.599  -0.583  -0.546  -0.545  -0.538  -0.537
 -0.515  -0.507  -0.480  -0.472  -0.461  -0.457  -0.455  -0.452
 -0.438  -0.432  -0.430  -0.423  -0.409  -0.407  -0.404  -0.403
 -0.397  -0.380  -0.376  -0.365  -0.364  -0.356  -0.352  -0.345
 -0.343  -0.341  -0.338  -0.333  -0.332  -0.327  -0.325  -0.315
 -0.311  -0.307  -0.306  -0.303  -0.300  -0.278  -0.278  -0.276
 -0.271  -0.264  -0.255  -0.245  -0.245  -0.235  -0.234  -0.194
 -0.182  -0.166  -0.165  -0.164  -0.161  -0.145  -0.145  -0.142
 -0.142

          Ground-State Mulliken Net Atomic Charges

     Atom                 Charge (a.u.)
  ----------------------------------------
      1 O                    -0.215002
      2 C                     0.215507
      3 C                    -0.081153
      4 C                    -0.078323
      5 C                     0.216462
      6 O                    -0.171504
      7 C                    -0.052492
      8 C                    -0.053063
      9 O                    -0.170489
     10 C                     0.216563
     11 C                    -0.077625
     12 C                    -0.081349
     13 C                     0.215741
     14 O                    -0.215526
     15 O                    -0.176493
     16 O                    -0.176916
     17 O                    -0.207468
     18 C                    -0.128454
     19 C                     0.025167
     20 C                    -0.143629
     21 C                    -0.144024
     22 C                     0.024881
     23 O                    -0.188643
     24 H                     0.085011
     25 H                     0.083505
     26 H                     0.086819
     27 H                     0.079278
     28 H                     0.073391
     29 H                     0.078447
     30 H                     0.073028
     31 H                     0.089535
     32 O                    -0.208682
     33 C                    -0.128623
     34 C                     0.024988
     35 C                    -0.144147
     36 C                    -0.144133
     37 C                     0.022846
     38 O                    -0.188765
     39 H                     0.083795
     40 H                     0.087544
     41 H                     0.090855
     42 H                     0.089290
     43 H                     0.077805
     44 H                     0.073426
     45 H                     0.075536
     46 H                     0.073850
     47 H                     0.086983
     48 H                     0.087637
     49 H                     0.086114
     50 H                     0.085735
     51 H                     0.086614
     52 H                     0.090845
     53 H                     0.095634
     54 H                     0.100835
     55 H                     0.094362
     56 H                     0.098471
  ----------------------------------------
  Sum of atomic charges =     0.000000

                    Cartesian Multipole Moments
 -----------------------------------------------------------------
    Charge (ESU x 10^10)
                -0.0000
    Dipole Moment (Debye)
         X      -1.1968      Y      -0.6443      Z      -2.9130
       Tot       3.2145
    Quadrupole Moments (Debye-Ang)
        XX    -173.8687     XY      -6.0127     YY    -146.3897
        XZ       2.0347     YZ       2.9908     ZZ    -161.1667

 Total job time:  93.33s(wall), 4445.04s(cpu)
        *  Thank you very much for using Q-Chem.  Have a nice day.  *
