 Q-Chem 5.0, Q-Chem, Inc., Pleasanton, CA (2017)
 Q-Chem 5.0.1 for Intel X86 EM64T Linux

User input:
--------------------------------------------------------------
$molecule
0  1
O -5.1105879167 1.1980992869 -0.7924502589
C -3.9067295932 0.9423278611 -0.9969835579
C -3.174892682 -0.437901872 -0.8517254069
C -2.4759510467 -0.6146050761 0.5677493545
C -2.6287403359 0.654920667 1.495432197
O -1.4346670408 1.4152881801 1.7709574739
C -0.6245173996 1.6286050505 0.5450416136
C 0.6165426415 2.4997890797 0.9448866416
O 1.7583291172 1.6032431985 1.2394486663
C 2.6930557092 1.5967750932 0.1510656234
C 3.8512172718 0.6246893046 0.5644088416
C 3.5221595136 -0.9268281106 0.5409997898
C 2.2405383529 -1.4122310837 -0.2299957626
O 1.8860972244 -2.6055012366 -0.3507001915
O -2.9351076881 1.9381717675 -1.3738832286
O 1.572824985 -0.3317168542 -0.8932773615
O 2.6276212896 2.3405681211 -0.8508519861
C 0.5682322029 -0.8637077989 -1.8448001852
C 5.1035660074 0.6953249227 -0.408871589
C 6.3729550242 0.2551285249 0.4163825981
C 6.0916846382 -1.284531704 0.5848973643
C 4.7807236854 -1.4589240596 -0.2806714582
O 4.907530979 -0.4372643486 -1.3447229333
H 4.1440436004 0.9070430212 1.5919763639
H 3.4885130668 -1.3502549548 1.5611910085
H 5.1879694507 1.6481735368 -0.9668112476
H 7.2912029239 0.4351152238 -0.1655371159
H 6.4537823828 0.7837369222 1.3796532424
H 6.9096005831 -1.8960545221 0.1723944306
H 5.9305222687 -1.5746026941 1.6356266279
H 4.6357353074 -2.4663094967 -0.7177814337
O -3.6722086919 0.933406276 2.1257267556
C -3.5826814191 3.2690524336 -1.4512975322
C -4.2164168664 -1.6324500926 -0.8229190795
C -3.4257577752 -2.98887445 -1.0009563914
C -2.7763480815 -3.1523483119 0.4238308807
C -3.2975446321 -1.8470730511 1.1455520216
O -4.6557784988 -1.6622904585 0.5902286131
H -2.441132975 -0.5386979775 -1.6709036195
H -1.4129045236 -0.8790991184 0.4549836901
H -3.9994262581 3.573678978 -0.4695535639
H -5.0863484723 -1.494412803 -1.4936467078
H -4.1206808008 -3.8131470542 -1.2260407307
H -2.6759002867 -2.9296713455 -1.8063046629
H -3.1526929832 -4.0510908505 0.9375635288
H -1.6759527869 -3.2003520989 0.3892187168
H -3.3351497388 -1.8959175044 2.250862363
H -4.399603051 3.2804184672 -2.2008821193
H -2.7901229831 3.9774386297 -1.7549088089
H 0.0368909975 0.015883406 -2.2523486959
H -0.1514123289 -1.5436858412 -1.3453973867
H 1.0572087862 -1.4170550876 -2.6721346052
H 0.8976086431 3.1768825022 0.1089566298
H 0.3962146447 3.0854329332 1.8609673874
H -1.2551017057 2.0981148851 -0.2464569253
H -0.2200079146 0.6770856704 0.138669616
$end

$rem
JOBTYPE                   OPT
METHOD                    B3LYP
DFT_D                     d3_op
BASIS                     STO-3G
GEOM_OPT_MAX_CYCLES       100
GEOM_OPT_TOL_GRADIENT     300
GEOM_OPT_TOL_DISPLACEMENT 1200
GEOM_OPT_TOL_ENERGY       100
SYMMETRY                  False
THRESH                    12
SCF_CONVERGENCE           8
MAX_SUB_FILE_NUM          128
MEM_STATIC                400
MEM_TOTAL                 4000
$end
--------------------------------------------------------------

   16   -1510.2706127853      5.48E-09 Convergence criterion met
 Total energy in the final basis set = -1510.27061279
   14   -1510.2718909604      6.91E-09 Convergence criterion met
 Total energy in the final basis set = -1510.27189096
   15   -1510.2711592639      1.32E-09 Convergence criterion met
 Total energy in the final basis set = -1510.27115926
   14   -1510.2724495406      6.15E-09 Convergence criterion met
 Total energy in the final basis set = -1510.27244954
   14   -1510.2725534972      2.39E-09 Convergence criterion met
 Total energy in the final basis set = -1510.27255350
   15   -1510.2739833896      1.91E-09 Convergence criterion met
 Total energy in the final basis set = -1510.27398339
   13   -1510.2749817224      6.89E-09 Convergence criterion met
 Total energy in the final basis set = -1510.27498172
   13   -1510.2755640586      6.31E-09 Convergence criterion met
   12   -1510.2823111998      5.69E-09 Convergence criterion met
 Total energy in the final basis set = -1510.28231120
   12   -1510.2823371299      2.42E-09 Convergence criterion met
 Total energy in the final basis set = -1510.28233713
   10   -1510.2823360412      7.46E-09 Convergence criterion met
 Total energy in the final basis set = -1510.28233604
   11   -1510.2823380986      3.15E-09 Convergence criterion met
 Total energy in the final basis set = -1510.28233810
   11   -1510.2823399964      5.39E-09 Convergence criterion met
 Total energy in the final basis set = -1510.28234000
   10   -1510.2823383479      5.93E-09 Convergence criterion met
 Total energy in the final basis set = -1510.28233835

             Standard Nuclear Orientation (Angstroms)
    I     Atom           X                Y                Z
 ----------------------------------------------------------------
    1      O      -4.8273915289     1.1838661031     0.1178986508
    2      C      -3.8071179597     0.9219883568    -0.5510701131
    3      C      -2.9730222470    -0.4060355810    -0.5608123979
    4      C      -2.1128057460    -0.6303017868     0.7587714498
    5      C      -2.0914635876     0.5860460939     1.7638611434
    6      O      -1.3320863374     1.7599916696     1.4214445864
    7      C      -0.7218637188     1.7636345286     0.0705430060
    8      C       0.5548455565     2.6616928696     0.1331934394
    9      O       1.6263555494     1.8561894551     0.7713674913
   10      C       2.7620159678     1.7287699103    -0.0921961595
   11      C       3.7334397324     0.7051925567     0.5909851217
   12      C       3.1440192028    -0.7690859787     0.6765382614
   13      C       1.7752778615    -0.9736783762    -0.0530609198
   14      O       0.7491328727    -1.5296377865     0.4074578900
   15      O      -3.2136549024     1.8513447898    -1.4839455135
   16      O       1.8939652322    -0.4788236393    -1.3887637958
   17      O       2.9144378665     2.3477662812    -1.1667390790
   18      C       0.6864124257    -0.7808943162    -2.1925116434
   19      C       5.0519222554     0.4649484137    -0.2537434453
   20      C       6.1351065724    -0.1714484647     0.6999198709
   21      C       5.5648541054    -1.6289895354     0.8697605204
   22      C       4.2963273021    -1.5762391736    -0.0716866203
   23      O       4.6938927828    -0.6545277476    -1.1572165375
   24      H       3.9618212903     1.0774952807     1.6063690975
   25      H       3.0155006350    -1.0970301285     1.7229354219
   26      H       5.3768249107     1.3453998898    -0.8411378001
   27      H       7.1217473856    -0.1800301369     0.2101788346
   28      H       6.2183553050     0.3675496445     1.6570808510
   29      H       6.2781433517    -2.3882807042     0.5115983466
   30      H       5.2955198552    -1.8616659410     1.9124920563
   31      H       3.9765280569    -2.5519539064    -0.4865547799
   32      O      -2.6539416722     0.5859296463     2.8804652600
   33      C      -3.9859385285     3.1164081331    -1.4969777314
   34      C      -3.9435842749    -1.6604594051    -0.4823085053
   35      C      -3.0976472175    -2.9672221930    -0.7673887466
   36      C      -2.3569704550    -3.1607389155     0.6084313758
   37      C      -2.8517764871    -1.8838602412     1.3918446340
   38      O      -4.2609848343    -1.7422714563     0.9586731999
   39      H      -2.3441024813    -0.4179298353    -1.4677479219
   40      H      -1.0671562872    -0.9134367128     0.5130276045
   41      H      -3.9935420752     3.5981369690    -0.4980078246
   42      H      -4.8708715100    -1.5587931292    -1.0790827416
   43      H      -3.7617026764    -3.8155092661    -0.9966817763
   44      H      -2.4005375807    -2.8277363153    -1.6092574738
   45      H      -2.6882581762    -4.0800250882     1.1167875111
   46      H      -1.2598803947    -3.1817648686     0.5059827727
   47      H      -2.7905393512    -1.9329768827     2.4960875181
   48      H      -5.0343758407     2.9472620290    -1.8151796387
   49      H      -3.4790403238     3.7766513340    -2.2244306569
   50      H       0.1546623756     0.1611069224    -2.4336142550
   51      H       0.0108556110    -1.4589255975    -1.6341468497
   52      H       1.0166235139    -1.2600288367    -3.1342555669
   53      H       0.8894966438     2.9635065392    -0.8838342653
   54      H       0.3675505751     3.5660692259     0.7495072828
   55      H      -1.4686588925     2.1283104247    -0.6763912057
   56      H      -0.3968368362     0.7548406156    -0.2391916784
 ----------------------------------------------------------------

   10   -1510.2823389015      9.45E-09 Convergence criterion met
 Total energy in the final basis set = -1510.28233890
 Final energy is   -1510.28233890146
 **  OPTIMIZATION CONVERGED  **

                    Orbital Energies (a.u.)
 --------------------------------------------------------------

 Alpha MOs
 -- Occupied --
-18.955 -18.943 -18.934 -18.921 -18.896 -18.896 -18.887 -18.884
-18.883 -18.864 -10.120 -10.106 -10.103 -10.089 -10.077 -10.071
-10.070 -10.070 -10.065 -10.063 -10.059 -10.050 -10.050 -10.046
-10.040 -10.027 -10.025 -10.023 -10.018 -10.013  -1.031  -1.018
 -1.016  -0.995  -0.977  -0.966  -0.955  -0.943  -0.943  -0.926
 -0.772  -0.760  -0.733  -0.720  -0.718  -0.705  -0.700  -0.676
 -0.668  -0.616  -0.597  -0.590  -0.552  -0.547  -0.543  -0.536
 -0.522  -0.508  -0.494  -0.484  -0.471  -0.467  -0.456  -0.451
 -0.440  -0.433  -0.426  -0.426  -0.425  -0.420  -0.411  -0.407
 -0.393  -0.388  -0.383  -0.372  -0.369  -0.364  -0.360  -0.355
 -0.351  -0.348  -0.339  -0.334  -0.333  -0.327  -0.317  -0.314
 -0.311  -0.310  -0.305  -0.302  -0.297  -0.292  -0.285  -0.280
 -0.273  -0.264  -0.259  -0.251  -0.241  -0.236  -0.229  -0.193
 -0.189  -0.181  -0.177  -0.163  -0.161  -0.156  -0.151  -0.140
 -0.137

          Ground-State Mulliken Net Atomic Charges

     Atom                 Charge (a.u.)
  ----------------------------------------
      1 O                    -0.196751
      2 C                     0.205494
      3 C                    -0.082208
      4 C                    -0.097169
      5 C                     0.204125
      6 O                    -0.175044
      7 C                    -0.063989
      8 C                    -0.054529
      9 O                    -0.177219
     10 C                     0.212816
     11 C                    -0.077300
     12 C                    -0.076596
     13 C                     0.215648
     14 O                    -0.219705
     15 O                    -0.175067
     16 O                    -0.160994
     17 O                    -0.210047
     18 C                    -0.135557
     19 C                     0.025068
     20 C                    -0.143427
     21 C                    -0.143943
     22 C                     0.026388
     23 O                    -0.184476
     24 H                     0.088553
     25 H                     0.089738
     26 H                     0.091270
     27 H                     0.079586
     28 H                     0.074853
     29 H                     0.079485
     30 H                     0.075249
     31 H                     0.082469
     32 O                    -0.201120
     33 C                    -0.130481
     34 C                     0.026670
     35 C                    -0.144637
     36 C                    -0.145511
     37 C                     0.026198
     38 O                    -0.185111
     39 H                     0.078326
     40 H                     0.099090
     41 H                     0.093893
     42 H                     0.082107
     43 H                     0.077388
     44 H                     0.068167
     45 H                     0.076585
     46 H                     0.079407
     47 H                     0.091779
     48 H                     0.091861
     49 H                     0.090465
     50 H                     0.088874
     51 H                     0.095643
     52 H                     0.094960
     53 H                     0.098925
     54 H                     0.092611
     55 H                     0.098058
     56 H                     0.079128
  ----------------------------------------
  Sum of atomic charges =     0.000000

                    Cartesian Multipole Moments
 -----------------------------------------------------------------
    Charge (ESU x 10^10)
                -0.0000
    Dipole Moment (Debye)
         X       3.2090      Y      -0.8954      Z      -2.9735
       Tot       4.4656
    Quadrupole Moments (Debye-Ang)
        XX    -167.0060     XY      -5.1686     YY    -152.5043
        XZ      25.1974     YZ      -1.9005     ZZ    -167.8200

 Total job time:  110.93s(wall), 5289.95s(cpu)
        *  Thank you very much for using Q-Chem.  Have a nice day.  *
