 Q-Chem 5.0, Q-Chem, Inc., Pleasanton, CA (2017)
 Q-Chem 5.0.1 for Intel X86 EM64T Linux

User input:
--------------------------------------------------------------
$molecule
0  1
O -3.94934 -3.66094 2.70899
C -3.26408 -4.56952 2.26188
C -3.36658 -6.02376 2.66595
C -2.40788 -6.51779 3.7617
C -1.57605 -5.46233 4.45608
O -0.26168 -5.60875 4.11488
C -0.06516 -5.83573 2.7152
C 1.42407 -5.94355 2.4042
O 1.8264 -7.32231 2.40867
C 2.00708 -7.88099 1.18622
C 2.42875 -9.32934 1.25775
C 1.31906 -10.30694 1.67146
C -0.09563 -9.76773 1.60377
O -1.10869 -10.40091 1.8633
O -2.40579 -4.29068 1.24769
O -0.33108 -8.67156 0.83466
O 1.95418 -7.26912 0.12441
C -1.53677 -8.37228 0.23135
C 2.82572 -9.94896 -0.10459
C 3.74624 -11.14741 0.12538
C 2.7697 -12.1458 0.7123
C 1.45953 -11.36402 0.56543
O 1.65567 -10.56877 -0.57811
H 3.32318 -9.37264 1.91988
H 1.4683 -10.6955 2.70243
H 3.31393 -9.22915 -0.79696
H 4.05978 -11.50837 -0.88069
H 4.6519 -10.95267 0.73913
H 2.76862 -13.05483 0.07086
H 2.95476 -12.42471 1.77246
H 0.59165 -12.05933 0.53182
O -1.89591 -4.90852 5.49807
C -2.20297 -3.03239 0.72086
C -4.73391 -6.30274 3.32666
C -5.06121 -7.79495 3.2594
C -4.12336 -8.32814 4.31503
C -3.46399 -7.02529 4.78276
O -4.50051 -6.08321 4.69106
H -3.33603 -6.59848 1.72305
H -1.84105 -7.45097 3.55148
H -1.82396 -2.3457 1.50773
H -5.56415 -5.71794 2.87211
H -6.10805 -7.94251 3.60874
H -4.94091 -8.23828 2.24732
H -4.73404 -8.74243 5.14861
H -3.39967 -9.09666 3.96735
H -3.03792 -7.17846 5.79985
H -3.15128 -2.63579 0.29939
H -1.4495 -3.09583 -0.09075
H -1.4657 -7.38154 -0.26263
H -2.34691 -8.3615 0.98357
H -1.77469 -9.14148 -0.5334
H 1.5767 -5.46276 1.41206
H 2.04466 -5.33639 3.09712
H -0.36983 -4.88716 2.23477
H -0.57323 -6.65203 2.18573
$end

$opt
CONSTRAINT
tors           1           2           3           4     -94.996
tors           3           4           5           6    -111.241
tors           4           5           6           7     +44.417
tors           5           6           7           8    +178.161
tors           6           7           8           9     +94.561
tors           7           8           9          10    +103.386
tors           8           9          10          11    -180.000
tors           9          10          11          12     +73.222
tors          11          12          13          14    +178.272
ENDCONSTRAINT
$end

$rem
JOBTYPE                   OPT
METHOD                    B3LYP
DFT_D                     d3_op
BASIS                     STO-3G
GEOM_OPT_MAX_CYCLES       100
GEOM_OPT_TOL_GRADIENT     300
GEOM_OPT_TOL_DISPLACEMENT 1200
GEOM_OPT_TOL_ENERGY       100
SYMMETRY                  False
THRESH                    12
SCF_CONVERGENCE           8
MAX_SUB_FILE_NUM          128
MEM_STATIC                400
MEM_TOTAL                 4000
$end
--------------------------------------------------------------

   15   -1510.1151694001      7.52E-09 Convergence criterion met
 Total energy in the final basis set = -1510.11516940
   14   -1510.1896587877      6.28E-09 Convergence criterion met
 Total energy in the final basis set = -1510.18965879
   14   -1510.2298566466      9.20E-09 Convergence criterion met
 Total energy in the final basis set = -1510.22985665
   14   -1510.2517795673      3.51E-09 Convergence criterion met
 Total energy in the final basis set = -1510.25177957
   14   -1510.2613674350      6.17E-09 Convergence criterion met
 Total energy in the final basis set = -1510.26136743
   14   -1510.2657840434      5.30E-09 Convergence criterion met
 Total energy in the final basis set = -1510.26578404
   13   -1510.2688414727      4.68E-09 Convergence criterion met
 Total energy in the final basis set = -1510.26884147
   13   -1510.2700456432      4.25E-09 Convergence criterion met
   11   -1510.2705869976      3.58E-09 Convergence criterion met
 Total energy in the final basis set = -1510.27058700
   11   -1510.2705911340      3.62E-09 Convergence criterion met
 Total energy in the final basis set = -1510.27059113
   10   -1510.2705957257      9.72E-09 Convergence criterion met
 Total energy in the final basis set = -1510.27059573
   10   -1510.2705982326      7.96E-09 Convergence criterion met
 Total energy in the final basis set = -1510.27059823
   10   -1510.2706007740      6.45E-09 Convergence criterion met
 Total energy in the final basis set = -1510.27060077
    9   -1510.2706021797      6.00E-09 Convergence criterion met
 Total energy in the final basis set = -1510.27060218

             Standard Nuclear Orientation (Angstroms)
    I     Atom           X                Y                Z
 ----------------------------------------------------------------
    1      O      -5.1105879167     1.1980992869    -0.7924502589
    2      C      -3.9067295932     0.9423278611    -0.9969835579
    3      C      -3.1748926820    -0.4379018720    -0.8517254069
    4      C      -2.4759510467    -0.6146050761     0.5677493545
    5      C      -2.6287403359     0.6549206670     1.4954321970
    6      O      -1.4346670408     1.4152881801     1.7709574739
    7      C      -0.6245173996     1.6286050505     0.5450416136
    8      C       0.6165426415     2.4997890797     0.9448866416
    9      O       1.7583291172     1.6032431985     1.2394486663
   10      C       2.6930557092     1.5967750932     0.1510656234
   11      C       3.8512172718     0.6246893046     0.5644088416
   12      C       3.5221595136    -0.9268281106     0.5409997898
   13      C       2.2405383529    -1.4122310837    -0.2299957626
   14      O       1.8860972244    -2.6055012366    -0.3507001915
   15      O      -2.9351076881     1.9381717675    -1.3738832286
   16      O       1.5728249850    -0.3317168542    -0.8932773615
   17      O       2.6276212896     2.3405681211    -0.8508519861
   18      C       0.5682322029    -0.8637077989    -1.8448001852
   19      C       5.1035660074     0.6953249227    -0.4088715890
   20      C       6.3729550242     0.2551285249     0.4163825981
   21      C       6.0916846382    -1.2845317040     0.5848973643
   22      C       4.7807236854    -1.4589240596    -0.2806714582
   23      O       4.9075309790    -0.4372643486    -1.3447229333
   24      H       4.1440436004     0.9070430212     1.5919763639
   25      H       3.4885130668    -1.3502549548     1.5611910085
   26      H       5.1879694507     1.6481735368    -0.9668112476
   27      H       7.2912029239     0.4351152238    -0.1655371159
   28      H       6.4537823828     0.7837369222     1.3796532424
   29      H       6.9096005831    -1.8960545221     0.1723944306
   30      H       5.9305222687    -1.5746026941     1.6356266279
   31      H       4.6357353074    -2.4663094967    -0.7177814337
   32      O      -3.6722086919     0.9334062760     2.1257267556
   33      C      -3.5826814191     3.2690524336    -1.4512975322
   34      C      -4.2164168664    -1.6324500926    -0.8229190795
   35      C      -3.4257577752    -2.9888744500    -1.0009563914
   36      C      -2.7763480815    -3.1523483119     0.4238308807
   37      C      -3.2975446321    -1.8470730511     1.1455520216
   38      O      -4.6557784988    -1.6622904585     0.5902286131
   39      H      -2.4411329750    -0.5386979775    -1.6709036195
   40      H      -1.4129045236    -0.8790991184     0.4549836901
   41      H      -3.9994262581     3.5736789780    -0.4695535639
   42      H      -5.0863484723    -1.4944128030    -1.4936467078
   43      H      -4.1206808008    -3.8131470542    -1.2260407307
   44      H      -2.6759002867    -2.9296713455    -1.8063046629
   45      H      -3.1526929832    -4.0510908505     0.9375635288
   46      H      -1.6759527869    -3.2003520989     0.3892187168
   47      H      -3.3351497388    -1.8959175044     2.2508623630
   48      H      -4.3996030510     3.2804184672    -2.2008821193
   49      H      -2.7901229831     3.9774386297    -1.7549088089
   50      H       0.0368909975     0.0158834060    -2.2523486959
   51      H      -0.1514123289    -1.5436858412    -1.3453973867
   52      H       1.0572087862    -1.4170550876    -2.6721346052
   53      H       0.8976086431     3.1768825022     0.1089566298
   54      H       0.3962146447     3.0854329332     1.8609673874
   55      H      -1.2551017057     2.0981148851    -0.2464569253
   56      H      -0.2200079146     0.6770856704     0.1386696160
 ----------------------------------------------------------------

    9   -1510.2706026606      2.58E-09 Convergence criterion met
 Total energy in the final basis set = -1510.27060266
 Final energy is   -1510.27060266059
 **  OPTIMIZATION CONVERGED  **

                    Orbital Energies (a.u.)
 --------------------------------------------------------------

 Alpha MOs
 -- Occupied --
-18.952 -18.943 -18.927 -18.919 -18.892 -18.891 -18.889 -18.885
-18.881 -18.874 -10.112 -10.106 -10.103 -10.098 -10.079 -10.071
-10.068 -10.066 -10.063 -10.062 -10.062 -10.062 -10.047 -10.045
-10.041 -10.039 -10.025 -10.023 -10.023 -10.022  -1.026  -1.020
 -1.010  -1.001  -0.975  -0.972  -0.948  -0.945  -0.939  -0.931
 -0.768  -0.767  -0.729  -0.726  -0.714  -0.708  -0.699  -0.676
 -0.669  -0.614  -0.603  -0.586  -0.553  -0.548  -0.542  -0.541
 -0.518  -0.514  -0.491  -0.484  -0.469  -0.467  -0.458  -0.452
 -0.437  -0.435  -0.425  -0.424  -0.422  -0.421  -0.413  -0.407
 -0.395  -0.392  -0.380  -0.373  -0.367  -0.360  -0.358  -0.354
 -0.346  -0.346  -0.340  -0.337  -0.334  -0.328  -0.320  -0.317
 -0.313  -0.310  -0.308  -0.307  -0.304  -0.299  -0.289  -0.276
 -0.274  -0.265  -0.254  -0.247  -0.240  -0.239  -0.236  -0.193
 -0.189  -0.174  -0.167  -0.164  -0.163  -0.155  -0.150  -0.147
 -0.145

          Ground-State Mulliken Net Atomic Charges

     Atom                 Charge (a.u.)
  ----------------------------------------
      1 O                    -0.196790
      2 C                     0.208239
      3 C                    -0.080262
      4 C                    -0.084358
      5 C                     0.203854
      6 O                    -0.178929
      7 C                    -0.061903
      8 C                    -0.053687
      9 O                    -0.177953
     10 C                     0.219427
     11 C                    -0.080622
     12 C                    -0.076321
     13 C                     0.211515
     14 O                    -0.214525
     15 O                    -0.176800
     16 O                    -0.167383
     17 O                    -0.217611
     18 C                    -0.128479
     19 C                     0.024038
     20 C                    -0.142751
     21 C                    -0.144679
     22 C                     0.024679
     23 O                    -0.190860
     24 H                     0.086375
     25 H                     0.088437
     26 H                     0.090286
     27 H                     0.078828
     28 H                     0.074123
     29 H                     0.079368
     30 H                     0.074630
     31 H                     0.085876
     32 O                    -0.189989
     33 C                    -0.130230
     34 C                     0.026229
     35 C                    -0.144543
     36 C                    -0.144519
     37 C                     0.026908
     38 O                    -0.181971
     39 H                     0.080921
     40 H                     0.078123
     41 H                     0.094675
     42 H                     0.087734
     43 H                     0.079718
     44 H                     0.071210
     45 H                     0.079920
     46 H                     0.074109
     47 H                     0.087906
     48 H                     0.091861
     49 H                     0.090964
     50 H                     0.095382
     51 H                     0.087431
     52 H                     0.094060
     53 H                     0.098320
     54 H                     0.094206
     55 H                     0.094626
     56 H                     0.081189
  ----------------------------------------
  Sum of atomic charges =    -0.000000

                    Cartesian Multipole Moments
 -----------------------------------------------------------------
    Charge (ESU x 10^10)
                -0.0000
    Dipole Moment (Debye)
         X       3.1605      Y      -0.5390      Z      -1.4669
       Tot       3.5258
    Quadrupole Moments (Debye-Ang)
        XX    -172.9585     XY       0.2133     YY    -155.8048
        XZ      19.8783     YZ      -1.7389     ZZ    -162.7000

 Total job time:  61.31s(wall), 2916.50s(cpu)
        *  Thank you very much for using Q-Chem.  Have a nice day.  *
