 Q-Chem 5.0, Q-Chem, Inc., Pleasanton, CA (2017)
 Q-Chem 5.0.1 for Intel X86 EM64T Linux

User input:
--------------------------------------------------------------
$molecule
0  1
O -3.94934 -3.66094 2.70899
C -3.26408 -4.56952 2.26188
C -3.36658 -6.02376 2.66595
C -2.27333 -6.57303 3.59705
C -1.29943 -5.56331 4.16282
O -0.38374 -5.21763 3.21023
C 0.5678 -4.25116 3.66823
C 1.7596 -4.19577 2.71814
O 1.32861 -3.76706 1.41685
C 1.84193 -2.58574 0.99243
C 1.35164 -2.19039 -0.38014
C 0.5274 -0.89544 -0.42495
C 0.61347 -0.01449 0.80518
O 0.1037 1.09044 0.92279
O -2.32349 -4.28517 1.32981
O 1.17962 -0.43832 1.96433
O 2.89449 -2.12994 1.43332
C 1.24247 0.26495 3.15256
C 2.48415 -1.8392 -1.36809
C 1.98876 -2.00487 -2.80428
C 1.03183 -0.83504 -2.90913
C 1.27392 -0.16036 -1.55372
O 2.62152 -0.44424 -1.26379
H 0.79042 -3.05149 -0.80772
H -0.54803 -1.05055 -0.65138
H 3.40781 -2.43773 -1.20902
H 2.86035 -1.81154 -3.47025
H 1.55397 -2.9969 -3.05258
H 1.36827 -0.18117 -3.74413
H -0.03809 -1.10592 -3.04207
H 1.00628 0.91832 -1.60686
O -1.27292 -5.18725 5.33053
C -2.09641 -3.02751 0.82249
C -4.61694 -6.2806 3.53959
C -5.01398 -7.7547 3.4708
C -3.91105 -8.37871 4.29435
C -3.15607 -7.12211 4.73902
O -4.15836 -6.1459 4.85973
H -3.48439 -6.60787 1.72586
H -1.67652 -7.39723 3.14611
H -1.74737 -2.34411 1.62619
H -5.48874 -5.64966 3.25836
H -5.97427 -7.86665 4.02375
H -5.13186 -8.1634 2.44418
H -4.37126 -8.88171 5.17402
H -3.25486 -9.09188 3.75011
H -2.57452 -7.34264 5.66146
H -3.02127 -2.62707 0.35507
H -1.32215 -3.10843 0.0424
H 1.76725 -0.35187 3.91072
H 0.21798 0.48606 3.52097
H 1.80562 1.21144 3.00817
H 2.51398 -3.53144 3.19561
H 2.21902 -5.20355 2.63199
H 0.99301 -4.56285 4.65094
H 0.09253 -3.25048 3.77344
$end

$opt
CONSTRAINT
tors           1           2           3           4    -104.211
tors           3           4           5           6     -77.128
tors           4           5           6           7    +179.402
tors           5           6           7           8    +164.583
tors           6           7           8           9     +62.666
tors           7           8           9          10    +116.283
tors           8           9          10          11    -180.000
tors           9          10          11          12    +116.779
tors          11          12          13          14    +174.902
ENDCONSTRAINT
$end

$rem
JOBTYPE                   OPT
METHOD                    B3LYP
DFT_D                     d3_op
BASIS                     STO-3G
GEOM_OPT_MAX_CYCLES       100
GEOM_OPT_TOL_GRADIENT     300
GEOM_OPT_TOL_DISPLACEMENT 1200
GEOM_OPT_TOL_ENERGY       100
SYMMETRY                  False
THRESH                    12
SCF_CONVERGENCE           8
MAX_SUB_FILE_NUM          128
MEM_STATIC                400
MEM_TOTAL                 4000
$end
--------------------------------------------------------------

   15   -1510.1342196109      7.25E-09 Convergence criterion met
 Total energy in the final basis set = -1510.13421961
   14   -1510.2076347820      4.37E-09 Convergence criterion met
 Total energy in the final basis set = -1510.20763478
   15   -1510.2479247720      1.28E-09 Convergence criterion met
 Total energy in the final basis set = -1510.24792477
   15   -1510.2657455443      1.47E-09 Convergence criterion met
 Total energy in the final basis set = -1510.26574554
   14   -1510.2738863892      6.10E-09 Convergence criterion met
 Total energy in the final basis set = -1510.27388639
   14   -1510.2773101151      3.29E-09 Convergence criterion met
 Total energy in the final basis set = -1510.27731012
   14   -1510.2795708813      2.60E-09 Convergence criterion met
 Total energy in the final basis set = -1510.27957088
   13   -1510.2808972039      7.28E-09 Convergence criterion met
   11   -1510.2853941299      5.76E-09 Convergence criterion met
 Total energy in the final basis set = -1510.28539413
   10   -1510.2853986636      9.35E-09 Convergence criterion met
 Total energy in the final basis set = -1510.28539866
    9   -1510.2854026161      3.99E-09 Convergence criterion met
 Total energy in the final basis set = -1510.28540262
   10   -1510.2854072611      5.99E-09 Convergence criterion met
 Total energy in the final basis set = -1510.28540726
   11   -1510.2854110512      2.40E-09 Convergence criterion met
 Total energy in the final basis set = -1510.28541105
   10   -1510.2854134816      9.68E-09 Convergence criterion met
 Total energy in the final basis set = -1510.28541348

             Standard Nuclear Orientation (Angstroms)
    I     Atom           X                Y                Z
 ----------------------------------------------------------------
    1      O      -2.2956956829     0.9198447829     2.1432286095
    2      C      -2.3904477241     1.0544011847     0.9030602235
    3      C      -3.6982215026     1.0324922139     0.0365751034
    4      C      -3.9309570164    -0.3125549749    -0.7855537781
    5      C      -2.9048474859    -1.4478765625    -0.4371048718
    6      O      -1.6649810627    -1.1521293884    -1.0863943352
    7      C      -0.6604820750    -2.1971254224    -0.7698165666
    8      C       0.5083893034    -2.0477405729    -1.7919118102
    9      O       1.1535640518    -0.7232605007    -1.6258723996
   10      C       2.5183256799    -0.8888656577    -1.2031957281
   11      C       3.1427226749     0.5412778546    -1.0460733393
   12      C       3.6026761942     0.9365491422     0.4176013569
   13      C       3.1005446738     0.0752503574     1.6275055005
   14      O       3.4560790957     0.2195913593     2.8166701085
   15      O      -1.2938600061     1.3420056659     0.0315769300
   16      O       2.0607136810    -0.8287455976     1.2256931437
   17      O       3.0933318702    -1.9951897306    -1.1084177094
   18      C       1.5886708120    -1.6118902462     2.3934714883
   19      C       4.5490529420     0.5613872182    -1.7898342852
   20      C       5.0703682980     2.0504218868    -1.8874852015
   21      C       5.6049841793     2.2879702971    -0.4264973605
   22      C       5.1887533160     0.9315705327     0.2632925492
   23      O       5.4431867414    -0.0722234307    -0.7930383574
   24      H       2.4283912895     1.2764704167    -1.4554292829
   25      H       3.2626413578     1.9669733404     0.6346997784
   26      H       4.5669177443    -0.0075971466    -2.7393445476
   27      H       5.8763266153     2.1303580955    -2.6338731567
   28      H       4.2643615027     2.7495103083    -2.1626124420
   29      H       6.7009022373     2.4006877980    -0.4129182318
   30      H       5.1519668687     3.1660989940     0.0607144593
   31      H       5.7361077908     0.6779275157     1.1920046253
   32      O      -3.1013578081    -2.4604824911     0.2691483042
   33      C      -0.0209639386     1.3842907903     0.7877990219
   34      C      -5.0118004558     1.0750076837     0.9228288916
   35      C      -6.2027969011     1.5604039789     0.0084242477
   36      C      -6.4376334699     0.2822299525    -0.8808959320
   37      C      -5.3749181102    -0.7166577322    -0.2725215631
   38      O      -5.3249640928    -0.3523388910     1.1624316067
   39      H      -3.6487232721     1.8894543902    -0.6593617523
   40      H      -3.8959753447    -0.1191563143    -1.8726243632
   41      H       0.5547485575     0.4436986902     0.6442089293
   42      H      -4.8924577488     1.6091974919     1.8853535677
   43      H      -7.0881213609     1.7917520130     0.6219890411
   44      H      -5.9408497749     2.4511637889    -0.5847637437
   45      H      -7.4569391950    -0.1163628446    -0.7567724515
   46      H      -6.2613583782     0.4716546393    -1.9520760221
   47      H      -5.6088543172    -1.7927660175    -0.3868797024
   48      H      -0.2257691420     1.5257677455     1.8678021385
   49      H       0.5679034693     2.2342918091     0.3953047219
   50      H       0.9522688575    -2.4193158612     1.9874806227
   51      H       0.9902477372    -0.9804431310     3.0819053480
   52      H       2.4367058999    -2.0504555445     2.9553887310
   53      H       1.2773585061    -2.8348181783    -1.6222266347
   54      H       0.1168408282    -2.1147787533    -2.8283784361
   55      H      -1.1106838243    -3.2116925041    -0.8421583715
   56      H      -0.2821018761    -2.0621303529     0.2656726141
 ----------------------------------------------------------------

    9   -1510.2854139764      3.36E-09 Convergence criterion met
 Total energy in the final basis set = -1510.28541398
 Final energy is   -1510.28541397641
 **  OPTIMIZATION CONVERGED  **

                    Orbital Energies (a.u.)
 --------------------------------------------------------------

 Alpha MOs
 -- Occupied --
-18.952 -18.933 -18.930 -18.929 -18.893 -18.887 -18.884 -18.874
-18.872 -18.871 -10.112 -10.100 -10.097 -10.095 -10.074 -10.073
-10.069 -10.065 -10.064 -10.056 -10.056 -10.048 -10.046 -10.042
-10.037 -10.035 -10.025 -10.024 -10.019 -10.018  -1.025  -1.014
 -1.008  -1.005  -0.975  -0.967  -0.948  -0.939  -0.932  -0.930
 -0.769  -0.761  -0.730  -0.724  -0.714  -0.706  -0.699  -0.671
 -0.656  -0.619  -0.600  -0.579  -0.551  -0.545  -0.540  -0.535
 -0.518  -0.509  -0.487  -0.477  -0.462  -0.458  -0.455  -0.449
 -0.441  -0.434  -0.428  -0.425  -0.418  -0.412  -0.406  -0.401
 -0.394  -0.387  -0.375  -0.366  -0.365  -0.360  -0.356  -0.349
 -0.344  -0.340  -0.337  -0.335  -0.330  -0.330  -0.328  -0.318
 -0.311  -0.309  -0.305  -0.303  -0.298  -0.292  -0.278  -0.277
 -0.272  -0.258  -0.254  -0.246  -0.241  -0.238  -0.231  -0.193
 -0.179  -0.171  -0.166  -0.163  -0.158  -0.155  -0.149  -0.147
 -0.141

          Ground-State Mulliken Net Atomic Charges

     Atom                 Charge (a.u.)
  ----------------------------------------
      1 O                    -0.215477
      2 C                     0.205919
      3 C                    -0.078155
      4 C                    -0.077117
      5 C                     0.205187
      6 O                    -0.168125
      7 C                    -0.047926
      8 C                    -0.054414
      9 O                    -0.171036
     10 C                     0.216460
     11 C                    -0.079873
     12 C                    -0.079610
     13 C                     0.212943
     14 O                    -0.208329
     15 O                    -0.166275
     16 O                    -0.169081
     17 O                    -0.215887
     18 C                    -0.127734
     19 C                     0.026560
     20 C                    -0.145148
     21 C                    -0.142534
     22 C                     0.025953
     23 O                    -0.185043
     24 H                     0.088319
     25 H                     0.085950
     26 H                     0.084794
     27 H                     0.079216
     28 H                     0.074101
     29 H                     0.079607
     30 H                     0.074226
     31 H                     0.088799
     32 O                    -0.211288
     33 C                    -0.143951
     34 C                     0.024330
     35 C                    -0.143496
     36 C                    -0.144676
     37 C                     0.024992
     38 O                    -0.186737
     39 H                     0.085199
     40 H                     0.085728
     41 H                     0.096853
     42 H                     0.087877
     43 H                     0.077876
     44 H                     0.072549
     45 H                     0.077858
     46 H                     0.072409
     47 H                     0.087120
     48 H                     0.092120
     49 H                     0.077744
     50 H                     0.092621
     51 H                     0.094325
     52 H                     0.098129
     53 H                     0.102990
     54 H                     0.086959
     55 H                     0.091961
     56 H                     0.084239
  ----------------------------------------
  Sum of atomic charges =     0.000000

                    Cartesian Multipole Moments
 -----------------------------------------------------------------
    Charge (ESU x 10^10)
                -0.0000
    Dipole Moment (Debye)
         X      -0.1177      Y       2.3574      Z      -2.7523
       Tot       3.6258
    Quadrupole Moments (Debye-Ang)
        XX    -163.1528     XY       3.0449     YY    -155.6354
        XZ       7.7932     YZ      -0.2228     ZZ    -163.2755

 Total job time:  123.19s(wall), 5876.87s(cpu)
        *  Thank you very much for using Q-Chem.  Have a nice day.  *
