 Q-Chem 5.0, Q-Chem, Inc., Pleasanton, CA (2017)
 Q-Chem 5.0.1 for Intel X86 EM64T Linux

User input:
--------------------------------------------------------------
$molecule
0  1
O -2.2956956829 0.9198447829 2.1432286095
C -2.3904477241 1.0544011847 0.9030602235
C -3.6982215026 1.0324922139 0.0365751034
C -3.9309570164 -0.3125549749 -0.7855537781
C -2.9048474859 -1.4478765625 -0.4371048718
O -1.6649810627 -1.1521293884 -1.0863943352
C -0.660482075 -2.1971254224 -0.7698165666
C 0.5083893034 -2.0477405729 -1.7919118102
O 1.1535640518 -0.7232605007 -1.6258723996
C 2.5183256799 -0.8888656577 -1.2031957281
C 3.1427226749 0.5412778546 -1.0460733393
C 3.6026761942 0.9365491422 0.4176013569
C 3.1005446738 0.0752503574 1.6275055005
O 3.4560790957 0.2195913593 2.8166701085
O -1.2938600061 1.3420056659 0.03157693
O 2.060713681 -0.8287455976 1.2256931437
O 3.0933318702 -1.9951897306 -1.1084177094
C 1.588670812 -1.6118902462 2.3934714883
C 4.549052942 0.5613872182 -1.7898342852
C 5.070368298 2.0504218868 -1.8874852015
C 5.6049841793 2.2879702971 -0.4264973605
C 5.188753316 0.9315705327 0.2632925492
O 5.4431867414 -0.0722234307 -0.7930383574
H 2.4283912895 1.2764704167 -1.4554292829
H 3.2626413578 1.9669733404 0.6346997784
H 4.5669177443 -0.0075971466 -2.7393445476
H 5.8763266153 2.1303580955 -2.6338731567
H 4.2643615027 2.7495103083 -2.162612442
H 6.7009022373 2.400687798 -0.4129182318
H 5.1519668687 3.166098994 0.0607144593
H 5.7361077908 0.6779275157 1.1920046253
O -3.1013578081 -2.4604824911 0.2691483042
C -0.0209639386 1.3842907903 0.7877990219
C -5.0118004558 1.0750076837 0.9228288916
C -6.2027969011 1.5604039789 0.0084242477
C -6.4376334699 0.2822299525 -0.880895932
C -5.3749181102 -0.7166577322 -0.2725215631
O -5.3249640928 -0.352338891 1.1624316067
H -3.6487232721 1.8894543902 -0.6593617523
H -3.8959753447 -0.1191563143 -1.8726243632
H 0.5547485575 0.4436986902 0.6442089293
H -4.8924577488 1.6091974919 1.8853535677
H -7.0881213609 1.791752013 0.6219890411
H -5.9408497749 2.4511637889 -0.5847637437
H -7.456939195 -0.1163628446 -0.7567724515
H -6.2613583782 0.4716546393 -1.9520760221
H -5.6088543172 -1.7927660175 -0.3868797024
H -0.225769142 1.5257677455 1.8678021385
H 0.5679034693 2.2342918091 0.3953047219
H 0.9522688575 -2.4193158612 1.9874806227
H 0.9902477372 -0.980443131 3.081905348
H 2.4367058999 -2.0504555445 2.955388731
H 1.2773585061 -2.8348181783 -1.6222266347
H 0.1168408282 -2.1147787533 -2.8283784361
H -1.1106838243 -3.2116925041 -0.8421583715
H -0.2821018761 -2.0621303529 0.2656726141
$end

$rem
JOBTYPE                   OPT
METHOD                    B3LYP
DFT_D                     d3_op
BASIS                     STO-3G
GEOM_OPT_MAX_CYCLES       100
GEOM_OPT_TOL_GRADIENT     300
GEOM_OPT_TOL_DISPLACEMENT 1200
GEOM_OPT_TOL_ENERGY       100
SYMMETRY                  False
THRESH                    12
SCF_CONVERGENCE           8
MAX_SUB_FILE_NUM          128
MEM_STATIC                400
MEM_TOTAL                 4000
$end
--------------------------------------------------------------

   16   -1510.2852593570      5.98E-09 Convergence criterion met
 Total energy in the final basis set = -1510.28525936
   13   -1510.2852250102      4.98E-09 Convergence criterion met
 Total energy in the final basis set = -1510.28522501
   13   -1510.2858699747      9.53E-09 Convergence criterion met
 Total energy in the final basis set = -1510.28586997
   13   -1510.2862602963      9.82E-09 Convergence criterion met
 Total energy in the final basis set = -1510.28626030
   14   -1510.2865086847      5.20E-09 Convergence criterion met
 Total energy in the final basis set = -1510.28650868
   14   -1510.2863291943      4.53E-09 Convergence criterion met
 Total energy in the final basis set = -1510.28632919
   14   -1510.2874905210      7.78E-09 Convergence criterion met
 Total energy in the final basis set = -1510.28749052
   13   -1510.2884819415      8.54E-09 Convergence criterion met
    9   -1510.2984143266      9.23E-09 Convergence criterion met
 Total energy in the final basis set = -1510.29841433
   11   -1510.2984084858      3.74E-09 Convergence criterion met
 Total energy in the final basis set = -1510.29840849
   11   -1510.2984096888      1.80E-09 Convergence criterion met
 Total energy in the final basis set = -1510.29840969
   10   -1510.2984108852      9.89E-09 Convergence criterion met
 Total energy in the final basis set = -1510.29841089
    9   -1510.2984115352      6.82E-09 Convergence criterion met
 Total energy in the final basis set = -1510.29841154
   11   -1510.2984139999      3.78E-09 Convergence criterion met
 Total energy in the final basis set = -1510.29841400

             Standard Nuclear Orientation (Angstroms)
    I     Atom           X                Y                Z
 ----------------------------------------------------------------
    1      O      -1.8752265261     1.2185428018     1.0647184930
    2      C      -2.1727806645     1.1555584691    -0.1512027196
    3      C      -3.5518910933     0.7151663756    -0.7617302794
    4      C      -3.9107231471    -0.8174998818    -0.5725233277
    5      C      -2.8342633865    -1.6678358945     0.1845055084
    6      O      -1.5387156133    -1.3486153059    -0.3364450348
    7      C      -0.4996233006    -2.1478673430     0.3580272980
    8      C       0.5114912078    -2.7182368352    -0.6930752140
    9      O       1.3767761674    -1.6529256518    -1.2556036666
   10      C       2.4334339337    -1.3466967775    -0.3351560254
   11      C       3.2992632253    -0.1948632923    -0.9422113273
   12      C       3.5989970303     0.9629765284     0.0982237900
   13      C       2.8664136737     0.8138373108     1.4796952119
   14      O       3.3674830461     0.8736859429     2.6204453176
   15      O      -1.3438547156     1.5765757028    -1.2304270322
   16      O       1.4619479167     0.6661259788     1.2252636430
   17      O       2.6170634696    -1.9437686072     0.7482854086
   18      C       0.6670252574     0.6832862254     2.4764326079
   19      C       4.7782649807    -0.7024802869    -1.2378602598
   20      C       5.5188592824     0.3870489568    -2.1114097959
   21      C       5.8378962540     1.4840523522    -1.0283186853
   22      C       5.1720067137     0.8448064088     0.2513522656
   23      O       5.4319885140    -0.6045468824     0.0854143492
   24      H       2.7964172401     0.1837795460    -1.8488678990
   25      H       3.3098427895     1.9417419869    -0.3273912025
   26      H       4.8376670602    -1.7380308560    -1.6257509182
   27      H       6.4392000868    -0.0302498111    -2.5498367439
   28      H       4.8799499268     0.7652489164    -2.9254754830
   29      H       6.9234407738     1.5995728126    -0.8800817520
   30      H       5.4074012247     2.4674497380    -1.2755142640
   31      H       5.5539503955     1.1974396034     1.2292461923
   32      O      -3.0452821505    -2.5253280708     1.0699415951
   33      C      -0.0640514833     2.1503676385    -0.7475308119
   34      C      -4.7654265250     1.3903177391     0.0161066083
   35      C      -6.0641372485     1.2583807225    -0.8743860523
   36      C      -6.4152749551    -0.2636869063    -0.6782835118
   37      C      -5.2456617774    -0.7232287169     0.2761616619
   38      O      -5.0143250747     0.4587617877     1.1385541315
   39      H      -3.5471893133     0.9892941989    -1.8308558197
   40      H      -4.0868381489    -1.2947926630    -1.5548948277
   41      H       0.5066347272     1.4597590560    -0.0776584844
   42      H      -4.5551503952     2.4080321286     0.3979646092
   43      H      -6.8631172704     1.9108650838    -0.4878713045
   44      H      -5.8733756660     1.5190692311    -1.9276490226
   45      H      -7.3907461163    -0.3933784926    -0.1831844153
   46      H      -6.4224045018    -0.8249241793    -1.6263457070
   47      H      -5.4434810683    -1.6218471370     0.8927798951
   48      H      -0.2449298611     3.1016511449    -0.2061363310
   49      H       0.5236088431     2.3627535368    -1.6592137477
   50      H      -0.3796935942     0.8609809349     2.1365035157
   51      H       1.0039961799     1.4948126402     3.1506791093
   52      H       0.7558458652    -0.2825791253     3.0132664779
   53      H       1.1288729040    -3.5002716745    -0.2003261903
   54      H      -0.0339059011    -3.1559357971    -1.5531547623
   55      H      -0.9999855301    -2.9665718360     0.9206734161
   56      H       0.0411992200    -1.4949468918     1.0731131770
 ----------------------------------------------------------------

    9   -1510.2984146735      9.23E-09 Convergence criterion met
 Total energy in the final basis set = -1510.29841467
 Final energy is   -1510.29841467345
 **  OPTIMIZATION CONVERGED  **

                    Orbital Energies (a.u.)
 --------------------------------------------------------------

 Alpha MOs
 -- Occupied --
-18.939 -18.938 -18.936 -18.932 -18.890 -18.888 -18.884 -18.882
-18.874 -18.870 -10.105 -10.104 -10.101 -10.100 -10.076 -10.068
-10.063 -10.060 -10.060 -10.059 -10.046 -10.043 -10.041 -10.041
-10.040 -10.036 -10.023 -10.022 -10.021 -10.020  -1.020  -1.016
 -1.010  -1.005  -0.972  -0.971  -0.944  -0.941  -0.936  -0.933
 -0.767  -0.764  -0.730  -0.724  -0.714  -0.706  -0.699  -0.657
 -0.656  -0.619  -0.598  -0.584  -0.549  -0.545  -0.539  -0.538
 -0.514  -0.511  -0.485  -0.477  -0.459  -0.456  -0.454  -0.452
 -0.440  -0.434  -0.431  -0.420  -0.417  -0.406  -0.403  -0.399
 -0.390  -0.382  -0.380  -0.370  -0.361  -0.360  -0.354  -0.350
 -0.344  -0.342  -0.335  -0.333  -0.331  -0.328  -0.323  -0.313
 -0.311  -0.308  -0.307  -0.300  -0.294  -0.290  -0.287  -0.279
 -0.271  -0.265  -0.256  -0.244  -0.238  -0.236  -0.235  -0.190
 -0.181  -0.172  -0.170  -0.164  -0.159  -0.152  -0.150  -0.145
 -0.144

          Ground-State Mulliken Net Atomic Charges

     Atom                 Charge (a.u.)
  ----------------------------------------
      1 O                    -0.224280
      2 C                     0.220258
      3 C                    -0.079119
      4 C                    -0.078074
      5 C                     0.213371
      6 O                    -0.172191
      7 C                    -0.057530
      8 C                    -0.049394
      9 O                    -0.169295
     10 C                     0.210005
     11 C                    -0.079352
     12 C                    -0.079348
     13 C                     0.218260
     14 O                    -0.202326
     15 O                    -0.167580
     16 O                    -0.178979
     17 O                    -0.215180
     18 C                    -0.145557
     19 C                     0.026096
     20 C                    -0.144147
     21 C                    -0.143613
     22 C                     0.024556
     23 O                    -0.185829
     24 H                     0.087201
     25 H                     0.083620
     26 H                     0.083107
     27 H                     0.078708
     28 H                     0.073697
     29 H                     0.079020
     30 H                     0.072958
     31 H                     0.091716
     32 O                    -0.210815
     33 C                    -0.148775
     34 C                     0.025700
     35 C                    -0.144030
     36 C                    -0.144003
     37 C                     0.024161
     38 O                    -0.186977
     39 H                     0.086338
     40 H                     0.085396
     41 H                     0.113542
     42 H                     0.083455
     43 H                     0.078231
     44 H                     0.073542
     45 H                     0.078636
     46 H                     0.072912
     47 H                     0.091071
     48 H                     0.075570
     49 H                     0.078767
     50 H                     0.119860
     51 H                     0.086964
     52 H                     0.084373
     53 H                     0.095926
     54 H                     0.091560
     55 H                     0.102301
     56 H                     0.095516
  ----------------------------------------
  Sum of atomic charges =    -0.000000

                    Cartesian Multipole Moments
 -----------------------------------------------------------------
    Charge (ESU x 10^10)
                -0.0000
    Dipole Moment (Debye)
         X      -0.8745      Y       1.3293      Z      -4.4022
       Tot       4.6809
    Quadrupole Moments (Debye-Ang)
        XX    -157.1285     XY       5.7170     YY    -153.9927
        XZ      -1.6338     YZ       2.8322     ZZ    -166.0106

 Total job time:  136.49s(wall), 6511.33s(cpu)
        *  Thank you very much for using Q-Chem.  Have a nice day.  *
