 Q-Chem 5.0, Q-Chem, Inc., Pleasanton, CA (2017)
 Q-Chem 5.0.1 for Intel X86 EM64T Linux

User input:
--------------------------------------------------------------
$molecule
0  1
O -3.94934 -3.66094 2.70899
C -3.26408 -4.56952 2.26188
C -3.36658 -6.02376 2.66595
C -2.06069 -6.83393 2.712
C -0.77739 -6.05609 2.52176
O -0.02255 -6.63832 1.54367
C 1.20689 -5.94833 1.29541
C 2.23781 -6.90628 0.70747
O 1.59495 -8.1207 0.28938
C 2.13233 -8.71882 -0.80269
C 1.42946 -10.0022 -1.17629
C 1.52175 -10.38215 -2.66134
C 2.57253 -9.64576 -3.46775
O 3.02318 -10.00921 -4.54449
O -2.5441 -4.32603 1.13405
O 2.51064 -8.28694 -3.35222
O 3.32481 -8.56608 -1.05172
C 3.24078 -7.3541 -4.06925
C 2.05696 -11.24898 -0.52259
C 1.01829 -12.36668 -0.45328
C 0.89751 -12.72936 -1.9197
C 1.99784 -11.84067 -2.51352
O 2.9539 -11.74245 -1.48587
H 0.37054 -9.91668 -0.83902
H 0.55399 -10.28333 -3.20028
H 2.48054 -11.04987 0.48625
H 1.49671 -13.21619 0.08529
H 0.06258 -12.10769 0.05116
H 1.14763 -13.80732 -2.03523
H -0.08917 -12.51269 -2.38367
H 2.36033 -12.27018 -3.47341
O -0.45894 -5.07233 3.1813
C -2.40178 -3.08493 0.54986
C -3.85028 -6.19377 4.11995
C -4.43694 -7.59211 4.31914
C -3.1756 -8.42888 4.32441
C -2.11528 -7.33617 4.16688
O -2.66023 -6.24366 4.8668
H -4.0977 -6.47996 1.96169
H -2.07888 -7.6921 2.00062
H -1.919 -2.3817 1.26169
H -4.59283 -5.42733 4.43141
H -4.89142 -7.63388 5.33478
H -5.19692 -7.88029 3.56124
H -3.07148 -8.90119 5.3269
H -3.11591 -9.2075 3.53356
H -1.12835 -7.70398 4.52614
H -3.39333 -2.6889 0.243
H -1.76017 -3.17877 -0.35016
H 3.81487 -6.72312 -3.35983
H 2.54408 -6.70562 -4.639
H 3.95963 -7.81998 -4.77631
H 2.91291 -6.41 -0.02731
H 2.87138 -7.21437 1.56748
H 1.64593 -5.37206 2.14221
H 0.96867 -5.21943 0.4902
$end

$opt
CONSTRAINT
tors           1           2           3           4    -144.721
tors           3           4           5           6    -128.245
tors           4           5           6           7    +179.402
tors           5           6           7           8    +154.940
tors           6           7           8           9     +13.295
tors           7           8           9          10    +146.618
tors           8           9          10          11    +178.935
tors           9          10          11          12    +153.504
tors          11          12          13          14    +161.326
ENDCONSTRAINT
$end

$rem
JOBTYPE                   OPT
METHOD                    B3LYP
DFT_D                     d3_op
BASIS                     STO-3G
GEOM_OPT_MAX_CYCLES       100
GEOM_OPT_TOL_GRADIENT     300
GEOM_OPT_TOL_DISPLACEMENT 1200
GEOM_OPT_TOL_ENERGY       100
SYMMETRY                  False
THRESH                    12
SCF_CONVERGENCE           8
MAX_SUB_FILE_NUM          128
MEM_STATIC                400
MEM_TOTAL                 4000
$end
--------------------------------------------------------------

   16   -1510.1170572737      2.35E-09 Convergence criterion met
 Total energy in the final basis set = -1510.11705727
   14   -1510.1891852794      7.91E-09 Convergence criterion met
 Total energy in the final basis set = -1510.18918528
   14   -1510.2292929177      8.47E-09 Convergence criterion met
 Total energy in the final basis set = -1510.22929292
   14   -1510.2496537207      7.55E-09 Convergence criterion met
 Total energy in the final basis set = -1510.24965372
   14   -1510.2587379803      3.62E-09 Convergence criterion met
 Total energy in the final basis set = -1510.25873798
   14   -1510.2634879515      3.96E-09 Convergence criterion met
 Total energy in the final basis set = -1510.26348795
   12   -1510.2664574984      8.37E-09 Convergence criterion met
 Total energy in the final basis set = -1510.26645750
   12   -1510.2682425204      8.88E-09 Convergence criterion met
   11   -1510.2730409802      5.41E-09 Convergence criterion met
 Total energy in the final basis set = -1510.27304098
   11   -1510.2730519795      5.32E-09 Convergence criterion met
 Total energy in the final basis set = -1510.27305198
   11   -1510.2730574225      2.03E-09 Convergence criterion met
 Total energy in the final basis set = -1510.27305742
   11   -1510.2730630100      2.62E-09 Convergence criterion met
 Total energy in the final basis set = -1510.27306301
    9   -1510.2730640461      5.14E-09 Convergence criterion met
 Total energy in the final basis set = -1510.27306405
    9   -1510.2730650469      2.62E-09 Convergence criterion met
 Total energy in the final basis set = -1510.27306505

             Standard Nuclear Orientation (Angstroms)
    I     Atom           X                Y                Z
 ----------------------------------------------------------------
    1      O       5.6409506799    -1.9524346741    -1.1489482575
    2      C       4.5439043981    -1.3713693109    -1.0159592764
    3      C       4.2642074872     0.1702144373    -1.0846328409
    4      C       3.1361091217     0.6816996855    -0.0972391676
    5      C       2.6727520900    -0.4041853420     0.9363243203
    6      O       1.2417881691    -0.4823816904     0.8631428124
    7      C       0.7330100903    -1.5055239399     1.8088058387
    8      C      -0.7505369107    -1.1271427577     2.1740708425
    9      O      -1.2126463950    -0.0934623449     1.2145346063
   10      C      -2.6140379757    -0.2498367651     0.9519755703
   11      C      -3.0357457190     0.8880158580    -0.0436146944
   12      C      -4.2849918728     0.5267381400    -0.9384550538
   13      C      -4.5821882638    -0.9943921498    -1.1723391810
   14      O      -5.6688718331    -1.4813334240    -1.5555810721
   15      O       3.2848410412    -2.0459497559    -0.8787224622
   16      O      -3.3527174294    -1.7291021356    -1.1088004091
   17      O      -3.3438999319    -1.0959888696     1.5114307296
   18      C      -3.5929342379    -3.1678795330    -1.3594729546
   19      C      -3.6759077107     2.0518398748     0.8383517964
   20      C      -4.0230845541     3.2933743329    -0.0785040109
   21      C      -5.3703981950     2.8224220369    -0.7437874437
   22      C      -5.4482525009     1.3373892360    -0.2188724929
   23      O      -4.9940542174     1.4697032834     1.1853781453
   24      H      -2.1597633315     1.2144353038    -0.6297162936
   25      H      -4.1285220648     0.9467142166    -1.9510954970
   26      H      -3.1040716607     2.2927527130     1.7557040562
   27      H      -4.1616486657     4.2011440441     0.5296265931
   28      H      -3.2306786560     3.4825315503    -0.8203866758
   29      H      -6.2274482801     3.4044187472    -0.3685219842
   30      H      -5.3525502427     2.8840538008    -1.8436296252
   31      H      -6.4437043176     0.8547379749    -0.2700712682
   32      O       3.3737357366    -1.0336293727     1.7580076159
   33      C       3.4929837837    -3.5042783398    -0.7365559680
   34      C       5.5065962407     1.0427498715    -0.6303095079
   35      C       5.3272048359     2.4897014515    -1.2331836671
   36      C       4.1536929291     3.0412578197    -0.3409521561
   37      C       3.9299638221     1.8356604568     0.6570346871
   38      O       5.2809369586     1.2503103050     0.8193762135
   39      H       3.9857571663     0.4036339174    -2.1297125043
   40      H       2.2488644884     1.0563047459    -0.6358452012
   41      H       3.9996521834    -3.7440499578     0.2208511531
   42      H       6.4864513414     0.5586333656    -0.8097926272
   43      H       6.2478970908     3.0794192981    -1.0965962264
   44      H       5.0760177969     2.4686144159    -2.3056053653
   45      H       4.4534078561     3.9472176213     0.2091365051
   46      H       3.2463774012     3.2665977446    -0.9243433724
   47      H       3.5076222038     2.1124036982     1.6424266553
   48      H       4.0972290592    -3.9144743327    -1.5708548827
   49      H       2.4857321825    -3.9599580974    -0.7452778441
   50      H      -3.4428843204    -3.7341157054    -0.4183398101
   51      H      -2.8656211261    -3.5153706469    -2.1183475796
   52      H      -4.6306765099    -3.3125339669    -1.7226364051
   53      H      -1.4245661571    -2.0088642046     2.1323802214
   54      H      -0.7977816276    -0.7079864600     3.2028316725
   55      H       1.3775790973    -1.5498900488     2.7124716597
   56      H       0.7670068593    -2.5014547526     1.3153598197
 ----------------------------------------------------------------

    9   -1510.2730656696      2.79E-09 Convergence criterion met
 Total energy in the final basis set = -1510.27306567
 Final energy is   -1510.27306566955
 **  OPTIMIZATION CONVERGED  **

                    Orbital Energies (a.u.)
 --------------------------------------------------------------

 Alpha MOs
 -- Occupied --
-18.938 -18.933 -18.931 -18.929 -18.888 -18.887 -18.880 -18.875
-18.870 -18.865 -10.102 -10.101 -10.097 -10.095 -10.071 -10.070
-10.067 -10.061 -10.060 -10.060 -10.058 -10.058 -10.039 -10.039
-10.038 -10.035 -10.022 -10.021 -10.021 -10.020  -1.016  -1.013
 -1.008  -1.001  -0.971  -0.969  -0.940  -0.938  -0.934  -0.925
 -0.765  -0.763  -0.728  -0.723  -0.714  -0.705  -0.697  -0.664
 -0.660  -0.617  -0.600  -0.575  -0.547  -0.544  -0.539  -0.536
 -0.515  -0.506  -0.487  -0.471  -0.463  -0.455  -0.454  -0.452
 -0.439  -0.433  -0.430  -0.416  -0.413  -0.412  -0.409  -0.404
 -0.385  -0.379  -0.375  -0.368  -0.362  -0.358  -0.354  -0.351
 -0.347  -0.341  -0.334  -0.331  -0.329  -0.324  -0.323  -0.313
 -0.311  -0.306  -0.306  -0.298  -0.292  -0.290  -0.286  -0.273
 -0.270  -0.257  -0.253  -0.247  -0.240  -0.234  -0.234  -0.181
 -0.178  -0.171  -0.165  -0.159  -0.158  -0.152  -0.147  -0.144
 -0.141

          Ground-State Mulliken Net Atomic Charges

     Atom                 Charge (a.u.)
  ----------------------------------------
      1 O                    -0.208624
      2 C                     0.214904
      3 C                    -0.078991
      4 C                    -0.078235
      5 C                     0.213983
      6 O                    -0.166035
      7 C                    -0.050383
      8 C                    -0.051561
      9 O                    -0.167623
     10 C                     0.216907
     11 C                    -0.076251
     12 C                    -0.078809
     13 C                     0.215628
     14 O                    -0.215515
     15 O                    -0.170694
     16 O                    -0.171161
     17 O                    -0.214687
     18 C                    -0.135035
     19 C                     0.024745
     20 C                    -0.145183
     21 C                    -0.141924
     22 C                     0.025201
     23 O                    -0.188159
     24 H                     0.088509
     25 H                     0.084466
     26 H                     0.082611
     27 H                     0.078328
     28 H                     0.073366
     29 H                     0.078597
     30 H                     0.073553
     31 H                     0.090498
     32 O                    -0.220773
     33 C                    -0.128440
     34 C                     0.024246
     35 C                    -0.143144
     36 C                    -0.144498
     37 C                     0.025498
     38 O                    -0.186507
     39 H                     0.084534
     40 H                     0.087347
     41 H                     0.092902
     42 H                     0.090592
     43 H                     0.078373
     44 H                     0.072802
     45 H                     0.077962
     46 H                     0.073124
     47 H                     0.082714
     48 H                     0.091704
     49 H                     0.089161
     50 H                     0.086759
     51 H                     0.085030
     52 H                     0.102343
     53 H                     0.097499
     54 H                     0.082027
     55 H                     0.095425
     56 H                     0.080891
  ----------------------------------------
  Sum of atomic charges =    -0.000000

                    Cartesian Multipole Moments
 -----------------------------------------------------------------
    Charge (ESU x 10^10)
                -0.0000
    Dipole Moment (Debye)
         X      -0.1583      Y       1.3346      Z      -2.3455
       Tot       2.7032
    Quadrupole Moments (Debye-Ang)
        XX    -192.6684     XY      -0.6342     YY    -144.7509
        XZ      -2.3126     YZ      -1.9858     ZZ    -158.4544

 Total job time:  66.57s(wall), 3166.98s(cpu)
        *  Thank you very much for using Q-Chem.  Have a nice day.  *
