 Q-Chem 5.0, Q-Chem, Inc., Pleasanton, CA (2017)
 Q-Chem 5.0.1 for Intel X86 EM64T Linux

User input:
--------------------------------------------------------------
$molecule
0  1
O 5.6409506799 -1.9524346741 -1.1489482575
C 4.5439043981 -1.3713693109 -1.0159592764
C 4.2642074872 0.1702144373 -1.0846328409
C 3.1361091217 0.6816996855 -0.0972391676
C 2.67275209 -0.404185342 0.9363243203
O 1.2417881691 -0.4823816904 0.8631428124
C 0.7330100903 -1.5055239399 1.8088058387
C -0.7505369107 -1.1271427577 2.1740708425
O -1.212646395 -0.0934623449 1.2145346063
C -2.6140379757 -0.2498367651 0.9519755703
C -3.035745719 0.888015858 -0.0436146944
C -4.2849918728 0.52673814 -0.9384550538
C -4.5821882638 -0.9943921498 -1.172339181
O -5.6688718331 -1.481333424 -1.5555810721
O 3.2848410412 -2.0459497559 -0.8787224622
O -3.3527174294 -1.7291021356 -1.1088004091
O -3.3438999319 -1.0959888696 1.5114307296
C -3.5929342379 -3.167879533 -1.3594729546
C -3.6759077107 2.0518398748 0.8383517964
C -4.0230845541 3.2933743329 -0.0785040109
C -5.370398195 2.8224220369 -0.7437874437
C -5.4482525009 1.337389236 -0.2188724929
O -4.9940542174 1.4697032834 1.1853781453
H -2.1597633315 1.2144353038 -0.6297162936
H -4.1285220648 0.9467142166 -1.951095497
H -3.1040716607 2.292752713 1.7557040562
H -4.1616486657 4.2011440441 0.5296265931
H -3.230678656 3.4825315503 -0.8203866758
H -6.2274482801 3.4044187472 -0.3685219842
H -5.3525502427 2.8840538008 -1.8436296252
H -6.4437043176 0.8547379749 -0.2700712682
O 3.3737357366 -1.0336293727 1.7580076159
C 3.4929837837 -3.5042783398 -0.736555968
C 5.5065962407 1.0427498715 -0.6303095079
C 5.3272048359 2.4897014515 -1.2331836671
C 4.1536929291 3.0412578197 -0.3409521561
C 3.9299638221 1.8356604568 0.6570346871
O 5.2809369586 1.250310305 0.8193762135
H 3.9857571663 0.4036339174 -2.1297125043
H 2.2488644884 1.0563047459 -0.6358452012
H 3.9996521834 -3.7440499578 0.2208511531
H 6.4864513414 0.5586333656 -0.8097926272
H 6.2478970908 3.0794192981 -1.0965962264
H 5.0760177969 2.4686144159 -2.3056053653
H 4.4534078561 3.9472176213 0.2091365051
H 3.2463774012 3.2665977446 -0.9243433724
H 3.5076222038 2.1124036982 1.6424266553
H 4.0972290592 -3.9144743327 -1.5708548827
H 2.4857321825 -3.9599580974 -0.7452778441
H -3.4428843204 -3.7341157054 -0.4183398101
H -2.8656211261 -3.5153706469 -2.1183475796
H -4.6306765099 -3.3125339669 -1.7226364051
H -1.4245661571 -2.0088642046 2.1323802214
H -0.7977816276 -0.70798646 3.2028316725
H 1.3775790973 -1.5498900488 2.7124716597
H 0.7670068593 -2.5014547526 1.3153598197
$end

$rem
JOBTYPE                   OPT
METHOD                    B3LYP
DFT_D                     d3_op
BASIS                     STO-3G
GEOM_OPT_MAX_CYCLES       100
GEOM_OPT_TOL_GRADIENT     300
GEOM_OPT_TOL_DISPLACEMENT 1200
GEOM_OPT_TOL_ENERGY       100
SYMMETRY                  False
THRESH                    12
SCF_CONVERGENCE           8
MAX_SUB_FILE_NUM          128
MEM_STATIC                400
MEM_TOTAL                 4000
$end
--------------------------------------------------------------

   16   -1510.2729584419      5.26E-09 Convergence criterion met
 Total energy in the final basis set = -1510.27295844
   13   -1510.2750396099      5.08E-09 Convergence criterion met
 Total energy in the final basis set = -1510.27503961
   13   -1510.2767945235      7.69E-09 Convergence criterion met
 Total energy in the final basis set = -1510.27679452
   13   -1510.2781608555      8.82E-09 Convergence criterion met
 Total energy in the final basis set = -1510.27816086
   13   -1510.2795605034      7.36E-09 Convergence criterion met
 Total energy in the final basis set = -1510.27956050
   14   -1510.2807119140      1.59E-09 Convergence criterion met
 Total energy in the final basis set = -1510.28071191
   14   -1510.2819283691      1.50E-09 Convergence criterion met
 Total energy in the final basis set = -1510.28192837
   14   -1510.2814086886      6.08E-09 Convergence criterion met
   11   -1510.3011177240      4.13E-09 Convergence criterion met
 Total energy in the final basis set = -1510.30111772
   11   -1510.3011384251      3.77E-09 Convergence criterion met
 Total energy in the final basis set = -1510.30113843
   11   -1510.3011479084      5.91E-09 Convergence criterion met
 Total energy in the final basis set = -1510.30114791
   11   -1510.3011500281      4.08E-09 Convergence criterion met
 Total energy in the final basis set = -1510.30115003
   10   -1510.3011501622      8.94E-09 Convergence criterion met
 Total energy in the final basis set = -1510.30115016
    9   -1510.3011490297      9.46E-09 Convergence criterion met
 Total energy in the final basis set = -1510.30114903

             Standard Nuclear Orientation (Angstroms)
    I     Atom           X                Y                Z
 ----------------------------------------------------------------
    1      O       3.8926787530    -1.7063231622     0.8183034202
    2      C       3.0380012417    -1.5730217321    -0.0809669253
    3      C       2.6672047708    -0.3064277810    -0.9173859504
    4      C       1.5286295141     0.5899051883    -0.2706403751
    5      C       1.2959662354     0.3461334771     1.2576957213
    6      O       1.0911826435    -1.0614048884     1.4819869541
    7      C       0.7626014671    -1.3147626342     2.9032226439
    8      C      -0.8014803474    -1.3841841298     3.0759307920
    9      O      -1.4015408463    -0.1372771382     2.5430583702
   10      C      -1.7542620444    -0.3127165144     1.1676394300
   11      C      -2.1698676326     1.0736383513     0.5755445743
   12      C      -2.3935076809     1.0253006018    -0.9916993509
   13      C      -2.0854758236    -0.3745032266    -1.6411670062
   14      O      -2.9040871515    -1.2063832172    -2.0827769839
   15      O       2.2149910080    -2.6474874878    -0.5797897384
   16      O      -0.6570737788    -0.4950871766    -1.7733286522
   17      O      -1.7515249429    -1.4136521796     0.5709746251
   18      C      -0.2666979193    -1.8618705383    -2.1960389524
   19      C      -3.6227279821     1.4926803142     1.0693703557
   20      C      -3.8557686559     3.0137788966     0.7097760828
   21      C      -4.1102222025     2.9251897191    -0.8416491081
   22      C      -3.9365369718     1.3761263335    -1.0885679114
   23      O      -4.5103082136     0.7663783818     0.1347404851
   24      H      -1.4100017603     1.8212953623     0.8665706346
   25      H      -1.7678366687     1.7841180645    -1.4949818128
   26      H      -3.8426151595     1.2147476790     2.1185059578
   27      H      -4.7366624901     3.4041430479     1.2436396491
   28      H      -2.9833705697     3.6367200038     0.9643856740
   29      H      -5.1323139148     3.2444556107    -1.1007562912
   30      H      -3.3940244497     3.5241768977    -1.4265750093
   31      H      -4.4354756115     0.9702906193    -1.9897774906
   32      O       1.2601655229     1.2053838610     2.1640133961
   33      C       2.4099839184    -3.8702348305     0.2271699065
   34      C       3.8246272290     0.7670601175    -1.1098222032
   35      C       3.4985548923     1.5477445175    -2.4428740847
   36      C       2.2348657918     2.3746571719    -1.9967414132
   37      C       2.1580370037     2.0233021822    -0.4581526476
   38      O       3.5718683500     1.7867136093    -0.0667092454
   39      H       2.3232250611    -0.6687464876    -1.9010438285
   40      H       0.5713166618     0.3968661625    -0.8154526888
   41      H       2.0654853534    -3.7216902967     1.2706678446
   42      H       4.8532562780     0.3667949151    -1.0221396091
   43      H       4.3369916796     2.2095539006    -2.7133351580
   44      H       3.2915520597     0.8724264962    -3.2884109407
   45      H       2.3831471968     3.4559203789    -2.1445899237
   46      H       1.3211244420     2.0657414746    -2.5297032502
   47      H       1.7079108998     2.7985837886     0.1916047919
   48      H       3.4743374648    -4.1814741138     0.2464226859
   49      H       1.8002979361    -4.6577014955    -0.2529626099
   50      H      -1.1376195413    -2.5404215696    -2.1154304981
   51      H       0.5689441458    -2.2023473168    -1.5410507400
   52      H       0.0735495148    -1.8360999107    -3.2511914355
   53      H      -1.2085032926    -2.2592530874     2.5262509300
   54      H      -1.0677033058    -1.4433884308     4.1505818037
   55      H       1.1735718341    -0.4954036662     3.5303318316
   56      H       1.2214213179    -2.2846832363     3.1832711078
 ----------------------------------------------------------------

    9   -1510.3011487318      9.82E-09 Convergence criterion met
 Total energy in the final basis set = -1510.30114873
 Final energy is   -1510.30114873178
 **  OPTIMIZATION CONVERGED  **

                    Orbital Energies (a.u.)
 --------------------------------------------------------------

 Alpha MOs
 -- Occupied --
-18.944 -18.936 -18.934 -18.929 -18.890 -18.890 -18.880 -18.878
-18.874 -18.872 -10.110 -10.100 -10.100 -10.099 -10.078 -10.075
-10.065 -10.064 -10.060 -10.055 -10.053 -10.044 -10.043 -10.039
-10.030 -10.023 -10.022 -10.020 -10.017 -10.016  -1.028  -1.013
 -1.007  -1.004  -0.973  -0.964  -0.948  -0.939  -0.936  -0.932
 -0.767  -0.759  -0.730  -0.722  -0.714  -0.704  -0.698  -0.663
 -0.653  -0.620  -0.599  -0.580  -0.549  -0.544  -0.539  -0.534
 -0.515  -0.507  -0.492  -0.472  -0.469  -0.460  -0.456  -0.446
 -0.432  -0.431  -0.429  -0.420  -0.412  -0.410  -0.407  -0.403
 -0.395  -0.382  -0.376  -0.368  -0.367  -0.358  -0.351  -0.351
 -0.347  -0.340  -0.336  -0.335  -0.329  -0.327  -0.326  -0.315
 -0.308  -0.307  -0.304  -0.303  -0.296  -0.285  -0.283  -0.279
 -0.272  -0.258  -0.252  -0.246  -0.241  -0.237  -0.226  -0.199
 -0.180  -0.171  -0.168  -0.164  -0.159  -0.152  -0.149  -0.148
 -0.139

          Ground-State Mulliken Net Atomic Charges

     Atom                 Charge (a.u.)
  ----------------------------------------
      1 O                    -0.213048
      2 C                     0.216487
      3 C                    -0.082627
      4 C                    -0.097127
      5 C                     0.207466
      6 O                    -0.176432
      7 C                    -0.053187
      8 C                    -0.052942
      9 O                    -0.169967
     10 C                     0.213212
     11 C                    -0.079527
     12 C                    -0.082039
     13 C                     0.222556
     14 O                    -0.210144
     15 O                    -0.172334
     16 O                    -0.182367
     17 O                    -0.204308
     18 C                    -0.144785
     19 C                     0.025854
     20 C                    -0.143661
     21 C                    -0.143895
     22 C                     0.025187
     23 O                    -0.188136
     24 H                     0.090404
     25 H                     0.083155
     26 H                     0.086325
     27 H                     0.079177
     28 H                     0.075212
     29 H                     0.078891
     30 H                     0.073365
     31 H                     0.089931
     32 O                    -0.210781
     33 C                    -0.126265
     34 C                     0.023522
     35 C                    -0.141860
     36 C                    -0.145519
     37 C                     0.021588
     38 O                    -0.190119
     39 H                     0.084317
     40 H                     0.114496
     41 H                     0.086430
     42 H                     0.084504
     43 H                     0.076773
     44 H                     0.072302
     45 H                     0.075937
     46 H                     0.073588
     47 H                     0.085250
     48 H                     0.089871
     49 H                     0.090407
     50 H                     0.098155
     51 H                     0.108558
     52 H                     0.074938
     53 H                     0.100196
     54 H                     0.091790
     55 H                     0.102882
     56 H                     0.088342
  ----------------------------------------
  Sum of atomic charges =    -0.000000

                    Cartesian Multipole Moments
 -----------------------------------------------------------------
    Charge (ESU x 10^10)
                -0.0000
    Dipole Moment (Debye)
         X      -0.1817      Y       0.0463      Z      -0.5349
       Tot       0.5668
    Quadrupole Moments (Debye-Ang)
        XX    -175.9381     XY     -12.9529     YY    -151.1973
        XZ     -10.1965     YZ      -9.3269     ZZ    -153.2050

 Total job time:  294.57s(wall), 14031.86s(cpu)
        *  Thank you very much for using Q-Chem.  Have a nice day.  *
