 Q-Chem 5.0, Q-Chem, Inc., Pleasanton, CA (2017)
 Q-Chem 5.0.1 for Intel X86 EM64T Linux

User input:
--------------------------------------------------------------
$molecule
0  1
O -2.5098530426 0.9477503119 1.8801891012
C -2.8506566935 1.144802414 0.6916225305
C -4.2619907229 0.8644439439 0.0593428545
C -4.3796707405 -0.429725817 -0.8634252478
C -3.1033111999 -1.3465196647 -0.8320932355
O -2.0144116517 -0.6153509147 -1.4069724337
C -0.7138447598 -1.1638283632 -0.9581693228
C 0.3867556552 -0.5883091206 -1.9192935577
O 1.2404895765 0.3603147831 -1.1684359313
C 2.6168684328 -0.0659220757 -1.1852047654
C 3.458457946 0.9803231682 -0.375295391
C 4.2229665057 0.3786721495 0.8737195272
C 3.7395786552 -1.0098545628 1.4199015556
O 4.3072571433 -1.689565988 2.3017753966
O -2.0418523636 1.8164916126 -0.2776418102
O 2.4552347224 -1.3322962275 0.8758154626
O 3.030353223 -1.0367295028 -1.8538364166
C 1.9833560684 -2.6371574633 1.3924597269
C 4.7014302726 1.4101404673 -1.2708135002
C 5.4673472211 2.6055287495 -0.5749872113
C 6.285231067 1.8468815966 0.5356486287
C 5.7294679958 0.3814957207 0.3575305362
O 5.6107978491 0.2509500606 -1.112190289
H 2.8078920571 1.8265533049 -0.0947645839
H 4.1309732194 1.0790958953 1.7255030228
H 4.4591879885 1.5655531942 -2.3400195503
H 6.1291494972 3.1123649337 -1.2946704651
H 4.7705628913 3.3473820206 -0.1529956533
H 7.3667054591 1.8725141052 0.3265066719
H 6.1088452404 2.2451930744 1.5473753914
H 6.3581433408 -0.4273541201 0.7780346671
O -3.0074197969 -2.4934163536 -0.345459132
C -0.7081959771 2.147566984 0.2873648993
C -5.3602390896 0.5447559491 1.1594595521
C -6.7790065203 0.8360573896 0.5322717734
C -6.9241834616 -0.3796023292 -0.4579001757
C -5.5908818432 -1.1756292198 -0.1669516772
O -5.3350700651 -0.9315351909 1.2720946605
H -4.5327381614 1.7589379631 -0.5306346073
H -4.5953929189 -0.1441090581 -1.9091522884
H 0.0768734797 1.5594466142 -0.2424417927
H -5.1619542742 1.0097334652 2.1445330723
H -7.5552515388 0.8139329158 1.3139392922
H -6.8193512486 1.8109986961 0.0208718637
H -7.8045451319 -0.9967605585 -0.2182018445
H -6.9918125201 -0.061751503 -1.5107104372
H -5.6243618612 -2.2631571709 -0.3721014715
H -0.7002016659 1.9086242255 1.3695576703
H -0.5334675159 3.2302048807 0.1369476493
H 0.9795012403 -2.7929902957 0.957218722
H 1.9137622089 -2.6327716819 2.4992111224
H 2.6553629011 -3.4625816938 1.0812297498
H 1.0448881792 -1.385610749 -2.3286698156
H -0.1072121788 -0.0421828545 -2.751032437
H -0.7348585656 -2.2751184833 -0.9846774069
H -0.5038663078 -0.8451576692 0.0869203492
$end

$rem
JOBTYPE                   OPT
METHOD                    B3LYP
DFT_D                     d3_op
BASIS                     STO-3G
GEOM_OPT_MAX_CYCLES       100
GEOM_OPT_TOL_GRADIENT     300
GEOM_OPT_TOL_DISPLACEMENT 1200
GEOM_OPT_TOL_ENERGY       100
SYMMETRY                  False
THRESH                    12
SCF_CONVERGENCE           8
MAX_SUB_FILE_NUM          128
MEM_STATIC                400
MEM_TOTAL                 4000
$end
--------------------------------------------------------------

   16   -1510.2798666582      5.81E-09 Convergence criterion met
 Total energy in the final basis set = -1510.27986666
   13   -1510.2811781964      7.09E-09 Convergence criterion met
 Total energy in the final basis set = -1510.28117820
   14   -1510.2830306209      5.49E-09 Convergence criterion met
 Total energy in the final basis set = -1510.28303062
   13   -1510.2839453123      9.11E-09 Convergence criterion met
 Total energy in the final basis set = -1510.28394531
   13   -1510.2855559120      9.02E-09 Convergence criterion met
 Total energy in the final basis set = -1510.28555591
   13   -1510.2867412007      5.21E-09 Convergence criterion met
 Total energy in the final basis set = -1510.28674120
   13   -1510.2878261749      8.13E-09 Convergence criterion met
 Total energy in the final basis set = -1510.28782617
   13   -1510.2887590394      8.48E-09 Convergence criterion met
   12   -1510.2978742865      3.14E-09 Convergence criterion met
 Total energy in the final basis set = -1510.29787429
   11   -1510.2978877699      2.93E-09 Convergence criterion met
 Total energy in the final basis set = -1510.29788777
   11   -1510.2978876401      8.11E-09 Convergence criterion met
 Total energy in the final basis set = -1510.29788764
   11   -1510.2978888515      5.12E-09 Convergence criterion met
 Total energy in the final basis set = -1510.29788885
   11   -1510.2978926855      5.42E-09 Convergence criterion met
 Total energy in the final basis set = -1510.29789269
   11   -1510.2978951157      1.52E-09 Convergence criterion met
 Total energy in the final basis set = -1510.29789512

             Standard Nuclear Orientation (Angstroms)
    I     Atom           X                Y                Z
 ----------------------------------------------------------------
    1      O      -1.7262642526    -0.3058076526     1.4161031018
    2      C      -2.2282357502     0.6790216059     0.8284015945
    3      C      -3.7247964606     0.8415311609     0.3820673607
    4      C      -4.0839987289     0.0051305098    -0.9212113623
    5      C      -2.9205943316    -0.9032519909    -1.4554377058
    6      O      -1.7005777888    -0.1472263144    -1.4615334006
    7      C      -0.5592739072    -1.0191898925    -1.8313398028
    8      C       0.4890411696    -0.1902958363    -2.6501888711
    9      O       1.3288800152     0.6908862614    -1.8002682022
   10      C       2.3936185405    -0.0695010755    -1.1935274555
   11      C       3.3066748430     0.9073818633    -0.3837739152
   12      C       3.6503812807     0.3833773982     1.0734563073
   13      C       2.9224049580    -0.9534046377     1.4647389162
   14      O       3.4435954904    -2.0243090647     1.8387338459
   15      O      -1.5537312863     1.8930796204     0.5055984708
   16      O       1.5142733037    -0.7279305360     1.3601364900
   17      O       2.5455915634    -1.2985150794    -1.3575402522
   18      C       0.7467932252    -1.9479292877     1.7041114494
   19      C       4.7649600733     0.9552372427    -1.0213292428
   20      C       5.5491071577     2.1723210275    -0.3878422862
   21      C       5.9033193769     1.6015504855     1.0362667635
   22      C       5.2180148916     0.1827295821     0.9701171914
   23      O       5.4223472919    -0.2339227040    -0.4380262513
   24      H       2.8307746151     1.9025730507    -0.3634059608
   25      H       3.3869729022     1.1495996299     1.8257550002
   26      H       4.7841546382     0.9071556293    -2.1275500201
   27      H       6.4557310096     2.3917653805    -0.9740085461
   28      H       4.9309580270     3.0833376339    -0.3404931535
   29      H       6.9919823861     1.4986600451     1.1696325578
   30      H       5.5023360638     2.2194387991     1.8553209085
   31      H       5.6162256832    -0.5857803417     1.6608822379
   32      O      -3.0109517797    -2.0877723585    -1.8431601906
   33      C      -0.0851681612     1.7594184517     0.6572191318
   34      C      -4.7444029761     0.2094995661     1.4241687941
   35      C      -6.1815515192     0.7888009074     1.1203405268
   36      C      -6.5504558405     0.0073765321    -0.1956537772
   37      C      -5.2698568709    -0.8970047884    -0.3839599041
   38      O      -4.8463825872    -1.2057354396     1.0018363564
   39      H      -3.9162556150     1.9164525417     0.2194333205
   40      H      -4.4077519533     0.6735903030    -1.7409826808
   41      H       0.3683572460     1.5544906303    -0.3397565502
   42      H      -4.4187668277     0.2739988146     2.4803911744
   43      H      -6.8746775018     0.5463853003     1.9415260109
   44      H      -6.1684606396     1.8812329354     0.9785762214
   45      H      -7.4475981104    -0.6168810567    -0.0581590594
   46      H      -6.7135751301     0.6768835357    -1.0552827888
   47      H      -5.4152727741    -1.8309530057    -0.9616282189
   48      H       0.1903097030     0.9226909579     1.3316674422
   49      H       0.2944531358     2.7179095641     1.0571793884
   50      H      -0.3143659685    -1.6237938781     1.6573608538
   51      H       0.9992616046    -2.3106370137     2.7203576707
   52      H       0.9453252339    -2.7623402321     0.9780518454
   53      H       1.1343038138    -0.8991703488    -3.2120002350
   54      H      -0.0337064735     0.4831250476    -3.3592071527
   55      H      -0.9374088828    -1.8749339054    -2.4319184079
   56      H      -0.0875862281    -1.4187514327    -0.9085293776
 ----------------------------------------------------------------

    9   -1510.2978952184      4.47E-09 Convergence criterion met
 Total energy in the final basis set = -1510.29789522
 Final energy is   -1510.29789521835
 **  OPTIMIZATION CONVERGED  **

                    Orbital Energies (a.u.)
 --------------------------------------------------------------

 Alpha MOs
 -- Occupied --
-18.946 -18.941 -18.929 -18.924 -18.890 -18.887 -18.886 -18.885
-18.875 -18.865 -10.108 -10.107 -10.098 -10.097 -10.083 -10.074
-10.065 -10.059 -10.059 -10.058 -10.045 -10.043 -10.041 -10.039
-10.035 -10.034 -10.023 -10.022 -10.021 -10.020  -1.024  -1.018
 -1.006  -1.000  -0.972  -0.970  -0.948  -0.942  -0.933  -0.928
 -0.767  -0.763  -0.731  -0.724  -0.714  -0.706  -0.701  -0.654
 -0.650  -0.622  -0.597  -0.584  -0.549  -0.545  -0.539  -0.538
 -0.514  -0.510  -0.488  -0.474  -0.459  -0.456  -0.454  -0.452
 -0.439  -0.434  -0.430  -0.419  -0.414  -0.405  -0.402  -0.399
 -0.395  -0.383  -0.375  -0.365  -0.365  -0.357  -0.357  -0.349
 -0.346  -0.345  -0.335  -0.333  -0.330  -0.329  -0.320  -0.313
 -0.310  -0.308  -0.306  -0.301  -0.294  -0.286  -0.286  -0.278
 -0.271  -0.266  -0.255  -0.248  -0.237  -0.234  -0.232  -0.194
 -0.179  -0.174  -0.165  -0.163  -0.161  -0.150  -0.148  -0.146
 -0.144

          Ground-State Mulliken Net Atomic Charges

     Atom                 Charge (a.u.)
  ----------------------------------------
      1 O                    -0.228744
      2 C                     0.220251
      3 C                    -0.079878
      4 C                    -0.077753
      5 C                     0.213477
      6 O                    -0.172845
      7 C                    -0.055409
      8 C                    -0.049252
      9 O                    -0.169896
     10 C                     0.213052
     11 C                    -0.078991
     12 C                    -0.079064
     13 C                     0.213400
     14 O                    -0.206592
     15 O                    -0.171751
     16 O                    -0.179325
     17 O                    -0.208320
     18 C                    -0.143183
     19 C                     0.026071
     20 C                    -0.143876
     21 C                    -0.143792
     22 C                     0.024496
     23 O                    -0.185724
     24 H                     0.086880
     25 H                     0.084206
     26 H                     0.082441
     27 H                     0.078815
     28 H                     0.073647
     29 H                     0.079028
     30 H                     0.073506
     31 H                     0.092090
     32 O                    -0.208014
     33 C                    -0.153356
     34 C                     0.025135
     35 C                    -0.143712
     36 C                    -0.144288
     37 C                     0.024014
     38 O                    -0.187879
     39 H                     0.085802
     40 H                     0.085586
     41 H                     0.096806
     42 H                     0.084689
     43 H                     0.078124
     44 H                     0.073471
     45 H                     0.078503
     46 H                     0.072799
     47 H                     0.090423
     48 H                     0.102367
     49 H                     0.074608
     50 H                     0.116776
     51 H                     0.085411
     52 H                     0.084472
     53 H                     0.097310
     54 H                     0.095077
     55 H                     0.102086
     56 H                     0.096824
  ----------------------------------------
  Sum of atomic charges =    -0.000000

                    Cartesian Multipole Moments
 -----------------------------------------------------------------
    Charge (ESU x 10^10)
                -0.0000
    Dipole Moment (Debye)
         X      -1.0357      Y       4.3387      Z      -1.1211
       Tot       4.5993
    Quadrupole Moments (Debye-Ang)
        XX    -153.8102     XY       5.9434     YY    -167.1233
        XZ       3.5300     YZ       2.1713     ZZ    -154.2522

 Total job time:  115.05s(wall), 5485.37s(cpu)
        *  Thank you very much for using Q-Chem.  Have a nice day.  *
