 Q-Chem 5.0, Q-Chem, Inc., Pleasanton, CA (2017)
 Q-Chem 5.0.1 for Intel X86 EM64T Linux

User input:
--------------------------------------------------------------
$molecule
0  1
O -3.94934 -3.66094 2.70899
C -3.26408 -4.56952 2.26188
C -3.36658 -6.02376 2.66595
C -2.27333 -6.57303 3.59705
C -1.29943 -5.56331 4.16282
O -0.55377 -5.02239 3.15445
C 0.01516 -3.75322 3.49326
C 1.11875 -3.39118 2.50476
O 0.70369 -2.28167 1.69261
C 1.49271 -1.18086 1.762
C 1.00444 -0.0509 0.88711
C 0.67081 1.24859 1.6343
C 1.19904 1.35045 3.05109
O 1.15403 2.34952 3.75423
O -2.35148 -4.27983 1.29762
O 1.61006 0.25906 3.74721
O 2.66679 -1.22939 2.12217
C 2.03735 0.23696 5.06167
C 2.05458 0.45216 -0.12185
C 1.35706 1.14773 -1.28978
C 0.86543 2.41068 -0.6125
C 1.48747 2.23712 0.77816
O 2.67821 1.52712 0.53432
H 0.11556 -0.41632 0.32171
H -0.41403 1.49154 1.65867
H 2.72474 -0.35276 -0.49554
H 2.14867 1.42289 -2.02332
H 0.57425 0.5499 -1.80428
H 1.31066 3.28508 -1.13716
H -0.23916 2.52111 -0.55475
H 1.60643 3.22743 1.27116
O -1.23708 -5.22746 5.34091
C -2.20755 -3.03615 0.71733
C -4.61143 -6.28585 3.54844
C -5.01222 -7.7583 3.46747
C -3.89881 -8.39566 4.26769
C -3.14435 -7.14569 4.73222
O -4.14588 -6.17046 4.86931
H -3.49238 -6.60898 1.7275
H -1.66394 -7.3691 3.11438
H -1.96294 -2.27505 1.48799
H -5.48424 -5.65038 3.28113
H -5.96396 -7.87098 4.03501
H -5.14991 -8.15836 2.43995
H -4.34912 -8.92456 5.1371
H -3.24121 -9.08895 3.69983
H -2.55662 -7.37783 5.64767
H -3.14641 -2.74732 0.19864
H -1.38636 -3.07406 -0.02736
H 2.30768 -0.80321 5.33684
H 1.22489 0.5838 5.73523
H 2.93219 0.88375 5.18362
H 2.04002 -3.18607 3.09707
H 1.37385 -4.26161 1.86279
H 0.53785 -3.85632 4.47401
H -0.74869 -2.95365 3.61586
$end

$opt
CONSTRAINT
tors           1           2           3           4    -104.211
tors           3           4           5           6     -65.294
tors           4           5           6           7    +158.149
tors           5           6           7           8    +164.583
tors           6           7           8           9    +111.173
tors           7           8           9          10    +120.750
tors           8           9          10          11    -180.000
tors           9          10          11          12    +120.283
tors          11          12          13          14    +172.271
ENDCONSTRAINT
$end

$rem
JOBTYPE                   OPT
METHOD                    B3LYP
DFT_D                     d3_op
BASIS                     STO-3G
GEOM_OPT_MAX_CYCLES       100
GEOM_OPT_TOL_GRADIENT     300
GEOM_OPT_TOL_DISPLACEMENT 1200
GEOM_OPT_TOL_ENERGY       100
SYMMETRY                  False
THRESH                    12
SCF_CONVERGENCE           8
MAX_SUB_FILE_NUM          128
MEM_STATIC                400
MEM_TOTAL                 4000
$end
--------------------------------------------------------------

   15   -1510.1270716798      6.76E-09 Convergence criterion met
 Total energy in the final basis set = -1510.12707168
   14   -1510.2003298662      7.04E-09 Convergence criterion met
 Total energy in the final basis set = -1510.20032987
   14   -1510.2405283348      8.00E-09 Convergence criterion met
 Total energy in the final basis set = -1510.24052833
   14   -1510.2581828525      9.56E-09 Convergence criterion met
 Total energy in the final basis set = -1510.25818285
   14   -1510.2667576583      4.96E-09 Convergence criterion met
 Total energy in the final basis set = -1510.26675766
   14   -1510.2701153932      3.27E-09 Convergence criterion met
 Total energy in the final basis set = -1510.27011539
   14   -1510.2720790546      2.51E-09 Convergence criterion met
 Total energy in the final basis set = -1510.27207905
   13   -1510.2738450960      9.12E-09 Convergence criterion met
   12   -1510.2797480591      4.41E-09 Convergence criterion met
 Total energy in the final basis set = -1510.27974806
   12   -1510.2798162549      6.95E-09 Convergence criterion met
 Total energy in the final basis set = -1510.27981625
   12   -1510.2798506959      2.84E-09 Convergence criterion met
 Total energy in the final basis set = -1510.27985070
   11   -1510.2798798067      9.92E-09 Convergence criterion met
 Total energy in the final basis set = -1510.27987981
    9   -1510.2798840703      9.88E-09 Convergence criterion met
 Total energy in the final basis set = -1510.27988407
   10   -1510.2798896347      9.80E-09 Convergence criterion met
 Total energy in the final basis set = -1510.27988963

             Standard Nuclear Orientation (Angstroms)
    I     Atom           X                Y                Z
 ----------------------------------------------------------------
    1      O      -2.5098530426     0.9477503119     1.8801891012
    2      C      -2.8506566935     1.1448024140     0.6916225305
    3      C      -4.2619907229     0.8644439439     0.0593428545
    4      C      -4.3796707405    -0.4297258170    -0.8634252478
    5      C      -3.1033111999    -1.3465196647    -0.8320932355
    6      O      -2.0144116517    -0.6153509147    -1.4069724337
    7      C      -0.7138447598    -1.1638283632    -0.9581693228
    8      C       0.3867556552    -0.5883091206    -1.9192935577
    9      O       1.2404895765     0.3603147831    -1.1684359313
   10      C       2.6168684328    -0.0659220757    -1.1852047654
   11      C       3.4584579460     0.9803231682    -0.3752953910
   12      C       4.2229665057     0.3786721495     0.8737195272
   13      C       3.7395786552    -1.0098545628     1.4199015556
   14      O       4.3072571433    -1.6895659880     2.3017753966
   15      O      -2.0418523636     1.8164916126    -0.2776418102
   16      O       2.4552347224    -1.3322962275     0.8758154626
   17      O       3.0303532230    -1.0367295028    -1.8538364166
   18      C       1.9833560684    -2.6371574633     1.3924597269
   19      C       4.7014302726     1.4101404673    -1.2708135002
   20      C       5.4673472211     2.6055287495    -0.5749872113
   21      C       6.2852310670     1.8468815966     0.5356486287
   22      C       5.7294679958     0.3814957207     0.3575305362
   23      O       5.6107978491     0.2509500606    -1.1121902890
   24      H       2.8078920571     1.8265533049    -0.0947645839
   25      H       4.1309732194     1.0790958953     1.7255030228
   26      H       4.4591879885     1.5655531942    -2.3400195503
   27      H       6.1291494972     3.1123649337    -1.2946704651
   28      H       4.7705628913     3.3473820206    -0.1529956533
   29      H       7.3667054591     1.8725141052     0.3265066719
   30      H       6.1088452404     2.2451930744     1.5473753914
   31      H       6.3581433408    -0.4273541201     0.7780346671
   32      O      -3.0074197969    -2.4934163536    -0.3454591320
   33      C      -0.7081959771     2.1475669840     0.2873648993
   34      C      -5.3602390896     0.5447559491     1.1594595521
   35      C      -6.7790065203     0.8360573896     0.5322717734
   36      C      -6.9241834616    -0.3796023292    -0.4579001757
   37      C      -5.5908818432    -1.1756292198    -0.1669516772
   38      O      -5.3350700651    -0.9315351909     1.2720946605
   39      H      -4.5327381614     1.7589379631    -0.5306346073
   40      H      -4.5953929189    -0.1441090581    -1.9091522884
   41      H       0.0768734797     1.5594466142    -0.2424417927
   42      H      -5.1619542742     1.0097334652     2.1445330723
   43      H      -7.5552515388     0.8139329158     1.3139392922
   44      H      -6.8193512486     1.8109986961     0.0208718637
   45      H      -7.8045451319    -0.9967605585    -0.2182018445
   46      H      -6.9918125201    -0.0617515030    -1.5107104372
   47      H      -5.6243618612    -2.2631571709    -0.3721014715
   48      H      -0.7002016659     1.9086242255     1.3695576703
   49      H      -0.5334675159     3.2302048807     0.1369476493
   50      H       0.9795012403    -2.7929902957     0.9572187220
   51      H       1.9137622089    -2.6327716819     2.4992111224
   52      H       2.6553629011    -3.4625816938     1.0812297498
   53      H       1.0448881792    -1.3856107490    -2.3286698156
   54      H      -0.1072121788    -0.0421828545    -2.7510324370
   55      H      -0.7348585656    -2.2751184833    -0.9846774069
   56      H      -0.5038663078    -0.8451576692     0.0869203492
 ----------------------------------------------------------------

    9   -1510.2798903527      6.56E-09 Convergence criterion met
 Total energy in the final basis set = -1510.27989035
 Final energy is   -1510.27989035266
 **  OPTIMIZATION CONVERGED  **

                    Orbital Energies (a.u.)
 --------------------------------------------------------------

 Alpha MOs
 -- Occupied --
-18.946 -18.937 -18.931 -18.926 -18.893 -18.884 -18.882 -18.881
-18.878 -18.870 -10.108 -10.107 -10.101 -10.094 -10.074 -10.071
-10.071 -10.065 -10.064 -10.056 -10.056 -10.045 -10.044 -10.039
-10.038 -10.036 -10.025 -10.024 -10.019 -10.018  -1.022  -1.015
 -1.011  -1.003  -0.975  -0.967  -0.945  -0.942  -0.936  -0.929
 -0.769  -0.761  -0.731  -0.723  -0.713  -0.705  -0.699  -0.668
 -0.652  -0.620  -0.598  -0.581  -0.550  -0.545  -0.542  -0.536
 -0.518  -0.509  -0.492  -0.478  -0.467  -0.458  -0.455  -0.451
 -0.436  -0.428  -0.422  -0.416  -0.416  -0.412  -0.405  -0.402
 -0.395  -0.389  -0.380  -0.367  -0.364  -0.359  -0.356  -0.347
 -0.345  -0.341  -0.340  -0.335  -0.331  -0.330  -0.328  -0.318
 -0.310  -0.310  -0.305  -0.302  -0.300  -0.294  -0.277  -0.277
 -0.272  -0.254  -0.253  -0.249  -0.239  -0.238  -0.232  -0.188
 -0.181  -0.176  -0.165  -0.161  -0.159  -0.156  -0.150  -0.148
 -0.142

          Ground-State Mulliken Net Atomic Charges

     Atom                 Charge (a.u.)
  ----------------------------------------
      1 O                    -0.217901
      2 C                     0.205297
      3 C                    -0.078610
      4 C                    -0.076829
      5 C                     0.208806
      6 O                    -0.173902
      7 C                    -0.050857
      8 C                    -0.055035
      9 O                    -0.177308
     10 C                     0.223417
     11 C                    -0.078521
     12 C                    -0.079371
     13 C                     0.212108
     14 O                    -0.210443
     15 O                    -0.168764
     16 O                    -0.169944
     17 O                    -0.212721
     18 C                    -0.127156
     19 C                     0.026239
     20 C                    -0.145225
     21 C                    -0.142241
     22 C                     0.025549
     23 O                    -0.184703
     24 H                     0.086609
     25 H                     0.086727
     26 H                     0.084147
     27 H                     0.079361
     28 H                     0.073906
     29 H                     0.079623
     30 H                     0.074574
     31 H                     0.089523
     32 O                    -0.207332
     33 C                    -0.153318
     34 C                     0.024132
     35 C                    -0.143446
     36 C                    -0.144714
     37 C                     0.024123
     38 O                    -0.188005
     39 H                     0.085226
     40 H                     0.085264
     41 H                     0.103396
     42 H                     0.088079
     43 H                     0.077907
     44 H                     0.072677
     45 H                     0.077949
     46 H                     0.072474
     47 H                     0.088372
     48 H                     0.092620
     49 H                     0.076939
     50 H                     0.092961
     51 H                     0.094182
     52 H                     0.093438
     53 H                     0.103763
     54 H                     0.094157
     55 H                     0.091744
     56 H                     0.091054
  ----------------------------------------
  Sum of atomic charges =     0.000000

                    Cartesian Multipole Moments
 -----------------------------------------------------------------
    Charge (ESU x 10^10)
                 0.0000
    Dipole Moment (Debye)
         X      -0.4744      Y       2.9615      Z      -1.1848
       Tot       3.2248
    Quadrupole Moments (Debye-Ang)
        XX    -155.7959     XY       5.0219     YY    -157.6856
        XZ      11.1227     YZ       2.1099     ZZ    -165.8466

 Total job time:  84.17s(wall), 4010.30s(cpu)
        *  Thank you very much for using Q-Chem.  Have a nice day.  *
