 Q-Chem 5.0, Q-Chem, Inc., Pleasanton, CA (2017)
 Q-Chem 5.0.1 for Intel X86 EM64T Linux

User input:
--------------------------------------------------------------
$molecule
0  1
O 1.722182576 1.4428412783 -0.6195746083
C 2.2020957173 1.0251081474 0.4561159876
C 3.6925433738 0.6508544435 0.7526260131
C 3.9302162453 -0.9173662917 0.7246294207
C 2.8775437759 -1.6962826684 -0.1530298663
O 1.642004519 -1.8120032105 0.5639544185
C 0.5893829475 -2.3733706912 -0.3273423067
C -0.5831998593 -2.8376228799 0.6073944381
O -1.5907745732 -1.8237385143 1.022778985
C -2.1027267847 -1.0030582325 -0.0482620175
C -3.3808305912 -0.3189138262 0.5496951942
C -3.6921802267 1.1975318262 0.2050190734
C -2.8847119771 1.8733070199 -0.9675748545
O -3.383206693 2.5751690842 -1.8747091727
O 1.5106530169 0.8121197117 1.6815871152
O -1.4823837591 1.6815872264 -0.8087791941
O -1.6816482314 -0.9716227497 -1.2242305602
C -0.7374877905 2.2999113118 -1.9316766135
C -4.7253999593 -1.0237308922 0.0474357101
C -5.8186354794 -0.8021847018 1.1641106709
C -6.1181635701 0.7325903466 0.9823841351
C -5.204623184 1.0828679464 -0.2565727662
O -5.1923880331 -0.1643860744 -1.0598246899
H -3.2926271382 -0.4340766001 1.6444667985
H -3.574905167 1.8255547712 1.1080695447
H -4.6016069649 -2.0696544108 -0.2947040481
H -6.7099044753 -1.4149876622 0.9536404705
H -5.4462677532 -1.0506304092 2.1708061847
H -7.1784194846 0.9141941077 0.7459906654
H -5.848200343 1.3240733236 1.8718172153
H -5.535392979 1.9370173533 -0.8790088401
O 3.0577407339 -2.1571449514 -1.3005661625
C 0.0364269776 0.9156591475 1.5781550876
C 4.789426498 1.157124703 -0.2746068969
C 6.1444727285 1.2572856785 0.5267315248
C 6.4438574472 -0.2683565632 0.7789227322
C 5.302080128 -0.9586705323 -0.0691848375
O 5.0309677868 0.0013981621 -1.1685862693
H 3.9130745839 1.026936191 1.767840092
H 3.9735159623 -1.3451989173 1.7419947234
H -0.3931871663 -0.0922651082 1.7578781733
H 4.5012144411 2.0510457811 -0.860874467
H 6.9241276446 1.7187682396 -0.1004366425
H 6.0484899473 1.8364006967 1.4590540584
H 7.4376051283 -0.5570173346 0.4021511542
H 6.3793655706 -0.5394825032 1.8451828207
H 5.5521755414 -1.9530920746 -0.486047881
H -0.327276841 1.2843478245 0.5915309761
H -0.3066380186 1.6004110733 2.3778655728
H 0.3259564597 2.1110911775 -1.6773302009
H -0.946028478 3.3861563837 -2.0010897794
H -1.0056844867 1.8197501827 -2.8933075715
H -1.1194983537 -3.6709046893 0.0991936803
H -0.1628369742 -3.2239492388 1.5585877956
H 0.9836245567 -3.2486538626 -0.8863551595
H 0.2103854219 -1.620745264 -1.0522949265
$end

$rem
JOBTYPE                   OPT
METHOD                    B3LYP
DFT_D                     d3_op
BASIS                     STO-3G
GEOM_OPT_MAX_CYCLES       100
GEOM_OPT_TOL_GRADIENT     300
GEOM_OPT_TOL_DISPLACEMENT 1200
GEOM_OPT_TOL_ENERGY       100
SYMMETRY                  False
THRESH                    12
SCF_CONVERGENCE           8
MAX_SUB_FILE_NUM          128
MEM_STATIC                400
MEM_TOTAL                 4000
$end
--------------------------------------------------------------

   16   -1510.2805629520      6.64E-09 Convergence criterion met
 Total energy in the final basis set = -1510.28056295
   14   -1510.2749081587      4.62E-09 Convergence criterion met
 Total energy in the final basis set = -1510.27490816
   15   -1510.2789074759      2.44E-09 Convergence criterion met
 Total energy in the final basis set = -1510.27890748
   14   -1510.2838077106      8.08E-09 Convergence criterion met
 Total energy in the final basis set = -1510.28380771
   15   -1510.2891018318      2.07E-09 Convergence criterion met
 Total energy in the final basis set = -1510.28910183
   14   -1510.2910896107      2.80E-09 Convergence criterion met
 Total energy in the final basis set = -1510.29108961
   13   -1510.2931438556      8.99E-09 Convergence criterion met
 Total energy in the final basis set = -1510.29314386
   14   -1510.2947418874      5.07E-09 Convergence criterion met
   12   -1510.2978388784      4.56E-09 Convergence criterion met
 Total energy in the final basis set = -1510.29783888
   11   -1510.2979153744      8.99E-09 Convergence criterion met
 Total energy in the final basis set = -1510.29791537
   11   -1510.2979086878      3.04E-09 Convergence criterion met
 Total energy in the final basis set = -1510.29790869
   11   -1510.2979161696      3.71E-09 Convergence criterion met
 Total energy in the final basis set = -1510.29791617
   11   -1510.2979155180      2.23E-09 Convergence criterion met
 Total energy in the final basis set = -1510.29791552
    9   -1510.2979142010      9.55E-09 Convergence criterion met
 Total energy in the final basis set = -1510.29791420

             Standard Nuclear Orientation (Angstroms)
    I     Atom           X                Y                Z
 ----------------------------------------------------------------
    1      O       1.6711674686     1.4980707218     0.0932638465
    2      C       2.1261864813     0.7469147848     0.9855877301
    3      C       3.6238886012     0.3150371784     1.1682722852
    4      C       4.0828031488    -0.8187887410     0.1543742302
    5      C       3.0003726680    -1.2343154375    -0.9045054961
    6      O       1.7293626016    -1.3677132723    -0.2525629110
    7      C       0.6620722659    -1.6258000558    -1.2495073982
    8      C      -0.3968201608    -2.6078907613    -0.6403483334
    9      O      -1.3245581006    -1.9511009217     0.3151946143
   10      C      -2.3462804943    -1.2295450874    -0.4011863215
   11      C      -3.3618843568    -0.6308188223     0.6268559490
   12      C      -3.7609904366     0.8682263123     0.2957079559
   13      C      -2.9473083968     1.5016911722    -0.8901314297
   14      O      -3.3969441227     2.0016680530    -1.9418289721
   15      O       1.3860147142     0.1911374142     2.0702620715
   16      O      -1.5619456254     1.4506115866    -0.5400399759
   17      O      -2.3980204260    -1.1586078380    -1.6474379692
   18      C      -0.7137847475     2.0152120698    -1.6156746129
   19      C      -4.7792755905    -1.3424090441     0.4749336288
   20      C      -5.6889724093    -0.9212282295     1.6974722094
   21      C      -6.1007687505     0.5413679269     1.2843764969
   22      C      -5.2965446947     0.7100336260    -0.0619121436
   23      O      -5.3782591209    -0.6361003638    -0.6774607866
   24      H      -2.9511810671    -0.7388390147     1.6451552652
   25      H      -3.6177818168     1.5056291755     1.1875744670
   26      H      -4.7271673333    -2.4314187154     0.2804687993
   27      H      -6.5649071540    -1.5850115488     1.7701524734
   28      H      -5.1394334871    -0.9548755055     2.6517704571
   29      H      -7.1839335792     0.6159533433     1.0972183915
   30      H      -5.8195186244     1.2939563628     2.0383285599
   31      H      -5.6742681379     1.4782708436    -0.7644659928
   32      O       3.1874197047    -1.4449412813    -2.1221670204
   33      C      -0.0761436564     0.3319678315     1.8694251436
   34      C       4.6359915813     1.4762541965     0.7813562135
   35      C       6.0503167601     1.1209778907     1.3873374886
   36      C       6.5178669725    -0.0256574617     0.4147907145
   37      C       5.2926871870    -0.1032106437    -0.5766368619
   38      O       4.8303248788     1.3010182738    -0.6761611278
   39      H       3.7577046627    -0.0180531015     2.2121824916
   40      H       4.4028535020    -1.7271954985     0.6981116083
   41      H      -0.4849310690    -0.6317313712     1.4887281085
   42      H       4.2665506148     2.4966276934     1.0007557210
   43      H       6.7211243095     1.9930913584     1.3337236607
   44      H       5.9828513111     0.7896846287     2.4357537622
   45      H       7.4349239731     0.2531430865    -0.1279488805
   46      H       6.6925249058    -0.9808955630     0.9353977569
   47      H       5.5051830522    -0.5143539942    -1.5828040706
   48      H      -0.3245298979     1.1207589859     1.1297062438
   49      H      -0.5245050095     0.5723285561     2.8514975525
   50      H       0.3201160315     1.9340797524    -1.2172940133
   51      H      -0.9710142328     3.0740388787    -1.8184020441
   52      H      -0.8232243815     1.4381800769    -2.5563100550
   53      H      -0.9730730686    -3.0639906370    -1.4738739371
   54      H       0.1153053592    -3.4033091348    -0.0620859943
   55      H       1.1197887744    -2.0614006677    -2.1644455535
   56      H       0.1732474971    -0.6663975020    -1.5221798667
 ----------------------------------------------------------------

    9   -1510.2979143271      4.04E-09 Convergence criterion met
 Total energy in the final basis set = -1510.29791433
 Final energy is   -1510.29791432710
 **  OPTIMIZATION CONVERGED  **

                    Orbital Energies (a.u.)
 --------------------------------------------------------------

 Alpha MOs
 -- Occupied --
-18.947 -18.942 -18.928 -18.924 -18.890 -18.886 -18.886 -18.885
-18.874 -18.865 -10.108 -10.107 -10.098 -10.097 -10.083 -10.075
-10.065 -10.059 -10.059 -10.058 -10.044 -10.043 -10.042 -10.038
-10.035 -10.035 -10.023 -10.021 -10.021 -10.020  -1.024  -1.019
 -1.006  -1.000  -0.972  -0.970  -0.949  -0.942  -0.933  -0.929
 -0.767  -0.764  -0.732  -0.724  -0.714  -0.706  -0.701  -0.653
 -0.650  -0.622  -0.597  -0.585  -0.549  -0.545  -0.539  -0.538
 -0.514  -0.511  -0.489  -0.474  -0.459  -0.456  -0.455  -0.452
 -0.439  -0.434  -0.430  -0.419  -0.414  -0.405  -0.402  -0.399
 -0.395  -0.383  -0.375  -0.366  -0.365  -0.358  -0.356  -0.350
 -0.346  -0.344  -0.335  -0.333  -0.330  -0.329  -0.320  -0.313
 -0.311  -0.307  -0.306  -0.301  -0.294  -0.287  -0.285  -0.278
 -0.271  -0.266  -0.255  -0.248  -0.236  -0.234  -0.232  -0.195
 -0.179  -0.174  -0.166  -0.163  -0.161  -0.150  -0.148  -0.146
 -0.144

          Ground-State Mulliken Net Atomic Charges

     Atom                 Charge (a.u.)
  ----------------------------------------
      1 O                    -0.228629
      2 C                     0.220924
      3 C                    -0.079924
      4 C                    -0.077780
      5 C                     0.213673
      6 O                    -0.172534
      7 C                    -0.055612
      8 C                    -0.048868
      9 O                    -0.169706
     10 C                     0.213044
     11 C                    -0.078624
     12 C                    -0.079387
     13 C                     0.213732
     14 O                    -0.206801
     15 O                    -0.171745
     16 O                    -0.180046
     17 O                    -0.208163
     18 C                    -0.143813
     19 C                     0.026032
     20 C                    -0.144087
     21 C                    -0.143543
     22 C                     0.024604
     23 O                    -0.186062
     24 H                     0.086776
     25 H                     0.084120
     26 H                     0.082238
     27 H                     0.078828
     28 H                     0.073696
     29 H                     0.078928
     30 H                     0.073489
     31 H                     0.092139
     32 O                    -0.208349
     33 C                    -0.153467
     34 C                     0.025129
     35 C                    -0.143785
     36 C                    -0.144266
     37 C                     0.023849
     38 O                    -0.187947
     39 H                     0.085882
     40 H                     0.085732
     41 H                     0.096287
     42 H                     0.084832
     43 H                     0.078098
     44 H                     0.073422
     45 H                     0.078640
     46 H                     0.072871
     47 H                     0.090653
     48 H                     0.103033
     49 H                     0.074668
     50 H                     0.116969
     51 H                     0.084356
     52 H                     0.084495
     53 H                     0.096965
     54 H                     0.095236
     55 H                     0.102686
     56 H                     0.097112
  ----------------------------------------
  Sum of atomic charges =    -0.000000

                    Cartesian Multipole Moments
 -----------------------------------------------------------------
    Charge (ESU x 10^10)
                -0.0000
    Dipole Moment (Debye)
         X       0.7802      Y      -1.7925      Z       4.1510
       Tot       4.5883
    Quadrupole Moments (Debye-Ang)
        XX    -152.2822     XY      -2.8046     YY    -155.5118
        XZ      -5.6902     YZ       3.5989     ZZ    -166.9011

 Total job time:  98.18s(wall), 4686.28s(cpu)
        *  Thank you very much for using Q-Chem.  Have a nice day.  *
