 Q-Chem 5.0, Q-Chem, Inc., Pleasanton, CA (2017)
 Q-Chem 5.0.1 for Intel X86 EM64T Linux

User input:
--------------------------------------------------------------
$molecule
0  1
O -3.94934 -3.66094 2.70899
C -3.26408 -4.56952 2.26188
C -3.36658 -6.02376 2.66595
C -2.31281 -6.55515 3.65137
C -1.38142 -5.53048 4.26018
O -0.42504 -5.1753 3.35211
C 0.38563 -4.07883 3.78781
C 1.64369 -3.98226 2.93102
O 1.36589 -3.2353 1.73613
C 0.69596 -2.07047 1.91915
C 0.74266 -1.16844 0.70885
C -0.56712 -0.42741 0.40288
C -1.59249 -0.40969 1.51868
O -2.21663 0.57289 1.89221
O -2.58093 -4.40546 1.09864
O -1.81456 -1.52513 2.26466
O 0.63594 -1.50388 3.00631
C -2.41725 -1.46649 3.51494
C 1.71713 0.02134 0.84278
C 2.14485 0.49068 -0.54614
C 0.85294 1.10581 -1.04491
C -0.00898 0.99899 0.2201
O 0.91564 1.09265 1.27662
H 1.06662 -1.78735 -0.16018
H -1.07356 -0.81797 -0.50494
H 2.60922 -0.20894 1.46549
H 2.89057 1.30369 -0.39247
H 2.58551 -0.28628 -1.20719
H 1.05089 2.16821 -1.30942
H 0.37549 0.58033 -1.90029
H -0.8079 1.7722 0.20068
O -1.42602 -5.1385 5.42213
C -2.68488 -3.36162 0.20812
C -4.65592 -6.29161 3.47668
C -5.03227 -7.77071 3.39887
C -3.96244 -8.37681 4.27776
C -3.24522 -7.10864 4.75152
O -4.26414 -6.14401 4.81684
H -3.43366 -6.62523 1.73064
H -1.68433 -7.37446 3.23599
H -1.6804 -2.92893 0.06088
H -5.5194 -5.67177 3.1487
H -6.01628 -7.88977 3.90684
H -5.09753 -8.18777 2.37096
H -4.45827 -8.88207 5.13652
H -3.27168 -9.08365 3.76924
H -2.7074 -7.31704 5.70287
H -3.40733 -2.58656 0.54047
H -3.02733 -3.75795 -0.76949
H -2.38895 -2.45583 4.00648
H -3.46905 -1.1193 3.4256
H -1.85461 -0.77179 4.17542
H 2.40359 -3.40394 3.50477
H 2.08318 -4.97604 2.70071
H 0.81309 -4.37895 4.77371
H -0.23405 -3.20817 4.04103
$end

$opt
CONSTRAINT
tors           1           2           3           4    -101.299
tors           3           4           5           6     -77.128
tors           4           5           6           7    +172.058
tors           5           6           7           8    +164.583
tors           6           7           8           9     +84.680
tors           7           8           9          10     +47.319
tors           8           9          10          11    +165.188
tors           9          10          11          12    +140.528
tors          11          12          13          14    +134.028
ENDCONSTRAINT
$end

$rem
JOBTYPE                   OPT
METHOD                    B3LYP
DFT_D                     d3_op
BASIS                     STO-3G
GEOM_OPT_MAX_CYCLES       100
GEOM_OPT_TOL_GRADIENT     300
GEOM_OPT_TOL_DISPLACEMENT 1200
GEOM_OPT_TOL_ENERGY       100
SYMMETRY                  False
THRESH                    12
SCF_CONVERGENCE           8
MAX_SUB_FILE_NUM          128
MEM_STATIC                400
MEM_TOTAL                 4000
$end
--------------------------------------------------------------

   16   -1510.1176639650      2.83E-09 Convergence criterion met
 Total energy in the final basis set = -1510.11766396
   14   -1510.1903951141      4.30E-09 Convergence criterion met
 Total energy in the final basis set = -1510.19039511
   14   -1510.2236661576      3.97E-09 Convergence criterion met
 Total energy in the final basis set = -1510.22366616
   15   -1510.2486756485      2.06E-09 Convergence criterion met
 Total energy in the final basis set = -1510.24867565
   14   -1510.2588304385      6.14E-09 Convergence criterion met
 Total energy in the final basis set = -1510.25883044
   13   -1510.2656097511      4.85E-09 Convergence criterion met
 Total energy in the final basis set = -1510.26560975
   13   -1510.2700487185      6.41E-09 Convergence criterion met
 Total energy in the final basis set = -1510.27004872
   13   -1510.2728746473      3.69E-09 Convergence criterion met
   11   -1510.2805844385      2.24E-09 Convergence criterion met
 Total energy in the final basis set = -1510.28058444
   10   -1510.2805931803      9.59E-09 Convergence criterion met
 Total energy in the final basis set = -1510.28059318
    9   -1510.2806013850      8.20E-09 Convergence criterion met
 Total energy in the final basis set = -1510.28060138
   10   -1510.2806084333      7.09E-09 Convergence criterion met
 Total energy in the final basis set = -1510.28060843
   10   -1510.2806114493      5.32E-09 Convergence criterion met
 Total energy in the final basis set = -1510.28061145
    9   -1510.2806131748      6.55E-09 Convergence criterion met
 Total energy in the final basis set = -1510.28061317

             Standard Nuclear Orientation (Angstroms)
    I     Atom           X                Y                Z
 ----------------------------------------------------------------
    1      O       1.7221825760     1.4428412783    -0.6195746083
    2      C       2.2020957173     1.0251081474     0.4561159876
    3      C       3.6925433738     0.6508544435     0.7526260131
    4      C       3.9302162453    -0.9173662917     0.7246294207
    5      C       2.8775437759    -1.6962826684    -0.1530298663
    6      O       1.6420045190    -1.8120032105     0.5639544185
    7      C       0.5893829475    -2.3733706912    -0.3273423067
    8      C      -0.5831998593    -2.8376228799     0.6073944381
    9      O      -1.5907745732    -1.8237385143     1.0227789850
   10      C      -2.1027267847    -1.0030582325    -0.0482620175
   11      C      -3.3808305912    -0.3189138262     0.5496951942
   12      C      -3.6921802267     1.1975318262     0.2050190734
   13      C      -2.8847119771     1.8733070199    -0.9675748545
   14      O      -3.3832066930     2.5751690842    -1.8747091727
   15      O       1.5106530169     0.8121197117     1.6815871152
   16      O      -1.4823837591     1.6815872264    -0.8087791941
   17      O      -1.6816482314    -0.9716227497    -1.2242305602
   18      C      -0.7374877905     2.2999113118    -1.9316766135
   19      C      -4.7253999593    -1.0237308922     0.0474357101
   20      C      -5.8186354794    -0.8021847018     1.1641106709
   21      C      -6.1181635701     0.7325903466     0.9823841351
   22      C      -5.2046231840     1.0828679464    -0.2565727662
   23      O      -5.1923880331    -0.1643860744    -1.0598246899
   24      H      -3.2926271382    -0.4340766001     1.6444667985
   25      H      -3.5749051670     1.8255547712     1.1080695447
   26      H      -4.6016069649    -2.0696544108    -0.2947040481
   27      H      -6.7099044753    -1.4149876622     0.9536404705
   28      H      -5.4462677532    -1.0506304092     2.1708061847
   29      H      -7.1784194846     0.9141941077     0.7459906654
   30      H      -5.8482003430     1.3240733236     1.8718172153
   31      H      -5.5353929790     1.9370173533    -0.8790088401
   32      O       3.0577407339    -2.1571449514    -1.3005661625
   33      C       0.0364269776     0.9156591475     1.5781550876
   34      C       4.7894264980     1.1571247030    -0.2746068969
   35      C       6.1444727285     1.2572856785     0.5267315248
   36      C       6.4438574472    -0.2683565632     0.7789227322
   37      C       5.3020801280    -0.9586705323    -0.0691848375
   38      O       5.0309677868     0.0013981621    -1.1685862693
   39      H       3.9130745839     1.0269361910     1.7678400920
   40      H       3.9735159623    -1.3451989173     1.7419947234
   41      H      -0.3931871663    -0.0922651082     1.7578781733
   42      H       4.5012144411     2.0510457811    -0.8608744670
   43      H       6.9241276446     1.7187682396    -0.1004366425
   44      H       6.0484899473     1.8364006967     1.4590540584
   45      H       7.4376051283    -0.5570173346     0.4021511542
   46      H       6.3793655706    -0.5394825032     1.8451828207
   47      H       5.5521755414    -1.9530920746    -0.4860478810
   48      H      -0.3272768410     1.2843478245     0.5915309761
   49      H      -0.3066380186     1.6004110733     2.3778655728
   50      H       0.3259564597     2.1110911775    -1.6773302009
   51      H      -0.9460284780     3.3861563837    -2.0010897794
   52      H      -1.0056844867     1.8197501827    -2.8933075715
   53      H      -1.1194983537    -3.6709046893     0.0991936803
   54      H      -0.1628369742    -3.2239492388     1.5585877956
   55      H       0.9836245567    -3.2486538626    -0.8863551595
   56      H       0.2103854219    -1.6207452640    -1.0522949265
 ----------------------------------------------------------------

    9   -1510.2806137142      5.12E-09 Convergence criterion met
 Total energy in the final basis set = -1510.28061371
 Final energy is   -1510.28061371422
 **  OPTIMIZATION CONVERGED  **

                    Orbital Energies (a.u.)
 --------------------------------------------------------------

 Alpha MOs
 -- Occupied --
-18.941 -18.936 -18.930 -18.930 -18.891 -18.890 -18.883 -18.878
-18.875 -18.872 -10.111 -10.104 -10.099 -10.096 -10.081 -10.066
-10.065 -10.059 -10.057 -10.056 -10.042 -10.041 -10.040 -10.038
-10.037 -10.035 -10.023 -10.022 -10.019 -10.018  -1.018  -1.011
 -1.009  -1.004  -0.973  -0.967  -0.948  -0.937  -0.933  -0.933
 -0.766  -0.762  -0.730  -0.723  -0.716  -0.704  -0.699  -0.655
 -0.652  -0.621  -0.597  -0.583  -0.547  -0.545  -0.539  -0.536
 -0.515  -0.509  -0.481  -0.478  -0.458  -0.455  -0.453  -0.449
 -0.434  -0.430  -0.429  -0.420  -0.413  -0.404  -0.401  -0.396
 -0.392  -0.382  -0.375  -0.370  -0.362  -0.359  -0.357  -0.348
 -0.345  -0.342  -0.335  -0.333  -0.328  -0.326  -0.321  -0.312
 -0.308  -0.307  -0.304  -0.303  -0.296  -0.291  -0.279  -0.278
 -0.271  -0.262  -0.256  -0.248  -0.237  -0.231  -0.228  -0.190
 -0.180  -0.175  -0.166  -0.159  -0.157  -0.150  -0.149  -0.147
 -0.140

          Ground-State Mulliken Net Atomic Charges

     Atom                 Charge (a.u.)
  ----------------------------------------
      1 O                    -0.218794
      2 C                     0.218083
      3 C                    -0.079932
      4 C                    -0.076389
      5 C                     0.205509
      6 O                    -0.176115
      7 C                    -0.062246
      8 C                    -0.050382
      9 O                    -0.173094
     10 C                     0.215550
     11 C                    -0.081188
     12 C                    -0.079042
     13 C                     0.215395
     14 O                    -0.211117
     15 O                    -0.170366
     16 O                    -0.173200
     17 O                    -0.202525
     18 C                    -0.141612
     19 C                     0.025944
     20 C                    -0.142464
     21 C                    -0.145260
     22 C                     0.024209
     23 O                    -0.187176
     24 H                     0.085824
     25 H                     0.083710
     26 H                     0.082183
     27 H                     0.078702
     28 H                     0.074130
     29 H                     0.079297
     30 H                     0.073403
     31 H                     0.093530
     32 O                    -0.206604
     33 C                    -0.154188
     34 C                     0.023232
     35 C                    -0.141806
     36 C                    -0.145779
     37 C                     0.025148
     38 O                    -0.186149
     39 H                     0.085575
     40 H                     0.086031
     41 H                     0.086003
     42 H                     0.087281
     43 H                     0.077968
     44 H                     0.072672
     45 H                     0.077953
     46 H                     0.072450
     47 H                     0.086878
     48 H                     0.114566
     49 H                     0.075596
     50 H                     0.120580
     51 H                     0.082748
     52 H                     0.088327
     53 H                     0.084082
     54 H                     0.096396
     55 H                     0.093343
     56 H                     0.113129
  ----------------------------------------
  Sum of atomic charges =    -0.000000

                    Cartesian Multipole Moments
 -----------------------------------------------------------------
    Charge (ESU x 10^10)
                -0.0000
    Dipole Moment (Debye)
         X      -0.1504      Y      -0.7909      Z       4.7672
       Tot       4.8347
    Quadrupole Moments (Debye-Ang)
        XX    -151.3953     XY       4.6895     YY    -152.8557
        XZ      -1.7485     YZ       0.6265     ZZ    -168.2595

 Total job time:  81.82s(wall), 3899.65s(cpu)
        *  Thank you very much for using Q-Chem.  Have a nice day.  *
