 Q-Chem 5.0, Q-Chem, Inc., Pleasanton, CA (2017)
 Q-Chem 5.0.1 for Intel X86 EM64T Linux

User input:
--------------------------------------------------------------
$molecule
0  1
O -3.94934 -3.66094 2.70899
C -3.26408 -4.56952 2.26188
C -3.36658 -6.02376 2.66595
C -2.05233 -6.81062 2.79804
C -0.77328 -6.01103 2.68498
O -0.5292 -5.70883 1.37558
C 0.53175 -4.76316 1.20421
C 1.12192 -4.88352 -0.19698
O 0.16013 -4.45079 -1.17196
C 0.35634 -3.20548 -1.67181
C -0.55035 -2.8898 -2.83753
C -2.04618 -3.11642 -2.57406
C -2.44489 -3.27216 -1.12028
O -3.59094 -3.37082 -0.70627
O -2.05141 -3.99804 2.06864
O -1.70341 -2.4466 -0.32755
O 1.11727 -2.37849 -1.18244
C -2.22646 -1.3403 0.32699
C -0.54535 -1.42971 -3.32748
C -1.003 -1.37662 -4.78526
C -2.47717 -1.69811 -4.63214
C -2.5869 -1.77004 -3.10504
O -1.62845 -0.83856 -2.65909
H -0.19761 -3.54857 -3.663
H -2.47149 -3.98438 -3.12404
H 0.43928 -0.92672 -3.21472
H -0.90394 -0.32001 -5.12282
H -0.44337 -2.03691 -5.48228
H -3.06517 -0.83814 -5.02301
H -2.81263 -2.64067 -5.11652
H -3.6346 -1.58192 -2.78259
O 0.00895 -5.81696 3.61027
C -1.48823 -3.09517 3.00703
C -3.95699 -6.20288 4.07759
C -4.54763 -7.60471 4.22367
C -3.28518 -8.43367 4.30466
C -2.22352 -7.3315 4.24341
O -2.82629 -6.24966 4.91035
H -4.03281 -6.4906 1.90727
H -1.97367 -7.66691 2.09096
H -0.52356 -3.46112 3.39858
H -4.72607 -5.44348 4.33746
H -5.06713 -7.65527 5.20732
H -5.25531 -7.89214 3.41643
H -3.2536 -8.92735 5.30177
H -3.16095 -9.1939 3.50349
H -1.27261 -7.70763 4.68097
H -2.11693 -2.94243 3.91177
H -1.28418 -2.11322 2.56423
H -2.70236 -0.64858 -0.39706
H -1.40548 -0.78247 0.8204
H -2.99562 -1.63865 1.06877
H 2.06531 -4.29118 -0.23145
H 1.4163 -5.93345 -0.4085
H 1.38748 -4.99974 1.87784
H 0.23691 -3.71155 1.33666
$end

$opt
CONSTRAINT
tors           1           2           3           4    -140.969
tors           3           4           5           6     -76.655
tors           4           5           6           7    +169.857
tors           5           6           7           8    +157.419
tors           6           7           8           9     +67.802
tors           7           8           9          10    +101.942
tors           8           9          10          11    +171.103
tors           9          10          11          12     +52.890
tors          11          12          13          14    +174.902
ENDCONSTRAINT
$end

$rem
JOBTYPE                   OPT
METHOD                    B3LYP
DFT_D                     d3_op
BASIS                     STO-3G
GEOM_OPT_MAX_CYCLES       100
GEOM_OPT_TOL_GRADIENT     300
GEOM_OPT_TOL_DISPLACEMENT 1200
GEOM_OPT_TOL_ENERGY       100
SYMMETRY                  False
THRESH                    12
SCF_CONVERGENCE           8
MAX_SUB_FILE_NUM          128
MEM_STATIC                400
MEM_TOTAL                 4000
$end
--------------------------------------------------------------

   16   -1510.0659307671      3.21E-09 Convergence criterion met
 Total energy in the final basis set = -1510.06593077
   14   -1510.1452812360      9.68E-09 Convergence criterion met
 Total energy in the final basis set = -1510.14528124
   14   -1510.1865167559      4.41E-09 Convergence criterion met
 Total energy in the final basis set = -1510.18651676
   15   -1510.2156377083      2.46E-09 Convergence criterion met
 Total energy in the final basis set = -1510.21563771
   14   -1510.2308818781      6.47E-09 Convergence criterion met
 Total energy in the final basis set = -1510.23088188
   13   -1510.2437887512      9.17E-09 Convergence criterion met
 Total energy in the final basis set = -1510.24378875
   13   -1510.2522085894      8.33E-09 Convergence criterion met
 Total energy in the final basis set = -1510.25220859
    2   -1510.2522085893      4.91E-09 Convergence criterion met
   11   -1510.2778823611      6.71E-09 Convergence criterion met
 Total energy in the final basis set = -1510.27788236
   11   -1510.2779243154      7.71E-09 Convergence criterion met
 Total energy in the final basis set = -1510.27792432
   11   -1510.2779584965      5.11E-09 Convergence criterion met
 Total energy in the final basis set = -1510.27795850
   11   -1510.2779753693      5.78E-09 Convergence criterion met
 Total energy in the final basis set = -1510.27797537
   10   -1510.2779828306      9.38E-09 Convergence criterion met
 Total energy in the final basis set = -1510.27798283
    9   -1510.2779889848      6.84E-09 Convergence criterion met
 Total energy in the final basis set = -1510.27798898

             Standard Nuclear Orientation (Angstroms)
    I     Atom           X                Y                Z
 ----------------------------------------------------------------
    1      O      -3.0525488227    -2.1152562501    -2.1151613914
    2      C      -2.7114953976    -1.2039076357    -1.3330764769
    3      C      -3.1405601547    -1.0687397937     0.1782435679
    4      C      -3.4384277520     0.4237429292     0.6187954140
    5      C      -2.6141274041     1.5359704958    -0.1232150094
    6      O      -1.2999864584     1.5034211520     0.4585949174
    7      C      -0.3510383543     2.3361633550    -0.3124575437
    8      C       0.8370934148     2.7310701931     0.6283003239
    9      O       1.7055888725     1.6036969021     1.0310917440
   10      C       2.9249401186     1.5955056997     0.2720796953
   11      C       3.8759360757     0.5232426456     0.9121464861
   12      C       3.3153537544    -0.9376847461     1.1177479707
   13      C       2.1674028016    -1.3829422662     0.1424933625
   14      O       1.6621145823    -2.5269880298     0.0917745845
   15      O      -1.8965878857    -0.0843699483    -1.7415265770
   16      O       1.9293083067    -0.3674668514    -0.8300967043
   17      O       3.1951360205     2.3996671846    -0.6449713892
   18      C       0.9826856730    -0.8441051511    -1.8632080105
   19      C       5.2083170667     0.2455714510     0.0923325949
   20      C       6.3267876143    -0.1098696951     1.1446304581
   21      C       5.8052995913    -1.5072822531     1.6519333223
   22      C       4.5968386802    -1.7696582761     0.6656583693
   23      O       4.9764919403    -1.0558931013    -0.5779112777
   24      H       4.1402139967     0.9300951952     1.9069683054
   25      H       3.0155465138    -1.1363203912     2.1619268780
   26      H       5.4573557714     1.0315219497    -0.6472211090
   27      H       7.3058845025    -0.2041272849     0.6478049789
   28      H       6.4060888160     0.6382769752     1.9494042076
   29      H       6.5699321241    -2.2926063650     1.5445257224
   30      H       5.4746758713    -1.4790844477     2.7028339485
   31      H       4.3827191625    -2.8356859101     0.4544383452
   32      O      -3.0119443728     2.3766081398    -0.9580777979
   33      C      -1.9657303133     0.0979810645    -3.2129413919
   34      C      -4.6135909436    -1.6550750329     0.2261615765
   35      C      -5.1969102726    -1.6044199573     1.6929073851
   36      C      -5.6187897804    -0.0908824869     1.8123471431
   37      C      -5.0190805883     0.4805817495     0.4704601810
   38      O      -5.3480687391    -0.5885149408    -0.5031762857
   39      H      -2.4154512332    -1.5732542098     0.8426238669
   40      H      -3.1652644412     0.5191850769     1.6857238928
   41      H      -2.7323214858     0.8650054582    -3.4447581171
   42      H      -4.7186360669    -2.6232400735    -0.3012598040
   43      H      -6.0618671438    -2.2791528122     1.7888734787
   44      H      -4.4408641470    -1.8917201353     2.4415790987
   45      H      -6.7152842197     0.0186302432     1.8190258188
   46      H      -5.2053907621     0.4011780951     2.7073008765
   47      H      -5.4183848760     1.4556188008     0.1296995842
   48      H      -2.2305998719    -0.8608296905    -3.7005127046
   49      H      -0.9773986400     0.4484699244    -3.5606562321
   50      H       1.0368873889    -1.9468993185    -1.9513822827
   51      H       1.2879563622    -0.3694101071    -2.8140244601
   52      H      -0.0617847623    -0.5477679225    -1.6099851499
   53      H       1.4550070302     3.4903027767     0.0996601310
   54      H       0.4286665178     3.1653542624     1.5646305836
   55      H      -0.8560179921     3.2564747173    -0.6811488771
   56      H       0.0269216751     1.7698466899    -1.1905779216
 ----------------------------------------------------------------

    9   -1510.2779890431      5.07E-09 Convergence criterion met
 Total energy in the final basis set = -1510.27798904
 Final energy is   -1510.27798904310
 **  OPTIMIZATION CONVERGED  **

                    Orbital Energies (a.u.)
 --------------------------------------------------------------

 Alpha MOs
 -- Occupied --
-18.952 -18.934 -18.925 -18.921 -18.897 -18.887 -18.885 -18.870
-18.867 -18.867 -10.114 -10.100 -10.099 -10.097 -10.069 -10.069
-10.067 -10.061 -10.060 -10.059 -10.056 -10.046 -10.046 -10.038
-10.036 -10.035 -10.023 -10.021 -10.020 -10.019  -1.026  -1.012
 -1.005  -1.001  -0.972  -0.969  -0.951  -0.936  -0.932  -0.928
 -0.766  -0.762  -0.728  -0.724  -0.712  -0.703  -0.695  -0.669
 -0.655  -0.616  -0.600  -0.581  -0.549  -0.542  -0.538  -0.535
 -0.512  -0.507  -0.490  -0.480  -0.468  -0.455  -0.452  -0.441
 -0.436  -0.432  -0.430  -0.426  -0.417  -0.410  -0.406  -0.398
 -0.392  -0.386  -0.378  -0.369  -0.363  -0.357  -0.353  -0.347
 -0.339  -0.339  -0.335  -0.334  -0.332  -0.329  -0.318  -0.315
 -0.310  -0.308  -0.307  -0.304  -0.294  -0.292  -0.291  -0.276
 -0.267  -0.253  -0.252  -0.241  -0.237  -0.236  -0.233  -0.192
 -0.176  -0.172  -0.168  -0.163  -0.156  -0.149  -0.147  -0.147
 -0.143

          Ground-State Mulliken Net Atomic Charges

     Atom                 Charge (a.u.)
  ----------------------------------------
      1 O                    -0.198931
      2 C                     0.221041
      3 C                    -0.075007
      4 C                    -0.082267
      5 C                     0.217403
      6 O                    -0.179021
      7 C                    -0.049604
      8 C                    -0.050893
      9 O                    -0.175524
     10 C                     0.222664
     11 C                    -0.079170
     12 C                    -0.075315
     13 C                     0.214623
     14 O                    -0.220612
     15 O                    -0.170458
     16 O                    -0.168450
     17 O                    -0.220582
     18 C                    -0.146348
     19 C                     0.023426
     20 C                    -0.141940
     21 C                    -0.145417
     22 C                     0.024003
     23 O                    -0.191929
     24 H                     0.081964
     25 H                     0.086498
     26 H                     0.090361
     27 H                     0.077794
     28 H                     0.072777
     29 H                     0.078389
     30 H                     0.073407
     31 H                     0.085927
     32 O                    -0.223517
     33 C                    -0.133721
     34 C                     0.023648
     35 C                    -0.145655
     36 C                    -0.141226
     37 C                     0.021559
     38 O                    -0.192532
     39 H                     0.092318
     40 H                     0.085016
     41 H                     0.095922
     42 H                     0.091027
     43 H                     0.079555
     44 H                     0.074637
     45 H                     0.078416
     46 H                     0.073754
     47 H                     0.088644
     48 H                     0.104088
     49 H                     0.090977
     50 H                     0.094124
     51 H                     0.081853
     52 H                     0.099437
     53 H                     0.096101
     54 H                     0.086582
     55 H                     0.092617
     56 H                     0.087564
  ----------------------------------------
  Sum of atomic charges =    -0.000000

                    Cartesian Multipole Moments
 -----------------------------------------------------------------
    Charge (ESU x 10^10)
                -0.0000
    Dipole Moment (Debye)
         X       0.3659      Y       0.6232      Z       2.7023
       Tot       2.7972
    Quadrupole Moments (Debye-Ang)
        XX    -159.7624     XY       0.2203     YY    -165.1180
        XZ       0.1781     YZ      -0.6422     ZZ    -153.6375

 Total job time:  91.15s(wall), 4346.67s(cpu)
        *  Thank you very much for using Q-Chem.  Have a nice day.  *
