 Q-Chem 5.0, Q-Chem, Inc., Pleasanton, CA (2017)
 Q-Chem 5.0.1 for Intel X86 EM64T Linux

User input:
--------------------------------------------------------------
$molecule
0  1
O -3.0525488227 -2.1152562501 -2.1151613914
C -2.7114953976 -1.2039076357 -1.3330764769
C -3.1405601547 -1.0687397937 0.1782435679
C -3.438427752 0.4237429292 0.618795414
C -2.6141274041 1.5359704958 -0.1232150094
O -1.2999864584 1.503421152 0.4585949174
C -0.3510383543 2.336163355 -0.3124575437
C 0.8370934148 2.7310701931 0.6283003239
O 1.7055888725 1.6036969021 1.031091744
C 2.9249401186 1.5955056997 0.2720796953
C 3.8759360757 0.5232426456 0.9121464861
C 3.3153537544 -0.9376847461 1.1177479707
C 2.1674028016 -1.3829422662 0.1424933625
O 1.6621145823 -2.5269880298 0.0917745845
O -1.8965878857 -0.0843699483 -1.741526577
O 1.9293083067 -0.3674668514 -0.8300967043
O 3.1951360205 2.3996671846 -0.6449713892
C 0.982685673 -0.8441051511 -1.8632080105
C 5.2083170667 0.245571451 0.0923325949
C 6.3267876143 -0.1098696951 1.1446304581
C 5.8052995913 -1.5072822531 1.6519333223
C 4.5968386802 -1.7696582761 0.6656583693
O 4.9764919403 -1.0558931013 -0.5779112777
H 4.1402139967 0.9300951952 1.9069683054
H 3.0155465138 -1.1363203912 2.161926878
H 5.4573557714 1.0315219497 -0.647221109
H 7.3058845025 -0.2041272849 0.6478049789
H 6.406088816 0.6382769752 1.9494042076
H 6.5699321241 -2.292606365 1.5445257224
H 5.4746758713 -1.4790844477 2.7028339485
H 4.3827191625 -2.8356859101 0.4544383452
O -3.0119443728 2.3766081398 -0.9580777979
C -1.9657303133 0.0979810645 -3.2129413919
C -4.6135909436 -1.6550750329 0.2261615765
C -5.1969102726 -1.6044199573 1.6929073851
C -5.6187897804 -0.0908824869 1.8123471431
C -5.0190805883 0.4805817495 0.470460181
O -5.3480687391 -0.5885149408 -0.5031762857
H -2.4154512332 -1.5732542098 0.8426238669
H -3.1652644412 0.5191850769 1.6857238928
H -2.7323214858 0.8650054582 -3.4447581171
H -4.7186360669 -2.6232400735 -0.301259804
H -6.0618671438 -2.2791528122 1.7888734787
H -4.440864147 -1.8917201353 2.4415790987
H -6.7152842197 0.0186302432 1.8190258188
H -5.2053907621 0.4011780951 2.7073008765
H -5.418384876 1.4556188008 0.1296995842
H -2.2305998719 -0.8608296905 -3.7005127046
H -0.97739864 0.4484699244 -3.5606562321
H 1.0368873889 -1.9468993185 -1.9513822827
H 1.2879563622 -0.3694101071 -2.8140244601
H -0.0617847623 -0.5477679225 -1.6099851499
H 1.4550070302 3.4903027767 0.099660131
H 0.4286665178 3.1653542624 1.5646305836
H -0.8560179921 3.2564747173 -0.6811488771
H 0.0269216751 1.7698466899 -1.1905779216
$end

$rem
JOBTYPE                   OPT
METHOD                    B3LYP
DFT_D                     d3_op
BASIS                     STO-3G
GEOM_OPT_MAX_CYCLES       100
GEOM_OPT_TOL_GRADIENT     300
GEOM_OPT_TOL_DISPLACEMENT 1200
GEOM_OPT_TOL_ENERGY       100
SYMMETRY                  False
THRESH                    12
SCF_CONVERGENCE           8
MAX_SUB_FILE_NUM          128
MEM_STATIC                400
MEM_TOTAL                 4000
$end
--------------------------------------------------------------

   16   -1510.2779646328      5.40E-09 Convergence criterion met
 Total energy in the final basis set = -1510.27796463
   15   -1510.2750939312      3.65E-09 Convergence criterion met
 Total energy in the final basis set = -1510.27509393
   13   -1510.2795317589      8.80E-09 Convergence criterion met
 Total energy in the final basis set = -1510.27953176
   14   -1510.2779209324      3.57E-09 Convergence criterion met
 Total energy in the final basis set = -1510.27792093
   14   -1510.2814217701      6.96E-09 Convergence criterion met
 Total energy in the final basis set = -1510.28142177
   15   -1510.2824176616      4.06E-09 Convergence criterion met
 Total energy in the final basis set = -1510.28241766
   13   -1510.2851964861      6.87E-09 Convergence criterion met
 Total energy in the final basis set = -1510.28519649
   13   -1510.2881344883      7.83E-09 Convergence criterion met
   11   -1510.2985101649      3.11E-09 Convergence criterion met
 Total energy in the final basis set = -1510.29851016
   11   -1510.2985138512      5.04E-09 Convergence criterion met
 Total energy in the final basis set = -1510.29851385
    9   -1510.2985156890      9.07E-09 Convergence criterion met
 Total energy in the final basis set = -1510.29851569
    9   -1510.2985171076      6.31E-09 Convergence criterion met
 Total energy in the final basis set = -1510.29851711
    9   -1510.2985187086      5.18E-09 Convergence criterion met
 Total energy in the final basis set = -1510.29851871
    9   -1510.2985153755      8.84E-09 Convergence criterion met
 Total energy in the final basis set = -1510.29851538

             Standard Nuclear Orientation (Angstroms)
    I     Atom           X                Y                Z
 ----------------------------------------------------------------
    1      O       4.5978792551    -0.5207677921     2.3089900850
    2      C       3.4981242217    -0.5161016663     1.7181959005
    3      C       3.1712306668    -1.0560474642     0.2849018385
    4      C       2.3301611882    -0.0509703514    -0.6125356116
    5      C       1.9784912730     1.2885648194     0.1141157127
    6      O       0.5777940524     1.2291870522     0.4299932355
    7      C       0.1308066560     2.4395734687     1.1507889247
    8      C      -0.8189627935     3.2585654045     0.2035757812
    9      O      -1.6354974042     2.3589415761    -0.6475185050
   10      C      -2.6564498309     1.7062527805     0.1179761524
   11      C      -3.4644543630     0.8006308022    -0.8751073892
   12      C      -2.7167058946    -0.5130087900    -1.3645363498
   13      C      -1.3788601055    -0.8597782312    -0.6216128826
   14      O      -0.3099583469    -1.2252627040    -1.1688618317
   15      O       2.2800572303    -0.0057900804     2.2876234476
   16      O      -1.6104259288    -0.8107044737     0.7786223513
   17      O      -2.8698327655     1.9065714909     1.3321511123
   18      C      -0.4413307892    -1.3142425189     1.5421499381
   19      C      -4.7721909504     0.1891086003    -0.2168074550
   20      C      -5.7702170252    -0.1795754922    -1.3818579047
   21      C      -5.0462122301    -1.4318210648    -2.0048012150
   22      C      -3.8234934937    -1.6056618720    -1.0177390308
   23      O      -4.3438020467    -1.1375156186     0.2848968460
   24      H      -3.7183896336     1.4240342317    -1.7518295860
   25      H      -2.4974778582    -0.4726029217    -2.4458409379
   26      H      -5.1891702070     0.7971909039     0.6090932731
   27      H      -6.7560215582    -0.4501675679    -0.9709446880
   28      H      -5.9007312983     0.6423997270    -2.1036709823
   29      H      -5.6889728202    -2.3259868502    -1.9826779690
   30      H      -4.7165401291    -1.2597845188    -3.0419234204
   31      H      -3.4337990796    -2.6388231555    -0.9323998186
   32      O       2.7105559493     2.2670032342     0.3760346726
   33      C       2.5260157715     0.6073411310     3.6113326636
   34      C       4.4848974224    -1.2188436293    -0.5857171992
   35      C       4.1404786039    -2.1297948752    -1.8288847945
   36      C       3.3097280290    -1.1299282897    -2.7171510225
   37      C       3.3344826377     0.1688098806    -1.8185877738
   38      O       4.6695583023     0.1262281786    -1.1769738682
   39      H       2.6329934910    -2.0164176013     0.3921228141
   40      H       1.3707989583    -0.5228175366    -0.9230881852
   41      H       2.4177154551     1.7075739198     3.5295235141
   42      H       5.3782071437    -1.5124879208    -0.0006668236
   43      H       5.0623623535    -2.4534312966    -2.3375710155
   44      H       3.5624170649    -3.0221334455    -1.5399928666
   45      H       3.8047087281    -0.9418772997    -3.6832761981
   46      H       2.2819672676    -1.4798574975    -2.9052298443
   47      H       3.1992758709     1.1232035293    -2.3633607301
   48      H       3.5512615059     0.3583484367     3.9517402268
   49      H       1.7740551990     0.2149068823     4.3225123197
   50      H      -0.0509300213    -2.2521140409     1.0994671223
   51      H      -0.8165834475    -1.5121114235     2.5627220126
   52      H       0.3746714752    -0.5587893382     1.5779047048
   53      H      -1.4628651419     3.9326597152     0.8094396595
   54      H      -0.2231529021     3.8614063008    -0.5104603739
   55      H       1.0142178490     3.0498532674     1.4382217429
   56      H      -0.4267945368     2.1042548718     2.0484339755
 ----------------------------------------------------------------

    9   -1510.2985208725      5.69E-09 Convergence criterion met
 Total energy in the final basis set = -1510.29852087
 Final energy is   -1510.29852087248
 **  OPTIMIZATION CONVERGED  **

                    Orbital Energies (a.u.)
 --------------------------------------------------------------

 Alpha MOs
 -- Occupied --
-18.940 -18.938 -18.933 -18.927 -18.889 -18.886 -18.880 -18.877
-18.875 -18.869 -10.105 -10.103 -10.101 -10.094 -10.074 -10.066
-10.064 -10.062 -10.059 -10.053 -10.051 -10.049 -10.039 -10.038
-10.035 -10.022 -10.021 -10.018 -10.014 -10.012  -1.019  -1.015
 -1.009  -1.003  -0.971  -0.963  -0.943  -0.940  -0.936  -0.930
 -0.764  -0.758  -0.727  -0.720  -0.712  -0.703  -0.693  -0.663
 -0.656  -0.619  -0.598  -0.579  -0.547  -0.541  -0.538  -0.530
 -0.513  -0.505  -0.480  -0.476  -0.462  -0.461  -0.451  -0.444
 -0.434  -0.428  -0.425  -0.419  -0.416  -0.409  -0.407  -0.403
 -0.390  -0.380  -0.373  -0.366  -0.360  -0.356  -0.355  -0.350
 -0.345  -0.341  -0.336  -0.332  -0.326  -0.324  -0.320  -0.310
 -0.308  -0.306  -0.300  -0.296  -0.294  -0.287  -0.282  -0.275
 -0.267  -0.259  -0.254  -0.242  -0.240  -0.235  -0.227  -0.185
 -0.181  -0.175  -0.167  -0.163  -0.158  -0.151  -0.148  -0.144
 -0.137

          Ground-State Mulliken Net Atomic Charges

     Atom                 Charge (a.u.)
  ----------------------------------------
      1 O                    -0.205900
      2 C                     0.215634
      3 C                    -0.078835
      4 C                    -0.095365
      5 C                     0.211657
      6 O                    -0.175500
      7 C                    -0.058321
      8 C                    -0.049455
      9 O                    -0.172065
     10 C                     0.213505
     11 C                    -0.078430
     12 C                    -0.076940
     13 C                     0.219149
     14 O                    -0.223296
     15 O                    -0.175531
     16 O                    -0.160413
     17 O                    -0.211475
     18 C                    -0.139203
     19 C                     0.025080
     20 C                    -0.143232
     21 C                    -0.144534
     22 C                     0.025966
     23 O                    -0.184595
     24 H                     0.084774
     25 H                     0.085268
     26 H                     0.089210
     27 H                     0.078163
     28 H                     0.073164
     29 H                     0.078125
     30 H                     0.073799
     31 H                     0.081476
     32 O                    -0.220067
     33 C                    -0.135098
     34 C                     0.023850
     35 C                    -0.143603
     36 C                    -0.144095
     37 C                     0.024640
     38 O                    -0.189364
     39 H                     0.085069
     40 H                     0.113142
     41 H                     0.087882
     42 H                     0.088108
     43 H                     0.076591
     44 H                     0.072592
     45 H                     0.075476
     46 H                     0.079141
     47 H                     0.081944
     48 H                     0.103989
     49 H                     0.087544
     50 H                     0.080731
     51 H                     0.086880
     52 H                     0.112090
     53 H                     0.089496
     54 H                     0.089847
     55 H                     0.098149
     56 H                     0.093188
  ----------------------------------------
  Sum of atomic charges =     0.000000

                    Cartesian Multipole Moments
 -----------------------------------------------------------------
    Charge (ESU x 10^10)
                -0.0000
    Dipole Moment (Debye)
         X      -2.7202      Y      -0.6692      Z      -0.9707
       Tot       2.9647
    Quadrupole Moments (Debye-Ang)
        XX    -173.1302     XY      -7.4608     YY    -153.2380
        XZ       8.0394     YZ       2.0409     ZZ    -153.4925

 Total job time:  120.88s(wall), 5766.14s(cpu)
        *  Thank you very much for using Q-Chem.  Have a nice day.  *
