 Q-Chem 5.0, Q-Chem, Inc., Pleasanton, CA (2017)
 Q-Chem 5.0.1 for Intel X86 EM64T Linux

User input:
--------------------------------------------------------------
$molecule
0  1
O -3.94934 -3.66094 2.70899
C -3.26408 -4.56952 2.26188
C -3.36658 -6.02376 2.66595
C -2.2207 -6.59986 3.51384
C -1.18868 -5.61284 4.01266
O -0.33682 -5.27981 2.99834
C 0.40043 -4.07952 3.25333
C 1.33855 -3.78136 2.08836
O 0.58126 -3.3385 0.95115
C 0.08564 -2.07896 1.03524
C -0.69957 -1.6727 -0.18911
C -1.85541 -0.69735 0.07736
C -1.83804 -0.0046 1.42514
O -2.61744 0.8659 1.78476
O -2.68609 -4.38749 1.05155
O -1.47845 -0.76322 2.50003
O 0.69644 -1.23226 1.6838
C -1.58732 -0.40279 3.83228
C 0.13248 -0.85158 -1.1956
C -0.48782 -0.96486 -2.58744
C -1.75421 -0.1544 -2.39792
C -1.52942 0.37601 -0.97647
O -0.13131 0.48946 -0.86703
H -1.03076 -2.59765 -0.70247
H -2.8579 -1.14368 -0.05556
H 1.20401 -1.14802 -1.22404
H 0.18531 -0.41518 -3.2841
H -0.63911 -1.99822 -2.96718
H -1.75356 0.6749 -3.13957
H -2.70232 -0.73081 -2.46739
H -2.10582 1.31443 -0.818
O -1.08739 -5.21092 5.16698
C -3.4402 -4.00118 -0.03874
C -4.56065 -6.2666 3.61692
C -4.98191 -7.73516 3.57255
C -3.83816 -8.37597 4.32458
C -3.03408 -7.13199 4.71467
O -4.01152 -6.14052 4.90284
H -3.54982 -6.61015 1.73685
H -1.67526 -7.43755 3.0243
H -3.95178 -3.03808 0.15386
H -5.44013 -5.62301 3.39475
H -5.90732 -7.83638 4.18385
H -5.16842 -8.13881 2.55413
H -4.24812 -8.86629 5.23575
H -3.23308 -9.10422 3.74243
H -2.395 -7.36171 5.59591
H -4.21425 -4.77034 -0.24837
H -2.79778 -3.92154 -0.93617
H -1.19542 -1.22245 4.46711
H -2.651 -0.22825 4.10106
H -0.99248 0.51494 4.02709
H 2.10629 -3.02699 2.37204
H 1.88932 -4.71124 1.83175
H 1.04333 -4.24633 4.14731
H -0.26986 -3.21682 3.4551
$end

$opt
CONSTRAINT
tors           1           2           3           4    -108.487
tors           3           4           5           6     -77.128
tors           4           5           6           7    +162.261
tors           5           6           7           8    +179.355
tors           6           7           8           9     +72.085
tors           7           8           9          10     +73.779
tors           8           9          10          11    -180.000
tors           9          10          11          12    +148.420
tors          11          12          13          14    +174.902
ENDCONSTRAINT
$end

$rem
JOBTYPE                   OPT
METHOD                    B3LYP
DFT_D                     d3_op
BASIS                     STO-3G
GEOM_OPT_MAX_CYCLES       100
GEOM_OPT_TOL_GRADIENT     300
GEOM_OPT_TOL_DISPLACEMENT 1200
GEOM_OPT_TOL_ENERGY       100
SYMMETRY                  False
THRESH                    12
SCF_CONVERGENCE           8
MAX_SUB_FILE_NUM          128
MEM_STATIC                400
MEM_TOTAL                 4000
$end
--------------------------------------------------------------

   15   -1510.0930013942      8.65E-09 Convergence criterion met
 Total energy in the final basis set = -1510.09300139
   14   -1510.1679940882      5.43E-09 Convergence criterion met
 Total energy in the final basis set = -1510.16799409
   14   -1510.2088795800      6.85E-09 Convergence criterion met
 Total energy in the final basis set = -1510.20887958
   15   -1510.2302769513      2.22E-09 Convergence criterion met
 Total energy in the final basis set = -1510.23027695
   14   -1510.2441702564      5.58E-09 Convergence criterion met
 Total energy in the final basis set = -1510.24417026
   13   -1510.2519910208      6.68E-09 Convergence criterion met
 Total energy in the final basis set = -1510.25199102
   14   -1510.2575695020      4.59E-09 Convergence criterion met
 Total energy in the final basis set = -1510.25756950
   14   -1510.2629377813      4.42E-09 Convergence criterion met
   11   -1510.2768288387      2.42E-09 Convergence criterion met
 Total energy in the final basis set = -1510.27682884
    9   -1510.2768369818      9.49E-09 Convergence criterion met
 Total energy in the final basis set = -1510.27683698
    9   -1510.2768405816      6.06E-09 Convergence criterion met
 Total energy in the final basis set = -1510.27684058
    9   -1510.2768429035      8.13E-09 Convergence criterion met
 Total energy in the final basis set = -1510.27684290
    9   -1510.2768440930      5.89E-09 Convergence criterion met
 Total energy in the final basis set = -1510.27684409
    9   -1510.2768561106      5.57E-09 Convergence criterion met
 Total energy in the final basis set = -1510.27685611

             Standard Nuclear Orientation (Angstroms)
    I     Atom           X                Y                Z
 ----------------------------------------------------------------
    1      O      -1.5249558882     1.5640023811     1.2208341968
    2      C      -2.0239429088     1.3702939424     0.0910679346
    3      C      -3.5191006780     1.1099184310    -0.2677228708
    4      C      -3.8961979281    -0.3605095251    -0.7265635004
    5      C      -2.8684331048    -1.5299674123    -0.4761418222
    6      O      -1.7793558325    -1.5318550247    -1.4181102746
    7      C      -0.6743875449    -2.3620451479    -0.8561971915
    8      C       0.5376179955    -2.4118996080    -1.8544441027
    9      O       1.3614681433    -1.1925497472    -2.0192462797
   10      C       2.1841778802    -1.0295815840    -0.8416845175
   11      C       3.0602354112     0.2589966215    -1.0066971617
   12      C       3.4076193843     1.0376145247     0.3268109524
   13      C       2.5453264535     0.8281650626     1.6240963961
   14      O       2.8065588054     1.3326769687     2.7375557852
   15      O      -1.3109732581     1.4379483870    -1.1397407064
   16      O       1.3059084624     0.1676111545     1.3365866797
   17      O       2.2596875892    -1.8886573152     0.0621533765
   18      C       0.5217359660    -0.0237393542     2.5804833711
   19      C       4.5244774276    -0.2304903954    -1.4178302318
   20      C       5.4030234908     1.0172195790    -1.8316081301
   21      C       5.7826636149     1.6083166852    -0.4231099052
   22      C       4.9446786189     0.6664600205     0.5248388330
   23      O       5.0867540699    -0.6590260800    -0.1176761827
   24      H       2.6173624119     0.9142627003    -1.7731520880
   25      H       3.3323213772     2.1225047200     0.1198133479
   26      H       4.5336678141    -1.0698318108    -2.1404218166
   27      H       6.2939950749     0.6937057417    -2.3924431758
   28      H       4.8346818393     1.7288667347    -2.4517134402
   29      H       6.8594235787     1.4960401761    -0.2178419749
   30      H       5.5085309613     2.6696857711    -0.3140682775
   31      H       5.2732078635     0.6330723048     1.5818116285
   32      O      -2.9484792023    -2.3573107340     0.4600892843
   33      C       0.1120969821     1.7495753988    -0.8870301168
   34      C      -4.5089186896     1.3209182460     0.9551431196
   35      C      -5.9252531360     1.6850060163     0.3629987509
   36      C      -6.3559625690     0.2955867837    -0.2395489575
   37      C      -5.1525793584    -0.6253164753     0.2105683334
   38      O      -4.7130130570    -0.0401393275     1.4984131637
   39      H      -3.7687865623     1.8042519704    -1.0902345804
   40      H      -4.1655855556    -0.3599184146    -1.7991097736
   41      H       0.5252355873     1.1184649369    -0.0649927251
   42      H      -4.1206921100     1.9985611279     1.7402702235
   43      H      -6.6070238772     2.0025658068     1.1681843227
   44      H      -5.8732864384     2.4833132569    -0.3946449287
   45      H      -7.3013864596    -0.0622937096     0.1976375104
   46      H      -6.4634958209     0.3244662545    -1.3357752667
   47      H      -5.3941959256    -1.6975714289     0.3408710563
   48      H       0.2402884481     2.8194676281    -0.6220133750
   49      H       0.6320005993     1.5432791055    -1.8383000380
   50      H      -0.4668345935    -0.4030197490     2.2640664981
   51      H       0.3924318308     0.9302767892     3.1289173419
   52      H       1.0169810838    -0.7618364803     3.2433553190
   53      H       1.1840496596    -3.2544865930    -1.5241861793
   54      H       0.1534366602    -2.6346397627    -2.8711340449
   55      H      -1.0204371135    -3.4058706292    -0.6896120912
   56      H      -0.3432054918    -1.9547053553     0.1237533718
 ----------------------------------------------------------------

    9   -1510.2768569051      7.91E-09 Convergence criterion met
 Total energy in the final basis set = -1510.27685691
 Final energy is   -1510.27685690508
 **  OPTIMIZATION CONVERGED  **

                    Orbital Energies (a.u.)
 --------------------------------------------------------------

 Alpha MOs
 -- Occupied --
-18.946 -18.934 -18.930 -18.930 -18.893 -18.884 -18.881 -18.876
-18.874 -18.870 -10.107 -10.100 -10.097 -10.096 -10.074 -10.072
-10.065 -10.064 -10.062 -10.056 -10.055 -10.044 -10.044 -10.042
-10.038 -10.036 -10.025 -10.023 -10.019 -10.018  -1.019  -1.012
 -1.009  -1.006  -0.976  -0.967  -0.943  -0.936  -0.933  -0.930
 -0.768  -0.761  -0.729  -0.722  -0.715  -0.705  -0.699  -0.661
 -0.656  -0.620  -0.598  -0.580  -0.549  -0.544  -0.540  -0.536
 -0.516  -0.510  -0.480  -0.476  -0.461  -0.458  -0.453  -0.448
 -0.437  -0.430  -0.428  -0.421  -0.415  -0.411  -0.404  -0.399
 -0.394  -0.380  -0.372  -0.367  -0.360  -0.357  -0.354  -0.349
 -0.346  -0.342  -0.335  -0.334  -0.331  -0.328  -0.326  -0.317
 -0.311  -0.309  -0.304  -0.302  -0.294  -0.291  -0.276  -0.275
 -0.271  -0.265  -0.254  -0.248  -0.241  -0.237  -0.231  -0.188
 -0.177  -0.173  -0.168  -0.159  -0.156  -0.153  -0.148  -0.147
 -0.141

          Ground-State Mulliken Net Atomic Charges

     Atom                 Charge (a.u.)
  ----------------------------------------
      1 O                    -0.219103
      2 C                     0.206963
      3 C                    -0.080456
      4 C                    -0.076849
      5 C                     0.202618
      6 O                    -0.170546
      7 C                    -0.050219
      8 C                    -0.049520
      9 O                    -0.170051
     10 C                     0.212019
     11 C                    -0.079176
     12 C                    -0.080206
     13 C                     0.215015
     14 O                    -0.209070
     15 O                    -0.169114
     16 O                    -0.167888
     17 O                    -0.208718
     18 C                    -0.124542
     19 C                     0.025968
     20 C                    -0.145126
     21 C                    -0.142304
     22 C                     0.026419
     23 O                    -0.186681
     24 H                     0.086170
     25 H                     0.085498
     26 H                     0.083175
     27 H                     0.079277
     28 H                     0.073893
     29 H                     0.079424
     30 H                     0.074578
     31 H                     0.089903
     32 O                    -0.209554
     33 C                    -0.145852
     34 C                     0.023657
     35 C                    -0.142994
     36 C                    -0.145511
     37 C                     0.025471
     38 O                    -0.188090
     39 H                     0.085919
     40 H                     0.084267
     41 H                     0.106686
     42 H                     0.087635
     43 H                     0.077710
     44 H                     0.072358
     45 H                     0.077893
     46 H                     0.072412
     47 H                     0.087854
     48 H                     0.074432
     49 H                     0.083591
     50 H                     0.099752
     51 H                     0.100283
     52 H                     0.090764
     53 H                     0.092945
     54 H                     0.091432
     55 H                     0.092476
     56 H                     0.093115
  ----------------------------------------
  Sum of atomic charges =    -0.000000

                    Cartesian Multipole Moments
 -----------------------------------------------------------------
    Charge (ESU x 10^10)
                -0.0000
    Dipole Moment (Debye)
         X      -0.1362      Y       1.7153      Z      -3.4615
       Tot       3.8656
    Quadrupole Moments (Debye-Ang)
        XX    -150.9282     XY       1.9850     YY    -157.0682
        XZ      -0.7077     YZ       1.1274     ZZ    -164.7291

 Total job time:  80.87s(wall), 3853.55s(cpu)
        *  Thank you very much for using Q-Chem.  Have a nice day.  *
