 Q-Chem 5.0, Q-Chem, Inc., Pleasanton, CA (2017)
 Q-Chem 5.0.1 for Intel X86 EM64T Linux

User input:
--------------------------------------------------------------
$molecule
0  1
O -1.5249558882 1.5640023811 1.2208341968
C -2.0239429088 1.3702939424 0.0910679346
C -3.519100678 1.109918431 -0.2677228708
C -3.8961979281 -0.3605095251 -0.7265635004
C -2.8684331048 -1.5299674123 -0.4761418222
O -1.7793558325 -1.5318550247 -1.4181102746
C -0.6743875449 -2.3620451479 -0.8561971915
C 0.5376179955 -2.411899608 -1.8544441027
O 1.3614681433 -1.1925497472 -2.0192462797
C 2.1841778802 -1.029581584 -0.8416845175
C 3.0602354112 0.2589966215 -1.0066971617
C 3.4076193843 1.0376145247 0.3268109524
C 2.5453264535 0.8281650626 1.6240963961
O 2.8065588054 1.3326769687 2.7375557852
O -1.3109732581 1.437948387 -1.1397407064
O 1.3059084624 0.1676111545 1.3365866797
O 2.2596875892 -1.8886573152 0.0621533765
C 0.521735966 -0.0237393542 2.5804833711
C 4.5244774276 -0.2304903954 -1.4178302318
C 5.4030234908 1.017219579 -1.8316081301
C 5.7826636149 1.6083166852 -0.4231099052
C 4.9446786189 0.6664600205 0.524838833
O 5.0867540699 -0.65902608 -0.1176761827
H 2.6173624119 0.9142627003 -1.773152088
H 3.3323213772 2.12250472 0.1198133479
H 4.5336678141 -1.0698318108 -2.1404218166
H 6.2939950749 0.6937057417 -2.3924431758
H 4.8346818393 1.7288667347 -2.4517134402
H 6.8594235787 1.4960401761 -0.2178419749
H 5.5085309613 2.6696857711 -0.3140682775
H 5.2732078635 0.6330723048 1.5818116285
O -2.9484792023 -2.357310734 0.4600892843
C 0.1120969821 1.7495753988 -0.8870301168
C -4.5089186896 1.320918246 0.9551431196
C -5.925253136 1.6850060163 0.3629987509
C -6.355962569 0.2955867837 -0.2395489575
C -5.1525793584 -0.6253164753 0.2105683334
O -4.713013057 -0.0401393275 1.4984131637
H -3.7687865623 1.8042519704 -1.0902345804
H -4.1655855556 -0.3599184146 -1.7991097736
H 0.5252355873 1.1184649369 -0.0649927251
H -4.12069211 1.9985611279 1.7402702235
H -6.6070238772 2.0025658068 1.1681843227
H -5.8732864384 2.4833132569 -0.3946449287
H -7.3013864596 -0.0622937096 0.1976375104
H -6.4634958209 0.3244662545 -1.3357752667
H -5.3941959256 -1.6975714289 0.3408710563
H 0.2402884481 2.8194676281 -0.622013375
H 0.6320005993 1.5432791055 -1.838300038
H -0.4668345935 -0.403019749 2.2640664981
H 0.3924318308 0.9302767892 3.1289173419
H 1.0169810838 -0.7618364803 3.243355319
H 1.1840496596 -3.254486593 -1.5241861793
H 0.1534366602 -2.6346397627 -2.8711340449
H -1.0204371135 -3.4058706292 -0.6896120912
H -0.3432054918 -1.9547053553 0.1237533718
$end

$rem
JOBTYPE                   OPT
METHOD                    B3LYP
DFT_D                     d3_op
BASIS                     STO-3G
GEOM_OPT_MAX_CYCLES       100
GEOM_OPT_TOL_GRADIENT     300
GEOM_OPT_TOL_DISPLACEMENT 1200
GEOM_OPT_TOL_ENERGY       100
SYMMETRY                  False
THRESH                    12
SCF_CONVERGENCE           8
MAX_SUB_FILE_NUM          128
MEM_STATIC                400
MEM_TOTAL                 4000
$end
--------------------------------------------------------------

   16   -1510.2766231500      6.19E-09 Convergence criterion met
 Total energy in the final basis set = -1510.27662315
   14   -1510.2731052056      9.43E-09 Convergence criterion met
 Total energy in the final basis set = -1510.27310521
   13   -1510.2808907909      5.72E-09 Convergence criterion met
 Total energy in the final basis set = -1510.28089079
   14   -1510.2783159505      5.73E-09 Convergence criterion met
 Total energy in the final basis set = -1510.27831595
   15   -1510.2766431780      3.69E-09 Convergence criterion met
 Total energy in the final basis set = -1510.27664318
   15   -1510.2782076283      5.17E-09 Convergence criterion met
 Total energy in the final basis set = -1510.27820763
   15   -1510.2776080577      2.54E-09 Convergence criterion met
 Total energy in the final basis set = -1510.27760806
   14   -1510.2825555213      5.95E-09 Convergence criterion met
   11   -1510.2975905517      3.54E-09 Convergence criterion met
 Total energy in the final basis set = -1510.29759055
   11   -1510.2976005349      5.28E-09 Convergence criterion met
 Total energy in the final basis set = -1510.29760053
   11   -1510.2976078740      4.07E-09 Convergence criterion met
 Total energy in the final basis set = -1510.29760787
   11   -1510.2976101081      2.95E-09 Convergence criterion met
 Total energy in the final basis set = -1510.29761011
   10   -1510.2976161814      9.39E-09 Convergence criterion met
 Total energy in the final basis set = -1510.29761618
   10   -1510.2976189370      5.59E-09 Convergence criterion met
 Total energy in the final basis set = -1510.29761894

             Standard Nuclear Orientation (Angstroms)
    I     Atom           X                Y                Z
 ----------------------------------------------------------------
    1      O      -1.6316292009    -2.1632016232     0.4124587081
    2      C      -2.0351437239    -1.2070281889     1.1096494517
    3      C      -3.4950211974    -0.6420120576     1.2138985084
    4      C      -3.7365342342     0.6303193846     0.2866463564
    5      C      -2.5051458773     0.9549422804    -0.6259547057
    6      O      -1.7376384961     2.0011774883    -0.0285129231
    7      C      -0.5977104328     2.3777574996    -0.9042827011
    8      C       0.5320392248     3.0124254770    -0.0222427063
    9      O       1.3658944556     2.0081514107     0.6783725717
   10      C       2.3513117824     1.4657147242    -0.2174316044
   11      C       3.2863375774     0.5198975677     0.6086559175
   12      C       3.3458789694    -0.9770241619     0.0883043872
   13      C       2.4635669835    -1.3017843565    -1.1695209456
   14      O       2.8297359136    -1.9011560757    -2.2014568072
   15      O      -1.2074767792    -0.4135466740     1.9582156414
   16      O       1.1242573868    -0.8409264439    -0.9453785555
   17      O       2.4461216566     1.7774210880    -1.4238555749
   18      C       0.2327040792    -1.2530230498    -2.0594825307
   19      C       4.8119988746     0.9445091723     0.4403483186
   20      C       5.6479241116     0.2540169318     1.5892084769
   21      C       5.7051018590    -1.2315705967     1.0725598322
   22      C       4.8822625984    -1.1186446555    -0.2694178658
   23      O       5.2340123997     0.2267917266    -0.7820745536
   24      H       2.9661384490     0.5630164244     1.6636979116
   25      H       3.0496879226    -1.6737169393     0.8948556969
   26      H       4.9742535745     2.0338492625     0.3260889682
   27      H       6.6535522825     0.6993275658     1.6531129985
   28      H       5.1582736206     0.3456827990     2.5718324457
   29      H       6.7397059946    -1.5474262034     0.8645723917
   30      H       5.2524496560    -1.9456314032     1.7790111336
   31      H       5.0885805368    -1.8914679225    -1.0353210428
   32      O      -2.2134029342     0.3973386037    -1.7100144500
   33      C       0.2050801353    -0.8507975017     1.8441974386
   34      C      -4.5733396653    -1.6490329353     0.6324169663
   35      C      -5.9912796626    -1.2130639261     1.1714320457
   36      C      -6.2514654320     0.0826225041     0.3146416268
   37      C      -4.9567042337     0.1193967723    -0.5901590312
   38      O      -4.6348473307    -1.3085170373    -0.8074855747
   39      H      -3.6952143734    -0.3877597126     2.2699860049
   40      H      -3.9806817720     1.5237423670     0.8877202009
   41      H       0.5370173632    -0.8715439999     0.7769901857
   42      H      -4.3149789386    -2.7175468492     0.7634343640
   43      H      -6.7399588347    -1.9928718635     0.9594382025
   44      H      -5.9830761040    -1.0138596504     2.2548572416
   45      H      -7.1532980602    -0.0196084625    -0.3095905335
   46      H      -6.3516701379     0.9886229644     0.9336926730
   47      H      -5.0709645615     0.6397504998    -1.5608221512
   48      H       0.3473137980    -1.8538533886     2.2960962046
   49      H       0.7915732169    -0.1055064299     2.4103572458
   50      H      -0.7076697007    -0.6684131413    -1.9481928805
   51      H       0.0098568307    -2.3367485070    -1.9951107196
   52      H       0.7068275140    -1.0389608119    -3.0370802529
   53      H       1.1656183823     3.6491626401    -0.6771137445
   54      H       0.0764576131     3.6353141317     0.7742300404
   55      H      -0.9420243984     3.1275298067    -1.6509024135
   56      H      -0.2126109351     1.4950454911    -1.4542502868
 ----------------------------------------------------------------

   10   -1510.2976188006      3.88E-09 Convergence criterion met
 Total energy in the final basis set = -1510.29761880
 Final energy is   -1510.29761880058
 **  OPTIMIZATION CONVERGED  **

                    Orbital Energies (a.u.)
 --------------------------------------------------------------

 Alpha MOs
 -- Occupied --
-18.943 -18.940 -18.936 -18.925 -18.889 -18.887 -18.885 -18.881
-18.876 -18.868 -10.108 -10.103 -10.101 -10.092 -10.079 -10.076
-10.062 -10.061 -10.058 -10.058 -10.043 -10.041 -10.041 -10.040
-10.038 -10.036 -10.022 -10.021 -10.021 -10.020  -1.021  -1.015
 -1.010  -1.003  -0.971  -0.970  -0.945  -0.939  -0.937  -0.928
 -0.766  -0.764  -0.730  -0.724  -0.715  -0.706  -0.700  -0.654
 -0.650  -0.621  -0.599  -0.582  -0.549  -0.545  -0.539  -0.537
 -0.513  -0.512  -0.481  -0.476  -0.461  -0.456  -0.455  -0.453
 -0.435  -0.430  -0.430  -0.420  -0.416  -0.406  -0.402  -0.398
 -0.396  -0.381  -0.371  -0.368  -0.365  -0.358  -0.354  -0.350
 -0.346  -0.341  -0.333  -0.333  -0.331  -0.329  -0.326  -0.312
 -0.311  -0.307  -0.305  -0.299  -0.296  -0.288  -0.280  -0.275
 -0.273  -0.262  -0.254  -0.251  -0.238  -0.235  -0.234  -0.188
 -0.180  -0.176  -0.167  -0.162  -0.159  -0.152  -0.146  -0.145
 -0.143

          Ground-State Mulliken Net Atomic Charges

     Atom                 Charge (a.u.)
  ----------------------------------------
      1 O                    -0.213530
      2 C                     0.202996
      3 C                    -0.078621
      4 C                    -0.077434
      5 C                     0.213009
      6 O                    -0.166769
      7 C                    -0.052124
      8 C                    -0.047992
      9 O                    -0.170462
     10 C                     0.209619
     11 C                    -0.079722
     12 C                    -0.079404
     13 C                     0.216826
     14 O                    -0.203497
     15 O                    -0.172626
     16 O                    -0.175935
     17 O                    -0.213973
     18 C                    -0.142426
     19 C                     0.026151
     20 C                    -0.143922
     21 C                    -0.144106
     22 C                     0.024376
     23 O                    -0.185938
     24 H                     0.085213
     25 H                     0.085164
     26 H                     0.083041
     27 H                     0.078586
     28 H                     0.073333
     29 H                     0.079079
     30 H                     0.073243
     31 H                     0.092625
     32 O                    -0.212921
     33 C                    -0.148590
     34 C                     0.024989
     35 C                    -0.143636
     36 C                    -0.144326
     37 C                     0.026210
     38 O                    -0.184618
     39 H                     0.085377
     40 H                     0.086863
     41 H                     0.110955
     42 H                     0.087994
     43 H                     0.078258
     44 H                     0.073191
     45 H                     0.078371
     46 H                     0.073089
     47 H                     0.084530
     48 H                     0.073858
     49 H                     0.081631
     50 H                     0.112778
     51 H                     0.090167
     52 H                     0.090905
     53 H                     0.093838
     54 H                     0.095000
     55 H                     0.086304
     56 H                     0.105004
  ----------------------------------------
  Sum of atomic charges =    -0.000000

                    Cartesian Multipole Moments
 -----------------------------------------------------------------
    Charge (ESU x 10^10)
                -0.0000
    Dipole Moment (Debye)
         X      -1.1494      Y       2.0199      Z       3.9431
       Tot       4.5770
    Quadrupole Moments (Debye-Ang)
        XX    -149.9973     XY      -5.9103     YY    -156.1450
        XZ       7.0768     YZ      -5.6774     ZZ    -165.4005

 Total job time:  115.60s(wall), 5513.05s(cpu)
        *  Thank you very much for using Q-Chem.  Have a nice day.  *
