 Q-Chem 5.0, Q-Chem, Inc., Pleasanton, CA (2017)
 Q-Chem 5.0.1 for Intel X86 EM64T Linux

User input:
--------------------------------------------------------------
$molecule
0  1
O -4.2358570462 2.146004363 1.0878299255
C -3.725329095 1.80156678 0.0017346202
C -4.0662715612 0.549992068 -0.8792404475
C -3.4840671444 -0.8170474369 -0.3073179456
C -2.5488043759 -0.6558205484 0.9369253878
O -1.3004364234 -1.2841362937 0.6187206888
C -0.3570073907 -1.1545623023 1.7568253315
C 0.8061368125 -2.1685172348 1.5279134542
O 1.5479500654 -1.8102397046 0.2961867141
C 2.8708049381 -1.3535452735 0.6225476498
C 3.5859830973 -0.9964318928 -0.7269531838
C 3.8452978433 0.543861255 -1.0009912439
C 3.2158441649 1.5987480901 -0.0274214649
O 3.5154467217 2.8134564756 0.0072153606
O -2.6313947986 2.4933206203 -0.6217627263
O 2.1572534411 1.0207119302 0.7434652771
O 3.3546475665 -1.3641450357 1.7754628666
C 1.5537718849 2.0402606862 1.6348089545
C 5.0838923673 -1.5318299998 -0.6971154785
C 5.6661082866 -1.5146005184 -2.1656599851
C 5.9529197348 0.0201820319 -2.3634326445
C 5.4351793403 0.601344595 -0.9903575793
O 5.8142775002 -0.441261162 -0.0112937972
H 2.9973050104 -1.4436972408 -1.5468171245
H 3.4687019993 0.8032373366 -2.0088311095
H 5.2138205055 -2.48481079 -0.1484846623
H 6.5909228149 -2.1103386833 -2.2203941586
H 4.9463792765 -1.9113156237 -2.8995483516
H 7.0304092401 0.2175295357 -2.4809827223
H 5.4184160599 0.4485633952 -3.2262545981
H 5.8480645365 1.5873176145 -0.7006586741
O -2.793102583 -0.1072522805 2.033183011
C -2.2154613985 3.6388362982 0.2194847329
C -5.6237464451 0.2422444309 -0.8354166405
C -5.9659651192 -0.8019617304 -1.9709830474
C -5.4237727689 -2.1354115578 -1.3348029283
C -4.8307674962 -1.5989878245 0.0274674281
O -5.7766436734 -0.532260437 0.4172420608
H -3.7005411895 0.7328922562 -1.9048311129
H -2.9047581737 -1.3439973635 -1.0856266835
H -1.9736687613 3.3184810928 1.2536208512
H -6.2665322583 1.1431536998 -0.8104614245
H -7.0534695623 -0.8464322093 -2.1403378125
H -5.4693572321 -0.5544598034 -2.9227506374
H -6.2388662809 -2.8510809703 -1.1416834284
H -4.6605143381 -2.6281980084 -1.9579274391
H -4.7400362085 -2.3511827076 0.8348421927
H -3.0049972809 4.4164741448 0.2714751091
H -1.3141588963 4.0621082496 -0.2611921306
H 1.6300846234 1.6884272337 2.6819713381
H 0.4877120327 2.1721140269 1.3631831501
H 2.0977000323 2.9982456094 1.5066755356
H 1.512507671 -2.139898428 2.3878360892
H 0.4007072284 -3.1934689247 1.3984694875
H -0.8735295559 -1.3662307349 2.7188759699
H 0.0482399154 -0.1224480952 1.8020631025
$end

$rem
JOBTYPE                   OPT
METHOD                    B3LYP
DFT_D                     d3_op
BASIS                     STO-3G
GEOM_OPT_MAX_CYCLES       100
GEOM_OPT_TOL_GRADIENT     300
GEOM_OPT_TOL_DISPLACEMENT 1200
GEOM_OPT_TOL_ENERGY       100
SYMMETRY                  False
THRESH                    12
SCF_CONVERGENCE           8
MAX_SUB_FILE_NUM          128
MEM_STATIC                400
MEM_TOTAL                 4000
$end
--------------------------------------------------------------

   16   -1510.2795907129      5.88E-09 Convergence criterion met
 Total energy in the final basis set = -1510.27959071
   14   -1510.2803866228      6.40E-09 Convergence criterion met
 Total energy in the final basis set = -1510.28038662
   13   -1510.2804864686      8.07E-09 Convergence criterion met
 Total energy in the final basis set = -1510.28048647
   14   -1510.2815098066      2.30E-09 Convergence criterion met
 Total energy in the final basis set = -1510.28150981
   14   -1510.2822502531      3.24E-09 Convergence criterion met
 Total energy in the final basis set = -1510.28225025
   14   -1510.2834580091      3.06E-09 Convergence criterion met
 Total energy in the final basis set = -1510.28345801
   13   -1510.2844680607      3.70E-09 Convergence criterion met
 Total energy in the final basis set = -1510.28446806
   13   -1510.2855923783      6.15E-09 Convergence criterion met
   11   -1510.3021625560      6.53E-09 Convergence criterion met
 Total energy in the final basis set = -1510.30216256
   11   -1510.3021726208      9.09E-09 Convergence criterion met
 Total energy in the final basis set = -1510.30217262
   10   -1510.3021891507      8.07E-09 Convergence criterion met
 Total energy in the final basis set = -1510.30218915
    9   -1510.3021970482      7.95E-09 Convergence criterion met
 Total energy in the final basis set = -1510.30219705
   11   -1510.3022035454      2.80E-09 Convergence criterion met
 Total energy in the final basis set = -1510.30220355
    9   -1510.3022070495      8.71E-09 Convergence criterion met
 Total energy in the final basis set = -1510.30220705

             Standard Nuclear Orientation (Angstroms)
    I     Atom           X                Y                Z
 ----------------------------------------------------------------
    1      O      -2.1817025494     2.1014779241    -0.3195434405
    2      C      -2.1774589031     1.1507824542    -1.1359223402
    3      C      -3.2473308822     0.0004348297    -1.2528014989
    4      C      -2.9155571111    -1.3008018434    -0.4119218728
    5      C      -1.5904333543    -1.1690765725     0.4135941101
    6      O      -1.5339037769    -2.2389623443     1.3587016716
    7      C      -0.3546838260    -2.0989325648     2.2440504696
    8      C       0.9302639124    -2.8021339044     1.6684215459
    9      O       1.4610478624    -2.1868797492     0.4285125266
   10      C       2.0226144262    -0.8980761222     0.7031947800
   11      C       2.7448765075    -0.3794156310    -0.5851666819
   12      C       3.1329529297     1.1497239732    -0.4747584564
   13      C       2.4336554694     1.8993031404     0.7187348374
   14      O       2.9536304634     2.4849621626     1.6892129498
   15      O      -1.2768770644     1.0095447739    -2.2327485858
   16      O       1.0336926640     1.8947864370     0.4114827261
   17      O       1.9949497873    -0.3378991724     1.8218915079
   18      C       0.2066093519     2.5143800237     1.4657132746
   19      C       4.1915378165    -1.0344469438    -0.6573877050
   20      C       4.8609643221    -0.6588105868    -2.0397331450
   21      C       5.3047446355     0.8281050076    -1.7753029021
   22      C       4.7093776850     1.0627704640    -0.3325834766
   23      O       4.9449666531    -0.2384812188     0.3380942078
   24      H       2.1287268936    -0.6047904830    -1.4736279651
   25      H       2.8518136054     1.6760646524    -1.4047023554
   26      H       4.2162634722    -2.1111659414    -0.3993637709
   27      H       5.7241913543    -1.3122251484    -2.2430482150
   28      H       4.1486426643    -0.7454980821    -2.8760067270
   29      H       6.4022975895     0.9227907314    -1.7592176451
   30      H       4.8982730577     1.5339991051    -2.5170183941
   31      H       5.1592724979     1.8876259623     0.2533601592
   32      O      -0.7190320078    -0.2775477928     0.3020553918
   33      C      -0.2261390526     2.0547343424    -2.1753870930
   34      C      -4.6291139310     0.4275008507    -0.6007825312
   35      C      -5.7538272064    -0.5463401765    -1.1306188863
   36      C      -5.4260681186    -1.8562913352    -0.3216621585
   37      C      -4.1880556350    -1.3828605755     0.5362656506
   38      O      -4.4791337411     0.0397423122     0.8216270791
   39      H      -3.3580899688    -0.2494014745    -2.3225934064
   40      H      -2.8348919942    -2.1939457421    -1.0587540822
   41      H      -0.6654300847     3.0661421650    -2.2929579143
   42      H      -4.8553182336     1.5082149610    -0.6811982115
   43      H      -6.7523762411    -0.1557872043    -0.8779799883
   44      H      -5.6959266082    -0.6933234069    -2.2208985227
   45      H      -6.2611727355    -2.1464541748     0.3355555792
   46      H      -5.1780610279    -2.7091561125    -0.9737385347
   47      H      -4.0119139625    -1.9452874209     1.4738252423
   48      H       0.4448328931     1.8493370413    -3.0292792925
   49      H       0.3347358443     2.0003822901    -1.2075168797
   50      H       0.2504157402     1.9171843991     2.3986682366
   51      H      -0.8221720410     2.5074738412     1.0423502178
   52      H       0.5349250723     3.5506111097     1.6845431268
   53      H       1.7047084857    -2.8004200838     2.4672691499
   54      H       0.6949411573    -3.8501525071     1.3928723348
   55      H      -0.6295643212    -2.5995444734     3.1948591522
   56      H      -0.1214120787    -1.0301675261     2.4328012637
 ----------------------------------------------------------------

    9   -1510.3022063368      6.61E-09 Convergence criterion met
 Total energy in the final basis set = -1510.30220634
 Final energy is   -1510.30220633681
 **  OPTIMIZATION CONVERGED  **

                    Orbital Energies (a.u.)
 --------------------------------------------------------------

 Alpha MOs
 -- Occupied --
-18.943 -18.940 -18.925 -18.918 -18.889 -18.886 -18.886 -18.882
-18.866 -18.856 -10.108 -10.105 -10.093 -10.089 -10.080 -10.077
-10.061 -10.060 -10.057 -10.055 -10.041 -10.040 -10.038 -10.032
-10.031 -10.030 -10.021 -10.020 -10.019 -10.018  -1.025  -1.014
 -0.999  -0.994  -0.969  -0.969  -0.947  -0.941  -0.927  -0.920
 -0.763  -0.761  -0.730  -0.722  -0.715  -0.704  -0.697  -0.648
 -0.646  -0.622  -0.595  -0.580  -0.544  -0.543  -0.536  -0.536
 -0.514  -0.508  -0.483  -0.475  -0.459  -0.453  -0.451  -0.449
 -0.432  -0.431  -0.425  -0.422  -0.412  -0.401  -0.398  -0.396
 -0.387  -0.380  -0.372  -0.367  -0.360  -0.352  -0.351  -0.345
 -0.343  -0.338  -0.335  -0.330  -0.327  -0.323  -0.320  -0.313
 -0.310  -0.305  -0.302  -0.299  -0.297  -0.280  -0.276  -0.275
 -0.270  -0.257  -0.256  -0.249  -0.234  -0.233  -0.226  -0.199
 -0.172  -0.168  -0.161  -0.158  -0.156  -0.144  -0.144  -0.142
 -0.139

          Ground-State Mulliken Net Atomic Charges

     Atom                 Charge (a.u.)
  ----------------------------------------
      1 O                    -0.226723
      2 C                     0.219064
      3 C                    -0.081963
      4 C                    -0.077770
      5 C                     0.216587
      6 O                    -0.172928
      7 C                    -0.054408
      8 C                    -0.050004
      9 O                    -0.172085
     10 C                     0.224247
     11 C                    -0.075931
     12 C                    -0.080460
     13 C                     0.221684
     14 O                    -0.210044
     15 O                    -0.174940
     16 O                    -0.173953
     17 O                    -0.209295
     18 C                    -0.134588
     19 C                     0.024295
     20 C                    -0.144295
     21 C                    -0.142974
     22 C                     0.023765
     23 O                    -0.190318
     24 H                     0.090492
     25 H                     0.083085
     26 H                     0.082564
     27 H                     0.077842
     28 H                     0.073789
     29 H                     0.077894
     30 H                     0.073030
     31 H                     0.090431
     32 O                    -0.203349
     33 C                    -0.150958
     34 C                     0.025132
     35 C                    -0.144059
     36 C                    -0.144007
     37 C                     0.024232
     38 O                    -0.189630
     39 H                     0.083784
     40 H                     0.086494
     41 H                     0.075168
     42 H                     0.086762
     43 H                     0.077826
     44 H                     0.073312
     45 H                     0.077983
     46 H                     0.073045
     47 H                     0.087635
     48 H                     0.072999
     49 H                     0.117359
     50 H                     0.084835
     51 H                     0.114689
     52 H                     0.082453
     53 H                     0.091955
     54 H                     0.091408
     55 H                     0.091262
     56 H                     0.107580
  ----------------------------------------
  Sum of atomic charges =     0.000000

                    Cartesian Multipole Moments
 -----------------------------------------------------------------
    Charge (ESU x 10^10)
                -0.0000
    Dipole Moment (Debye)
         X      -1.0379      Y      -3.0402      Z      -2.6318
       Tot       4.1529
    Quadrupole Moments (Debye-Ang)
        XX    -158.5325     XY       2.7847     YY    -154.9439
        XZ      -5.6437     YZ      -7.9378     ZZ    -157.7621

 Total job time:  221.28s(wall), 10552.91s(cpu)
        *  Thank you very much for using Q-Chem.  Have a nice day.  *
