 Q-Chem 5.0, Q-Chem, Inc., Pleasanton, CA (2017)
 Q-Chem 5.0.1 for Intel X86 EM64T Linux

User input:
--------------------------------------------------------------
$molecule
0  1
O -3.94934 -3.66094 2.70899
C -3.26408 -4.56952 2.26188
C -3.36658 -6.02376 2.66595
C -2.76767 -6.41909 4.02568
C -2.29177 -5.28632 4.90798
O -0.98213 -5.47895 5.2444
C -0.45386 -4.43643 6.07103
C 0.8537 -4.88704 6.71397
O 1.84029 -5.12929 5.69867
C 2.88154 -4.26065 5.67835
C 3.88292 -4.56789 4.59046
C 3.91033 -3.55974 3.43237
C 3.21621 -2.23757 3.69072
O 3.3105 -1.23904 2.9917
O -2.43044 -4.30179 1.22226
O 2.24747 -2.12373 4.63766
O 3.13139 -3.46247 6.57763
C 1.50186 -0.99148 4.90636
C 5.34566 -4.52619 5.06579
C 6.21845 -5.35706 4.12665
C 6.21312 -4.48212 2.89018
C 5.42767 -3.27295 3.41157
O 5.75935 -3.21488 4.77848
H 3.65662 -5.5886 4.20351
H 3.54458 -3.95649 2.46013
H 5.47502 -4.86518 6.11698
H 7.24668 -5.36193 4.55448
H 5.88288 -6.4045 3.96798
H 7.26355 -4.19615 2.65984
H 5.73326 -4.92832 1.9923
H 5.68146 -2.36936 2.8141
O -2.98486 -4.34179 5.26991
C -2.23778 -3.04711 0.68294
C -4.82619 -6.47085 2.85418
C -4.93221 -7.99107 2.7282
C -4.3042 -8.42734 4.03592
C -4.00673 -7.06649 4.67249
O -5.06671 -6.25496 4.22354
H -2.88696 -6.61599 1.85312
H -1.94463 -7.16233 3.9105
H -1.83652 -2.3567 1.45555
H -5.52582 -5.97443 2.14622
H -6.01215 -8.2614 2.74775
H -4.46278 -8.40916 1.81178
H -5.07724 -8.95648 4.63691
H -3.39913 -9.06536 3.94102
H -3.9029 -7.17099 5.77538
H -3.19581 -2.6499 0.28447
H -1.50673 -3.11683 -0.14844
H 0.80132 -1.20679 5.73888
H 0.91302 -0.69844 4.0111
H 2.16988 -0.15742 5.20972
H 1.13387 -4.1037 7.45213
H 0.69274 -5.82219 7.2915
H -1.14556 -4.2365 6.92283
H -0.31466 -3.50154 5.48532
$end

$opt
CONSTRAINT
tors           1           2           3           4     -75.758
tors           3           4           5           6    -124.443
tors           4           5           6           7    +179.402
tors           5           6           7           8    +164.583
tors           6           7           8           9     +63.414
tors           7           8           9          10    +111.870
tors           8           9          10          11    -180.000
tors           9          10          11          12    +109.681
tors          11          12          13          14    +167.542
ENDCONSTRAINT
$end

$rem
JOBTYPE                   OPT
METHOD                    B3LYP
DFT_D                     d3_op
BASIS                     STO-3G
GEOM_OPT_MAX_CYCLES       100
GEOM_OPT_TOL_GRADIENT     300
GEOM_OPT_TOL_DISPLACEMENT 1200
GEOM_OPT_TOL_ENERGY       100
SYMMETRY                  False
THRESH                    12
SCF_CONVERGENCE           8
MAX_SUB_FILE_NUM          128
MEM_STATIC                400
MEM_TOTAL                 4000
$end
--------------------------------------------------------------

   15   -1510.1411277866      5.57E-09 Convergence criterion met
 Total energy in the final basis set = -1510.14112779
   14   -1510.2130772382      6.50E-09 Convergence criterion met
 Total energy in the final basis set = -1510.21307724
   14   -1510.2524350441      8.27E-09 Convergence criterion met
 Total energy in the final basis set = -1510.25243504
   14   -1510.2692679719      8.02E-09 Convergence criterion met
 Total energy in the final basis set = -1510.26926797
   14   -1510.2738037070      3.52E-09 Convergence criterion met
 Total energy in the final basis set = -1510.27380371
   13   -1510.2762343787      7.63E-09 Convergence criterion met
 Total energy in the final basis set = -1510.27623438
   13   -1510.2771127414      7.45E-09 Convergence criterion met
 Total energy in the final basis set = -1510.27711274
   13   -1510.2777610759      5.49E-09 Convergence criterion met
   11   -1510.2795253030      4.22E-09 Convergence criterion met
 Total energy in the final basis set = -1510.27952530
   12   -1510.2795515294      3.30E-09 Convergence criterion met
 Total energy in the final basis set = -1510.27955153
   12   -1510.2795666282      3.58E-09 Convergence criterion met
 Total energy in the final basis set = -1510.27956663
    9   -1510.2795722076      6.06E-09 Convergence criterion met
 Total energy in the final basis set = -1510.27957221
   11   -1510.2795806609      5.89E-09 Convergence criterion met
 Total energy in the final basis set = -1510.27958066
    9   -1510.2795831380      8.17E-09 Convergence criterion met
 Total energy in the final basis set = -1510.27958314

             Standard Nuclear Orientation (Angstroms)
    I     Atom           X                Y                Z
 ----------------------------------------------------------------
    1      O      -4.2358570462     2.1460043630     1.0878299255
    2      C      -3.7253290950     1.8015667800     0.0017346202
    3      C      -4.0662715612     0.5499920680    -0.8792404475
    4      C      -3.4840671444    -0.8170474369    -0.3073179456
    5      C      -2.5488043759    -0.6558205484     0.9369253878
    6      O      -1.3004364234    -1.2841362937     0.6187206888
    7      C      -0.3570073907    -1.1545623023     1.7568253315
    8      C       0.8061368125    -2.1685172348     1.5279134542
    9      O       1.5479500654    -1.8102397046     0.2961867141
   10      C       2.8708049381    -1.3535452735     0.6225476498
   11      C       3.5859830973    -0.9964318928    -0.7269531838
   12      C       3.8452978433     0.5438612550    -1.0009912439
   13      C       3.2158441649     1.5987480901    -0.0274214649
   14      O       3.5154467217     2.8134564756     0.0072153606
   15      O      -2.6313947986     2.4933206203    -0.6217627263
   16      O       2.1572534411     1.0207119302     0.7434652771
   17      O       3.3546475665    -1.3641450357     1.7754628666
   18      C       1.5537718849     2.0402606862     1.6348089545
   19      C       5.0838923673    -1.5318299998    -0.6971154785
   20      C       5.6661082866    -1.5146005184    -2.1656599851
   21      C       5.9529197348     0.0201820319    -2.3634326445
   22      C       5.4351793403     0.6013445950    -0.9903575793
   23      O       5.8142775002    -0.4412611620    -0.0112937972
   24      H       2.9973050104    -1.4436972408    -1.5468171245
   25      H       3.4687019993     0.8032373366    -2.0088311095
   26      H       5.2138205055    -2.4848107900    -0.1484846623
   27      H       6.5909228149    -2.1103386833    -2.2203941586
   28      H       4.9463792765    -1.9113156237    -2.8995483516
   29      H       7.0304092401     0.2175295357    -2.4809827223
   30      H       5.4184160599     0.4485633952    -3.2262545981
   31      H       5.8480645365     1.5873176145    -0.7006586741
   32      O      -2.7931025830    -0.1072522805     2.0331830110
   33      C      -2.2154613985     3.6388362982     0.2194847329
   34      C      -5.6237464451     0.2422444309    -0.8354166405
   35      C      -5.9659651192    -0.8019617304    -1.9709830474
   36      C      -5.4237727689    -2.1354115578    -1.3348029283
   37      C      -4.8307674962    -1.5989878245     0.0274674281
   38      O      -5.7766436734    -0.5322604370     0.4172420608
   39      H      -3.7005411895     0.7328922562    -1.9048311129
   40      H      -2.9047581737    -1.3439973635    -1.0856266835
   41      H      -1.9736687613     3.3184810928     1.2536208512
   42      H      -6.2665322583     1.1431536998    -0.8104614245
   43      H      -7.0534695623    -0.8464322093    -2.1403378125
   44      H      -5.4693572321    -0.5544598034    -2.9227506374
   45      H      -6.2388662809    -2.8510809703    -1.1416834284
   46      H      -4.6605143381    -2.6281980084    -1.9579274391
   47      H      -4.7400362085    -2.3511827076     0.8348421927
   48      H      -3.0049972809     4.4164741448     0.2714751091
   49      H      -1.3141588963     4.0621082496    -0.2611921306
   50      H       1.6300846234     1.6884272337     2.6819713381
   51      H       0.4877120327     2.1721140269     1.3631831501
   52      H       2.0977000323     2.9982456094     1.5066755356
   53      H       1.5125076710    -2.1398984280     2.3878360892
   54      H       0.4007072284    -3.1934689247     1.3984694875
   55      H      -0.8735295559    -1.3662307349     2.7188759699
   56      H       0.0482399154    -0.1224480952     1.8020631025
 ----------------------------------------------------------------

    9   -1510.2795854306      8.48E-09 Convergence criterion met
 Total energy in the final basis set = -1510.27958543
 Final energy is   -1510.27958543065
 **  OPTIMIZATION CONVERGED  **

                    Orbital Energies (a.u.)
 --------------------------------------------------------------

 Alpha MOs
 -- Occupied --
-18.945 -18.931 -18.930 -18.927 -18.890 -18.889 -18.882 -18.874
-18.874 -18.870 -10.108 -10.099 -10.097 -10.095 -10.071 -10.068
-10.065 -10.063 -10.062 -10.061 -10.061 -10.060 -10.044 -10.039
-10.038 -10.037 -10.023 -10.022 -10.021 -10.020  -1.020  -1.013
 -1.007  -1.004  -0.973  -0.971  -0.944  -0.938  -0.932  -0.929
 -0.766  -0.763  -0.729  -0.723  -0.715  -0.707  -0.698  -0.667
 -0.663  -0.618  -0.600  -0.579  -0.549  -0.545  -0.540  -0.537
 -0.516  -0.511  -0.484  -0.474  -0.463  -0.455  -0.452  -0.450
 -0.438  -0.432  -0.432  -0.420  -0.418  -0.414  -0.411  -0.405
 -0.391  -0.386  -0.376  -0.369  -0.362  -0.356  -0.353  -0.349
 -0.345  -0.339  -0.338  -0.332  -0.332  -0.328  -0.327  -0.316
 -0.309  -0.308  -0.307  -0.300  -0.298  -0.293  -0.278  -0.274
 -0.273  -0.258  -0.251  -0.248  -0.241  -0.236  -0.234  -0.183
 -0.179  -0.174  -0.168  -0.166  -0.157  -0.152  -0.146  -0.145
 -0.143

          Ground-State Mulliken Net Atomic Charges

     Atom                 Charge (a.u.)
  ----------------------------------------
      1 O                    -0.200710
      2 C                     0.205828
      3 C                    -0.078830
      4 C                    -0.079665
      5 C                     0.202382
      6 O                    -0.171861
      7 C                    -0.049935
      8 C                    -0.053686
      9 O                    -0.172252
     10 C                     0.217878
     11 C                    -0.079430
     12 C                    -0.077866
     13 C                     0.214219
     14 O                    -0.214508
     15 O                    -0.173322
     16 O                    -0.168323
     17 O                    -0.217890
     18 C                    -0.137407
     19 C                     0.026279
     20 C                    -0.144748
     21 C                    -0.143172
     22 C                     0.025216
     23 O                    -0.186410
     24 H                     0.087194
     25 H                     0.086960
     26 H                     0.084737
     27 H                     0.078651
     28 H                     0.073753
     29 H                     0.078958
     30 H                     0.073715
     31 H                     0.089205
     32 O                    -0.209026
     33 C                    -0.130243
     34 C                     0.026470
     35 C                    -0.144513
     36 C                    -0.143265
     37 C                     0.026636
     38 O                    -0.183049
     39 H                     0.085683
     40 H                     0.087149
     41 H                     0.089197
     42 H                     0.085068
     43 H                     0.078244
     44 H                     0.073480
     45 H                     0.078137
     46 H                     0.073828
     47 H                     0.083691
     48 H                     0.088137
     49 H                     0.088593
     50 H                     0.090517
     51 H                     0.086327
     52 H                     0.105937
     53 H                     0.102152
     54 H                     0.086360
     55 H                     0.091712
     56 H                     0.087820
  ----------------------------------------
  Sum of atomic charges =    -0.000000

                    Cartesian Multipole Moments
 -----------------------------------------------------------------
    Charge (ESU x 10^10)
                -0.0000
    Dipole Moment (Debye)
         X       0.2655      Y      -1.1933      Z      -3.6333
       Tot       3.8335
    Quadrupole Moments (Debye-Ang)
        XX    -174.0561     XY       1.2458     YY    -153.3957
        XZ       3.1112     YZ       0.1523     ZZ    -158.7360

 Total job time:  138.47s(wall), 6598.26s(cpu)
        *  Thank you very much for using Q-Chem.  Have a nice day.  *
