 Q-Chem 5.0, Q-Chem, Inc., Pleasanton, CA (2017)
 Q-Chem 5.0.1 for Intel X86 EM64T Linux

User input:
--------------------------------------------------------------
$molecule
0  1
O 5.8265317576 -2.4796977497 -0.3784574714
C 4.9445304598 -1.6092964019 -0.5365324189
C 5.1728243621 -0.0794237476 -0.8024763513
C 4.073967167 0.9053517078 -0.2170186204
C 2.9525217153 0.1940020256 0.6150251995
O 1.7322547572 0.2549853927 -0.1421449416
C 0.7012390064 -0.6063935193 0.4835266589
C -0.5606391115 0.2413023078 0.8796187182
O -1.5754005046 0.1450096675 -0.1967116555
C -2.9000375065 0.0697530032 0.3721252769
C -3.8907168261 0.8321421628 -0.580076927
C -5.2805438731 0.1135767542 -0.8082204716
C -5.3396897327 -1.4146838206 -0.4627213781
O -6.3707526411 -2.1025018479 -0.3016434084
O 3.5423495121 -1.8930613534 -0.6025984099
O -4.0200246126 -1.9666713698 -0.5460885955
O -3.1386214434 -0.3475882936 1.526335581
C -4.0447326028 -3.4136016616 -0.2352906312
C -4.3854396331 2.130133735 0.2010024602
C -5.2184358714 3.0468074116 -0.7832257989
C -6.6022578687 2.2963143237 -0.810412269
C -6.2607736862 1.0208261836 0.0524768258
O -5.3994993716 1.5711159285 1.1244663988
H -3.3757251732 1.0670441506 -1.5272338598
H -5.5584490818 0.1876037404 -1.8771053596
H -3.5918509916 2.6526942044 0.7697928979
H -5.3143854679 4.0658059698 -0.3763454831
H -4.7503959937 3.1070563734 -1.7789078336
H -7.3905263765 2.8890029781 -0.3192019485
H -6.9327011189 2.0406082277 -1.8298617471
H -7.1275737323 0.4797764919 0.4796773335
O 3.0503653379 -0.3187595186 1.7517156935
C 3.289542528 -3.3233186165 -0.315999998
C 6.479613575 0.4398538361 -0.0704715598
C 6.9256590016 1.7907817141 -0.7543825997
C 5.8357862934 2.7825786345 -0.2007302312
C 4.9819566924 1.8194015437 0.7158014308
O 5.9802283637 0.8693919611 1.2560614656
H 5.2545203232 0.0517270361 -1.898166212
H 3.5906500234 1.4840283664 -1.0233836552
H 3.5601530882 -3.5787407179 0.728969593
H 7.2653701493 -0.3334597434 0.0371311069
H 7.9372311887 2.0756868258 -0.4237904732
H 6.9191729915 1.7210618155 -1.8538140555
H 6.2873386809 3.5870919437 0.4010360975
H 5.2285085773 3.2368666366 -0.9999800639
H 4.4347028604 2.3141355638 1.5415263012
H 3.859085277 -3.9828061427 -1.0018491701
H 2.2049089909 -3.4769109795 -0.4645893875
H -3.0083529065 -3.7722065013 -0.3742858515
H -4.7262830363 -3.9645621722 -0.9151294016
H -4.3630973706 -3.5967928653 0.8111621137
H -1.0052153293 -0.136687373 1.8266193432
H -0.2673429872 1.3063825779 1.012293114
H 1.151198995 -1.0756117636 1.386304283
H 0.4060535549 -1.3887053935 -0.2475142452
$end

$rem
JOBTYPE                   OPT
METHOD                    B3LYP
DFT_D                     d3_op
BASIS                     STO-3G
GEOM_OPT_MAX_CYCLES       100
GEOM_OPT_TOL_GRADIENT     300
GEOM_OPT_TOL_DISPLACEMENT 1200
GEOM_OPT_TOL_ENERGY       100
SYMMETRY                  False
THRESH                    12
SCF_CONVERGENCE           8
MAX_SUB_FILE_NUM          128
MEM_STATIC                400
MEM_TOTAL                 4000
$end
--------------------------------------------------------------

   16   -1510.2718415040      4.76E-09 Convergence criterion met
 Total energy in the final basis set = -1510.27184150
   14   -1510.2763354095      8.91E-09 Convergence criterion met
 Total energy in the final basis set = -1510.27633541
   13   -1510.2789110306      8.19E-09 Convergence criterion met
 Total energy in the final basis set = -1510.27891103
   13   -1510.2810988402      8.57E-09 Convergence criterion met
 Total energy in the final basis set = -1510.28109884
   14   -1510.2824423319      5.11E-09 Convergence criterion met
 Total energy in the final basis set = -1510.28244233
   13   -1510.2834517510      5.16E-09 Convergence criterion met
 Total energy in the final basis set = -1510.28345175
   13   -1510.2842498106      7.56E-09 Convergence criterion met
 Total energy in the final basis set = -1510.28424981
   13   -1510.2851860136      6.61E-09 Convergence criterion met
   11   -1510.3011768960      2.34E-09 Convergence criterion met
 Total energy in the final basis set = -1510.30117690
    9   -1510.3011802909      7.36E-09 Convergence criterion met
 Total energy in the final basis set = -1510.30118029
   11   -1510.3011900354      3.20E-09 Convergence criterion met
 Total energy in the final basis set = -1510.30119004
   11   -1510.3011939039      1.89E-09 Convergence criterion met
 Total energy in the final basis set = -1510.30119390
   11   -1510.3011997895      3.37E-09 Convergence criterion met
 Total energy in the final basis set = -1510.30119979
   10   -1510.3012014350      9.54E-09 Convergence criterion met
 Total energy in the final basis set = -1510.30120143

             Standard Nuclear Orientation (Angstroms)
    I     Atom           X                Y                Z
 ----------------------------------------------------------------
    1      O       3.8624494920    -1.4173825327     1.3420503951
    2      C       3.0581677583    -1.5473642133     0.3969915311
    3      C       2.6793446327    -0.5349527537    -0.7292068022
    4      C       1.5503622350     0.4959809996    -0.3048272883
    5      C       1.3052410485     0.5925277215     1.2379343640
    6      O       0.9534623285    -0.7127569653     1.7366194282
    7      C       0.6009151801    -0.6263996394     3.1725768064
    8      C      -0.9621259070    -0.4851462324     3.3195595149
    9      O      -1.4269295768     0.6131700631     2.4376707481
   10      C      -1.8667215140     0.0777683487     1.1846803842
   11      C      -2.1430398531     1.2603518704     0.1992090057
   12      C      -2.2915564612     0.7790488216    -1.3037844427
   13      C      -2.0449570342    -0.7610579507    -1.5138109856
   14      O      -2.8815966914    -1.6320744336    -1.8262958555
   15      O       2.2964921139    -2.7464455302     0.1492577747
   16      O      -0.6331994086    -0.9979555401    -1.3943731034
   17      O      -2.0285279490    -1.1426683989     0.9561199062
   18      C      -0.3260807550    -2.4469287955    -1.3602939318
   19      C      -3.5863728088     1.8849093559     0.4500476446
   20      C      -3.6902644111     3.2452272415    -0.3473676478
   21      C      -3.8782298884     2.7234982243    -1.8207232205
   22      C      -3.7997373481     1.1637617205    -1.6001420360
   23      O      -4.4744107675     0.9660179524    -0.2948806542
   24      H      -1.3456015082     2.0147779614     0.3229612170
   25      H      -1.5927712400     1.3330517522    -1.9564189585
   26      H      -3.8798485872     1.9386885978     1.5164978067
   27      H      -4.5633904985     3.8239061717    -0.0067527954
   28      H      -2.7868648485     3.8644404882    -0.2267508634
   29      H      -4.8630631307     3.0061453666    -2.2254202071
   30      H      -3.0959943112     3.0876326363    -2.5057485316
   31      H      -4.2788198993     0.5378166030    -2.3776980354
   32      O       1.3729356869     1.6146465786     1.9527809644
   33      C       2.4895741045    -3.7204064062     1.2448259899
   34      C       3.8385047450     0.4557232997    -1.1797532050
   35      C       3.4958455583     0.9223351062    -2.6488833894
   36      C       2.2602173765     1.8605037542    -2.3796878236
   37      C       2.1957133302     1.8472402358    -0.8014288257
   38      O       3.6114075466     1.6822667236    -0.3830985833
   39      H       2.3260110352    -1.1261364706    -1.5910995705
   40      H       0.5952122680     0.1906449000    -0.7940083351
   41      H       2.0463487611    -3.3493051630     2.1912934290
   42      H       4.8662477818     0.0749873129    -1.0224462666
   43      H       4.3403162810     1.4850934420    -3.0780509570
   44      H       3.2557313012     0.0785181667    -3.3152546725
   45      H       2.4368687463     2.8812429332    -2.7539249353
   46      H       1.3314727319     1.4749841892    -2.8306816407
   47      H       1.7620146002     2.7502934118    -0.3300254490
   48      H       3.5642649961    -3.9327799966     1.4160494786
   49      H       1.9701877774    -4.6450881891     0.9326992840
   50      H       0.6228292942    -2.5669949020    -0.7872788590
   51      H      -0.1994187719    -2.8397962098    -2.3901985380
   52      H      -1.1449946202    -3.0050228840    -0.8666925954
   53      H      -1.4635797524    -1.4305562348     3.0223190581
   54      H      -1.2296496590    -0.2132227268     4.3605477256
   55      H       1.1028040882     0.2568018085     3.6216483750
   56      H       0.9492073138    -1.5596599566     3.6594569320
 ----------------------------------------------------------------

    9   -1510.3012012039      4.29E-09 Convergence criterion met
 Total energy in the final basis set = -1510.30120120
 Final energy is   -1510.30120120392
 **  OPTIMIZATION CONVERGED  **

                    Orbital Energies (a.u.)
 --------------------------------------------------------------

 Alpha MOs
 -- Occupied --
-18.943 -18.938 -18.934 -18.929 -18.890 -18.888 -18.882 -18.878
-18.878 -18.872 -10.109 -10.102 -10.099 -10.098 -10.076 -10.074
-10.067 -10.064 -10.060 -10.056 -10.054 -10.044 -10.044 -10.039
-10.033 -10.023 -10.022 -10.022 -10.018 -10.017  -1.026  -1.014
 -1.008  -1.003  -0.973  -0.966  -0.947  -0.939  -0.937  -0.932
 -0.767  -0.760  -0.730  -0.723  -0.714  -0.704  -0.698  -0.665
 -0.653  -0.620  -0.599  -0.580  -0.549  -0.545  -0.539  -0.535
 -0.514  -0.507  -0.492  -0.472  -0.469  -0.461  -0.456  -0.446
 -0.433  -0.432  -0.429  -0.420  -0.414  -0.411  -0.407  -0.402
 -0.397  -0.382  -0.376  -0.367  -0.367  -0.357  -0.353  -0.350
 -0.347  -0.341  -0.338  -0.335  -0.329  -0.328  -0.326  -0.315
 -0.308  -0.307  -0.304  -0.303  -0.296  -0.283  -0.282  -0.279
 -0.273  -0.258  -0.252  -0.247  -0.242  -0.237  -0.227  -0.197
 -0.181  -0.172  -0.169  -0.164  -0.160  -0.152  -0.149  -0.147
 -0.140

          Ground-State Mulliken Net Atomic Charges

     Atom                 Charge (a.u.)
  ----------------------------------------
      1 O                    -0.210880
      2 C                     0.215216
      3 C                    -0.081943
      4 C                    -0.096390
      5 C                     0.208151
      6 O                    -0.177610
      7 C                    -0.053764
      8 C                    -0.053942
      9 O                    -0.170567
     10 C                     0.213753
     11 C                    -0.079364
     12 C                    -0.081934
     13 C                     0.221206
     14 O                    -0.208885
     15 O                    -0.171488
     16 O                    -0.182876
     17 O                    -0.206140
     18 C                    -0.142831
     19 C                     0.025922
     20 C                    -0.143701
     21 C                    -0.143889
     22 C                     0.024960
     23 O                    -0.187922
     24 H                     0.088984
     25 H                     0.081983
     26 H                     0.085514
     27 H                     0.079214
     28 H                     0.074961
     29 H                     0.078904
     30 H                     0.073207
     31 H                     0.090501
     32 O                    -0.208933
     33 C                    -0.126740
     34 C                     0.024107
     35 C                    -0.142107
     36 C                    -0.145196
     37 C                     0.021897
     38 O                    -0.188843
     39 H                     0.085032
     40 H                     0.113740
     41 H                     0.086988
     42 H                     0.084264
     43 H                     0.077097
     44 H                     0.072797
     45 H                     0.076274
     46 H                     0.072408
     47 H                     0.085621
     48 H                     0.091580
     49 H                     0.090765
     50 H                     0.109608
     51 H                     0.075909
     52 H                     0.094445
     53 H                     0.100369
     54 H                     0.091025
     55 H                     0.102531
     56 H                     0.087012
  ----------------------------------------
  Sum of atomic charges =    -0.000000

                    Cartesian Multipole Moments
 -----------------------------------------------------------------
    Charge (ESU x 10^10)
                -0.0000
    Dipole Moment (Debye)
         X       0.0600      Y      -0.1632      Z      -0.6095
       Tot       0.6339
    Quadrupole Moments (Debye-Ang)
        XX    -176.7010     XY     -15.2095     YY    -154.5114
        XZ      -8.1953     YZ      -9.6630     ZZ    -149.7271

 Total job time:  231.59s(wall), 11027.36s(cpu)
        *  Thank you very much for using Q-Chem.  Have a nice day.  *
