 Q-Chem 5.0, Q-Chem, Inc., Pleasanton, CA (2017)
 Q-Chem 5.0.1 for Intel X86 EM64T Linux

User input:
--------------------------------------------------------------
$molecule
0  1
O -3.94934 -3.66094 2.70899
C -3.26408 -4.56952 2.26188
C -3.36658 -6.02376 2.66595
C -2.07301 -6.8542 2.63593
C -0.79034 -6.09545 2.37683
O -0.31033 -6.40548 1.13631
C 0.77167 -5.56347 0.72455
C 2.01351 -6.4031 0.44347
O 2.10061 -6.69326 -0.96049
C 3.35107 -6.66768 -1.48473
C 3.55375 -7.69447 -2.57344
C 4.34068 -7.1965 -3.79452
C 5.10203 -5.89976 -3.60605
O 5.98911 -5.48578 -4.33835
O -2.55381 -4.32411 1.12834
O 4.41247 -4.89402 -2.99685
O 4.31686 -6.20346 -0.88438
C 4.83559 -3.58417 -2.8775
C 4.4363 -8.87894 -2.13033
C 4.1391 -10.09534 -3.00527
C 4.74088 -9.64796 -4.32197
C 5.38633 -8.32449 -3.8924
O 5.7335 -8.53107 -2.54473
H 2.5541 -8.09363 -2.86359
H 3.71504 -7.08937 -4.70754
H 4.31698 -9.13694 -1.05508
H 4.74864 -10.93623 -2.60278
H 3.07396 -10.40843 -3.05308
H 5.51236 -10.39046 -4.62433
H 4.01417 -9.49156 -5.14853
H 6.22625 -8.06836 -4.57533
O -0.37981 -5.20567 3.11503
C -2.41178 -3.08212 0.54597
C -3.75396 -6.19568 4.151
C -4.37228 -7.57617 4.37471
C -3.14541 -8.45734 4.26625
C -2.05731 -7.39706 4.07362
O -2.52207 -6.30046 4.82311
H -4.15951 -6.46469 2.02119
H -2.15329 -7.67558 1.88665
H -1.91966 -2.38287 1.25527
H -4.44755 -5.40978 4.5214
H -4.73997 -7.613 5.42524
H -5.20502 -7.83132 3.68455
H -2.99897 -8.97776 5.239
H -3.16392 -9.19968 3.4392
H -1.06235 -7.80314 4.36179
H -3.4043 -2.68129 0.24873
H -1.77823 -3.17642 -0.35971
H 4.07016 -3.0052 -2.32131
H 4.96758 -3.12734 -3.8814
H 5.79301 -3.54389 -2.31543
H 2.86332 -5.76611 0.7775
H 2.04353 -7.32137 1.06879
H 1.07054 -4.80357 1.48065
H 0.49419 -4.96385 -0.16898
$end

$opt
CONSTRAINT
tors           1           2           3           4    -148.060
tors           3           4           5           6    -109.756
tors           4           5           6           7    +170.015
tors           5           6           7           8    +120.879
tors           6           7           8           9     +95.901
tors           7           8           9          10    +141.591
tors           8           9          10          11    +145.186
tors           9          10          11          12    +138.115
tors          11          12          13          14    +164.087
ENDCONSTRAINT
$end

$rem
JOBTYPE                   OPT
METHOD                    B3LYP
DFT_D                     d3_op
BASIS                     STO-3G
GEOM_OPT_MAX_CYCLES       100
GEOM_OPT_TOL_GRADIENT     300
GEOM_OPT_TOL_DISPLACEMENT 1200
GEOM_OPT_TOL_ENERGY       100
SYMMETRY                  False
THRESH                    12
SCF_CONVERGENCE           8
MAX_SUB_FILE_NUM          128
MEM_STATIC                400
MEM_TOTAL                 4000
$end
--------------------------------------------------------------

   15   -1510.1235514861      6.75E-09 Convergence criterion met
 Total energy in the final basis set = -1510.12355149
   14   -1510.1958770601      7.36E-09 Convergence criterion met
 Total energy in the final basis set = -1510.19587706
   14   -1510.2358806363      5.03E-09 Convergence criterion met
 Total energy in the final basis set = -1510.23588064
   14   -1510.2551382532      2.09E-09 Convergence criterion met
 Total energy in the final basis set = -1510.25513825
   13   -1510.2626135293      5.68E-09 Convergence criterion met
 Total energy in the final basis set = -1510.26261353
   13   -1510.2656615838      4.71E-09 Convergence criterion met
 Total energy in the final basis set = -1510.26566158
   13   -1510.2674383258      2.00E-09 Convergence criterion met
 Total energy in the final basis set = -1510.26743833
   12   -1510.2684010992      9.95E-09 Convergence criterion met
   11   -1510.2717188421      8.77E-09 Convergence criterion met
 Total energy in the final basis set = -1510.27171884
   11   -1510.2717839024      9.00E-09 Convergence criterion met
 Total energy in the final basis set = -1510.27178390
   11   -1510.2718429840      6.99E-09 Convergence criterion met
 Total energy in the final basis set = -1510.27184298
   11   -1510.2718697206      2.75E-09 Convergence criterion met
 Total energy in the final basis set = -1510.27186972
   10   -1510.2718940464      7.60E-09 Convergence criterion met
 Total energy in the final basis set = -1510.27189405
   10   -1510.2718974660      8.87E-09 Convergence criterion met
 Total energy in the final basis set = -1510.27189747

             Standard Nuclear Orientation (Angstroms)
    I     Atom           X                Y                Z
 ----------------------------------------------------------------
    1      O       5.8265317576    -2.4796977497    -0.3784574714
    2      C       4.9445304598    -1.6092964019    -0.5365324189
    3      C       5.1728243621    -0.0794237476    -0.8024763513
    4      C       4.0739671670     0.9053517078    -0.2170186204
    5      C       2.9525217153     0.1940020256     0.6150251995
    6      O       1.7322547572     0.2549853927    -0.1421449416
    7      C       0.7012390064    -0.6063935193     0.4835266589
    8      C      -0.5606391115     0.2413023078     0.8796187182
    9      O      -1.5754005046     0.1450096675    -0.1967116555
   10      C      -2.9000375065     0.0697530032     0.3721252769
   11      C      -3.8907168261     0.8321421628    -0.5800769270
   12      C      -5.2805438731     0.1135767542    -0.8082204716
   13      C      -5.3396897327    -1.4146838206    -0.4627213781
   14      O      -6.3707526411    -2.1025018479    -0.3016434084
   15      O       3.5423495121    -1.8930613534    -0.6025984099
   16      O      -4.0200246126    -1.9666713698    -0.5460885955
   17      O      -3.1386214434    -0.3475882936     1.5263355810
   18      C      -4.0447326028    -3.4136016616    -0.2352906312
   19      C      -4.3854396331     2.1301337350     0.2010024602
   20      C      -5.2184358714     3.0468074116    -0.7832257989
   21      C      -6.6022578687     2.2963143237    -0.8104122690
   22      C      -6.2607736862     1.0208261836     0.0524768258
   23      O      -5.3994993716     1.5711159285     1.1244663988
   24      H      -3.3757251732     1.0670441506    -1.5272338598
   25      H      -5.5584490818     0.1876037404    -1.8771053596
   26      H      -3.5918509916     2.6526942044     0.7697928979
   27      H      -5.3143854679     4.0658059698    -0.3763454831
   28      H      -4.7503959937     3.1070563734    -1.7789078336
   29      H      -7.3905263765     2.8890029781    -0.3192019485
   30      H      -6.9327011189     2.0406082277    -1.8298617471
   31      H      -7.1275737323     0.4797764919     0.4796773335
   32      O       3.0503653379    -0.3187595186     1.7517156935
   33      C       3.2895425280    -3.3233186165    -0.3159999980
   34      C       6.4796135750     0.4398538361    -0.0704715598
   35      C       6.9256590016     1.7907817141    -0.7543825997
   36      C       5.8357862934     2.7825786345    -0.2007302312
   37      C       4.9819566924     1.8194015437     0.7158014308
   38      O       5.9802283637     0.8693919611     1.2560614656
   39      H       5.2545203232     0.0517270361    -1.8981662120
   40      H       3.5906500234     1.4840283664    -1.0233836552
   41      H       3.5601530882    -3.5787407179     0.7289695930
   42      H       7.2653701493    -0.3334597434     0.0371311069
   43      H       7.9372311887     2.0756868258    -0.4237904732
   44      H       6.9191729915     1.7210618155    -1.8538140555
   45      H       6.2873386809     3.5870919437     0.4010360975
   46      H       5.2285085773     3.2368666366    -0.9999800639
   47      H       4.4347028604     2.3141355638     1.5415263012
   48      H       3.8590852770    -3.9828061427    -1.0018491701
   49      H       2.2049089909    -3.4769109795    -0.4645893875
   50      H      -3.0083529065    -3.7722065013    -0.3742858515
   51      H      -4.7262830363    -3.9645621722    -0.9151294016
   52      H      -4.3630973706    -3.5967928653     0.8111621137
   53      H      -1.0052153293    -0.1366873730     1.8266193432
   54      H      -0.2673429872     1.3063825779     1.0122931140
   55      H       1.1511989950    -1.0756117636     1.3863042830
   56      H       0.4060535549    -1.3887053935    -0.2475142452
 ----------------------------------------------------------------

    9   -1510.2718979497      4.67E-09 Convergence criterion met
 Total energy in the final basis set = -1510.27189795
 Final energy is   -1510.27189794972
 **  OPTIMIZATION CONVERGED  **

                    Orbital Energies (a.u.)
 --------------------------------------------------------------

 Alpha MOs
 -- Occupied --
-18.942 -18.939 -18.924 -18.916 -18.889 -18.888 -18.881 -18.877
-18.870 -18.868 -10.104 -10.102 -10.097 -10.096 -10.069 -10.067
-10.064 -10.062 -10.062 -10.060 -10.060 -10.059 -10.041 -10.039
-10.037 -10.037 -10.022 -10.021 -10.021 -10.020  -1.018  -1.015
 -1.005  -1.000  -0.971  -0.970  -0.942  -0.939  -0.933  -0.926
 -0.765  -0.764  -0.726  -0.724  -0.712  -0.706  -0.694  -0.666
 -0.663  -0.616  -0.599  -0.577  -0.547  -0.545  -0.539  -0.537
 -0.513  -0.511  -0.485  -0.478  -0.465  -0.456  -0.452  -0.449
 -0.433  -0.431  -0.419  -0.416  -0.415  -0.413  -0.411  -0.406
 -0.391  -0.382  -0.380  -0.372  -0.361  -0.357  -0.354  -0.351
 -0.343  -0.340  -0.335  -0.332  -0.330  -0.328  -0.323  -0.314
 -0.312  -0.307  -0.306  -0.300  -0.294  -0.290  -0.286  -0.274
 -0.272  -0.254  -0.252  -0.245  -0.237  -0.234  -0.234  -0.182
 -0.179  -0.168  -0.163  -0.161  -0.157  -0.151  -0.150  -0.144
 -0.143

          Ground-State Mulliken Net Atomic Charges

     Atom                 Charge (a.u.)
  ----------------------------------------
      1 O                    -0.209593
      2 C                     0.213507
      3 C                    -0.078134
      4 C                    -0.079239
      5 C                     0.215530
      6 O                    -0.174555
      7 C                    -0.055172
      8 C                    -0.054834
      9 O                    -0.182496
     10 C                     0.217787
     11 C                    -0.077512
     12 C                    -0.079727
     13 C                     0.213052
     14 O                    -0.212576
     15 O                    -0.169321
     16 O                    -0.167931
     17 O                    -0.213129
     18 C                    -0.126804
     19 C                     0.025527
     20 C                    -0.144866
     21 C                    -0.142343
     22 C                     0.025264
     23 O                    -0.185937
     24 H                     0.087179
     25 H                     0.084621
     26 H                     0.081703
     27 H                     0.078448
     28 H                     0.073996
     29 H                     0.078785
     30 H                     0.073774
     31 H                     0.089789
     32 O                    -0.219272
     33 C                    -0.127632
     34 C                     0.024088
     35 C                    -0.143669
     36 C                    -0.144319
     37 C                     0.025756
     38 O                    -0.186917
     39 H                     0.085660
     40 H                     0.086351
     41 H                     0.093082
     42 H                     0.090692
     43 H                     0.078585
     44 H                     0.073033
     45 H                     0.078205
     46 H                     0.073234
     47 H                     0.083827
     48 H                     0.092125
     49 H                     0.090319
     50 H                     0.090886
     51 H                     0.090819
     52 H                     0.092717
     53 H                     0.097722
     54 H                     0.082807
     55 H                     0.099630
     56 H                     0.087480
  ----------------------------------------
  Sum of atomic charges =    -0.000000

                    Cartesian Multipole Moments
 -----------------------------------------------------------------
    Charge (ESU x 10^10)
                -0.0000
    Dipole Moment (Debye)
         X      -0.0308      Y       1.3722      Z      -3.7032
       Tot       3.9494
    Quadrupole Moments (Debye-Ang)
        XX    -174.0495     XY       2.2134     YY    -147.3290
        XZ      -0.4519     YZ      -0.8238     ZZ    -164.7731

 Total job time:  54.83s(wall), 2602.33s(cpu)
        *  Thank you very much for using Q-Chem.  Have a nice day.  *
