 Q-Chem 5.0, Q-Chem, Inc., Pleasanton, CA (2017)
 Q-Chem 5.0.1 for Intel X86 EM64T Linux

User input:
--------------------------------------------------------------
$molecule
0  1
O -2.0389039519 1.6546335259 0.7105436704
C -2.4811997441 1.2877938228 -0.4036970053
C -3.8271203398 0.5477604042 -0.7394238066
C -3.7928265073 -0.9896033862 -0.3355874687
C -2.7658100896 -1.2332620665 0.8263629051
O -1.4660008246 -1.2143038397 0.2380616871
C -0.4163205769 -1.4222159392 1.2588492936
C 0.5157978535 -2.5993127742 0.8152977395
O 1.3784769575 -2.0465250806 -0.2635441953
C 2.4634428712 -1.3138329629 0.3192034354
C 3.3426285574 -0.7517707224 -0.8477171528
C 3.7786135198 0.7501134578 -0.6113127011
C 2.9259844318 1.6464754001 0.3618267217
O 3.2588213107 2.7941281071 0.7317332477
O -1.793720074 1.435593609 -1.6469279624
O 1.6163219626 1.0940132099 0.6000940104
O 2.7021711334 -1.2644835388 1.5452345815
C 0.8643786006 1.9417000906 1.5683836227
C 4.7659294952 -1.4589148998 -0.7660347237
C 5.6607937594 -1.0054689678 -1.9890897552
C 6.1373039284 0.418797784 -1.5147588925
C 5.3034520462 0.5760489801 -0.1850968109
O 5.3731115771 -0.7805672107 0.4028721147
H 2.8264854145 -0.9025183459 -1.8111617749
H 3.7435276165 1.2861733636 -1.5794616444
H 4.7205033576 -2.5524938532 -0.5977877797
H 6.5080113759 -1.6955572962 -2.1266684109
H 5.0811736233 -0.9680738985 -2.925587755
H 7.2162523957 0.426046942 -1.291391116
H 5.9206289043 1.2123557798 -2.2474372525
H 5.6716580807 1.3375821655 0.5296829067
O -2.998170236 -1.4334514447 2.0372576316
C -0.4549701502 2.0471266306 -1.4742726822
C -5.1502197324 1.0299019499 -0.0010149741
C -6.3516132845 0.6600088077 -0.9568661582
C -6.3385602842 -0.9107898401 -0.8436578947
C -5.2464428792 -1.1373578174 0.2762835119
O -5.329632192 0.0812825901 1.1203516322
H -3.9506491637 0.6374336611 -1.8332239187
H -3.5727621969 -1.6467474604 -1.194989488
H 0.2392741499 1.4003630891 -0.8907723075
H -5.1302208088 2.0731433819 0.3693298005
H -7.291850365 1.0822013427 -0.5670545028
H -6.2012976521 1.0178665041 -1.9878688052
H -7.3147370635 -1.3046969981 -0.5200283265
H -6.0583937932 -1.3988358359 -1.7911564824
H -5.3834441934 -2.0415606298 0.9002347058
H -0.5238389947 3.0347702643 -0.9751874799
H -0.0585747168 2.1834917224 -2.4972004495
H -0.2160762457 1.8756255034 1.3005168008
H 1.2265209076 2.9864047865 1.510224063
H 1.0278258454 1.5606735504 2.5959925493
H 1.1279156744 -2.9474452929 1.6743263812
H -0.0613727849 -3.4359896369 0.375428189
H -0.9131729294 -1.6287075529 2.2328955336
H 0.1921404469 -0.4996630942 1.3397249307
$end

$rem
JOBTYPE                   OPT
METHOD                    B3LYP
DFT_D                     d3_op
BASIS                     STO-3G
GEOM_OPT_MAX_CYCLES       100
GEOM_OPT_TOL_GRADIENT     300
GEOM_OPT_TOL_DISPLACEMENT 1200
GEOM_OPT_TOL_ENERGY       100
SYMMETRY                  False
THRESH                    12
SCF_CONVERGENCE           8
MAX_SUB_FILE_NUM          128
MEM_STATIC                400
MEM_TOTAL                 4000
$end
--------------------------------------------------------------

   16   -1510.2843454821      5.62E-09 Convergence criterion met
 Total energy in the final basis set = -1510.28434548
   15   -1510.2507249152      4.05E-09 Convergence criterion met
 Total energy in the final basis set = -1510.25072492
   15   -1510.2749767232      4.32E-09 Convergence criterion met
 Total energy in the final basis set = -1510.27497672
   15   -1510.2820003537      4.44E-09 Convergence criterion met
 Total energy in the final basis set = -1510.28200035
   15   -1510.2815496575      4.98E-09 Convergence criterion met
 Total energy in the final basis set = -1510.28154966
   15   -1510.2882496369      3.04E-09 Convergence criterion met
 Total energy in the final basis set = -1510.28824964
   15   -1510.2897193181      2.22E-09 Convergence criterion met
 Total energy in the final basis set = -1510.28971932
   13   -1510.2920501353      8.22E-09 Convergence criterion met
   11   -1510.2991907698      4.67E-09 Convergence criterion met
 Total energy in the final basis set = -1510.29919077
   10   -1510.2991949844      7.52E-09 Convergence criterion met
 Total energy in the final basis set = -1510.29919498
   11   -1510.2991925661      7.54E-09 Convergence criterion met
 Total energy in the final basis set = -1510.29919257
   12   -1510.2991743617      3.10E-09 Convergence criterion met
 Total energy in the final basis set = -1510.29917436
   11   -1510.2991721781      4.94E-09 Convergence criterion met
 Total energy in the final basis set = -1510.29917218
   10   -1510.2991723284      6.46E-09 Convergence criterion met
 Total energy in the final basis set = -1510.29917233

             Standard Nuclear Orientation (Angstroms)
    I     Atom           X                Y                Z
 ----------------------------------------------------------------
    1      O      -1.7766141794     1.0240193148     0.9083808928
    2      C      -2.0607462558     1.2071947918    -0.2992891084
    3      C      -3.2528744977     0.5509548992    -1.0730743872
    4      C      -3.6784779078    -0.8512394962    -0.4749880508
    5      C      -2.7498478093    -1.3709999195     0.6826533326
    6      O      -1.4818475442    -1.7067739295     0.0999849578
    7      C      -0.5574193691    -2.2102432510     1.1420988432
    8      C       0.5776529819    -3.0135149851     0.4228252783
    9      O       1.3542141370    -2.1589367239    -0.5093542473
   10      C       2.3320735540    -1.4011837242     0.2106505525
   11      C       3.1088743097    -0.4972548905    -0.8031631343
   12      C       3.4731185741     0.9213575354    -0.1953717320
   13      C       2.8726358176     1.1590442760     1.2363062985
   14      O       3.4787246920     1.4092829469     2.2968665957
   15      O      -1.3800554961     2.0847321659    -1.1862024121
   16      O       1.4422459902     1.0877167717     1.1171941731
   17      O       2.5265236832    -1.4919275052     1.4436098371
   18      C       0.7781592391     1.2272148343     2.4342569709
   19      C       4.5679479478    -1.0767116023    -1.0686855611
   20      C       5.1961914927    -0.3067176705    -2.2979295486
   21      C       5.5865541723     1.0666674817    -1.6338080136
   22      C       5.0543913139     0.8515822293    -0.1643977349
   23      O       5.3359578988    -0.5807536262     0.0942062121
   24      H       2.5194710279    -0.4183245462    -1.7332337418
   25      H       3.1122879046     1.7288659989    -0.8584164072
   26      H       4.6195932393    -2.1813522300    -1.1283651939
   27      H       6.0819053135    -0.8414828754    -2.6759124122
   28      H       4.4744629091    -0.1906935299    -3.1220433835
   29      H       6.6781269703     1.2151719669    -1.6294050347
   30      H       5.1137000345     1.9302055162    -2.1286612634
   31      H       5.5171646244     1.4827615749     0.6188567555
   32      O      -3.0582968775    -1.5755904364     1.8753106367
   33      C      -0.2722484003     2.7933336356    -0.4967101211
   34      C      -4.5890083493     1.3858094488    -0.8319237685
   35      C      -5.6880858304     0.8833136577    -1.8501990161
   36      C      -6.1080592012    -0.4858334384    -1.1976524805
   37      C      -5.1402564030    -0.5352273227     0.0479330136
   38      O      -5.0599381768     0.8817223090     0.4763746908
   39      H      -2.9956814655     0.4914670772    -2.1449047005
   40      H      -3.6889127838    -1.6190691114    -1.2701131354
   41      H       0.4360956866     2.0850457635     0.0035907373
   42      H      -4.4436294139     2.4832066730    -0.7999489936
   43      H      -6.5309604122     1.5917685502    -1.8847542351
   44      H      -5.2852811440     0.7644932944    -2.8688694964
   45      H      -7.1593705008    -0.4694107097    -0.8688264911
   46      H      -5.9614120727    -1.3434786221    -1.8732825469
   47      H      -5.4649967238    -1.1743055199     0.8918088860
   48      H      -0.6699588899     3.5000704106     0.2597185419
   49      H       0.2478669643     3.3652149005    -1.2864668664
   50      H      -0.3056239283     1.2044239005     2.1907531631
   51      H       1.0514640882     2.1821932776     2.9257619546
   52      H       1.0532426921     0.3875984337     3.1032512677
   53      H       1.2446543224    -3.4570540623     1.1934420851
   54      H       0.1381478199    -3.8167223430    -0.2019341627
   55      H      -1.0957777507    -2.8661989500     1.8606832509
   56      H      -0.1191163769    -1.3620340816     1.7104361444
 ----------------------------------------------------------------

    9   -1510.2991732710      8.98E-09 Convergence criterion met
 Total energy in the final basis set = -1510.29917327
 Final energy is   -1510.29917327104
 **  OPTIMIZATION CONVERGED  **

                    Orbital Energies (a.u.)
 --------------------------------------------------------------

 Alpha MOs
 -- Occupied --
-18.938 -18.938 -18.936 -18.924 -18.889 -18.887 -18.881 -18.879
-18.876 -18.869 -10.104 -10.102 -10.102 -10.095 -10.076 -10.068
-10.063 -10.061 -10.059 -10.057 -10.048 -10.046 -10.040 -10.039
-10.038 -10.035 -10.023 -10.021 -10.021 -10.020  -1.018  -1.014
 -1.009  -1.002  -0.972  -0.970  -0.941  -0.939  -0.938  -0.929
 -0.766  -0.763  -0.729  -0.723  -0.715  -0.706  -0.698  -0.659
 -0.656  -0.617  -0.597  -0.581  -0.548  -0.545  -0.539  -0.537
 -0.513  -0.510  -0.482  -0.478  -0.459  -0.455  -0.453  -0.452
 -0.438  -0.434  -0.431  -0.420  -0.412  -0.408  -0.405  -0.397
 -0.392  -0.380  -0.376  -0.364  -0.362  -0.357  -0.352  -0.348
 -0.346  -0.342  -0.335  -0.333  -0.331  -0.328  -0.325  -0.313
 -0.311  -0.307  -0.305  -0.298  -0.294  -0.287  -0.282  -0.278
 -0.271  -0.263  -0.255  -0.244  -0.242  -0.236  -0.234  -0.186
 -0.181  -0.173  -0.168  -0.158  -0.157  -0.152  -0.148  -0.146
 -0.144

          Ground-State Mulliken Net Atomic Charges

     Atom                 Charge (a.u.)
  ----------------------------------------
      1 O                    -0.215804
      2 C                     0.219047
      3 C                    -0.077983
      4 C                    -0.079681
      5 C                     0.215043
      6 O                    -0.178767
      7 C                    -0.051235
      8 C                    -0.048440
      9 O                    -0.168200
     10 C                     0.211915
     11 C                    -0.078488
     12 C                    -0.079795
     13 C                     0.218597
     14 O                    -0.202218
     15 O                    -0.168959
     16 O                    -0.179129
     17 O                    -0.215029
     18 C                    -0.142264
     19 C                     0.025627
     20 C                    -0.143941
     21 C                    -0.143616
     22 C                     0.024644
     23 O                    -0.186568
     24 H                     0.087990
     25 H                     0.083345
     26 H                     0.083020
     27 H                     0.078574
     28 H                     0.073995
     29 H                     0.078852
     30 H                     0.072987
     31 H                     0.091040
     32 O                    -0.213062
     33 C                    -0.149003
     34 C                     0.025411
     35 C                    -0.143854
     36 C                    -0.143833
     37 C                     0.024633
     38 O                    -0.187931
     39 H                     0.087081
     40 H                     0.083501
     41 H                     0.113267
     42 H                     0.082704
     43 H                     0.078161
     44 H                     0.073781
     45 H                     0.078158
     46 H                     0.073006
     47 H                     0.090155
     48 H                     0.078826
     49 H                     0.080799
     50 H                     0.116504
     51 H                     0.084393
     52 H                     0.088840
     53 H                     0.095511
     54 H                     0.091527
     55 H                     0.093580
     56 H                     0.093285
  ----------------------------------------
  Sum of atomic charges =    -0.000000

                    Cartesian Multipole Moments
 -----------------------------------------------------------------
    Charge (ESU x 10^10)
                -0.0000
    Dipole Moment (Debye)
         X      -0.5960      Y       0.0514      Z      -4.4898
       Tot       4.5295
    Quadrupole Moments (Debye-Ang)
        XX    -163.1820     XY       4.8906     YY    -149.7755
        XZ      -1.9261     YZ      -0.7273     ZZ    -165.0909

 Total job time:  114.48s(wall), 5461.26s(cpu)
        *  Thank you very much for using Q-Chem.  Have a nice day.  *
