 Q-Chem 5.0, Q-Chem, Inc., Pleasanton, CA (2017)
 Q-Chem 5.0.1 for Intel X86 EM64T Linux

User input:
--------------------------------------------------------------
$molecule
0  1
O -3.94934 -3.66094 2.70899
C -3.26408 -4.56952 2.26188
C -3.36658 -6.02376 2.66595
C -2.79301 -6.41386 4.03806
C -2.34134 -5.27724 4.9281
O -1.13244 -4.80607 4.5015
C -0.64335 -3.7154 5.2892
C 0.77179 -4.01104 5.77513
O 1.70384 -3.85117 4.69411
C 2.08283 -2.57512 4.43485
C 3.06185 -2.47329 3.28952
C 2.78153 -1.33498 2.29758
C 1.81155 -0.27072 2.77002
O 1.5698 0.77673 2.1878
O -2.41037 -4.29564 1.24022
O 0.75698 -0.64652 3.54535
O 2.02051 -1.6988 5.29398
C -0.29962 0.1616 3.92808
C 4.4896 -2.11079 3.74425
C 5.49651 -2.56901 2.69059
C 5.20066 -1.5886 1.57381
C 4.17699 -0.68255 2.26874
O 4.55468 -0.71209 3.62386
H 3.0971 -3.46169 2.77517
H 2.43753 -1.68793 1.30078
H 4.7527 -2.53093 4.7398
H 6.51003 -2.34977 3.09713
H 5.44233 -3.64189 2.40626
H 6.13454 -1.02999 1.3419
H 4.78107 -2.0357 0.64657
H 4.16571 0.32215 1.79086
O -2.93582 -4.9242 5.94172
C -2.19025 -3.03381 0.72849
C -4.82626 -6.48234 2.80088
C -4.91506 -8.00086 2.65595
C -4.31619 -8.44322 3.97355
C -4.05505 -7.08488 4.63289
O -5.10969 -6.28013 4.16243
H -2.85268 -6.60894 1.86928
H -1.96184 -7.15299 3.98838
H -1.78952 -2.3651 1.52073
H -5.50715 -5.98412 2.07604
H -5.993 -8.27957 2.64524
H -4.41893 -8.40626 1.74786
H -5.09736 -8.99185 4.54592
H -3.39881 -9.06583 3.89606
H -3.99268 -7.21377 5.73598
H -3.13572 -2.61359 0.32375
H -1.4475 -3.09874 -0.09282
H -0.99022 -0.41597 4.57465
H -0.86106 0.5122 3.03604
H 0.0782 1.0335 4.50365
H 1.0432 -3.3567 6.63415
H 0.8091 -5.04998 6.16629
H -1.23599 -3.5007 6.20469
H -0.65472 -2.78123 4.69369
$end

$opt
CONSTRAINT
tors           1           2           3           4     -74.556
tors           3           4           5           6     -77.128
tors           4           5           6           7    +179.402
tors           5           6           7           8    +126.992
tors           6           7           8           9     +75.226
tors           7           8           9          10     +81.155
tors           8           9          10          11    -180.000
tors           9          10          11          12    +136.490
tors          11          12          13          14    +171.949
ENDCONSTRAINT
$end

$rem
JOBTYPE                   OPT
METHOD                    B3LYP
DFT_D                     d3_op
BASIS                     STO-3G
GEOM_OPT_MAX_CYCLES       100
GEOM_OPT_TOL_GRADIENT     300
GEOM_OPT_TOL_DISPLACEMENT 1200
GEOM_OPT_TOL_ENERGY       100
SYMMETRY                  False
THRESH                    12
SCF_CONVERGENCE           8
MAX_SUB_FILE_NUM          128
MEM_STATIC                400
MEM_TOTAL                 4000
$end
--------------------------------------------------------------

   15   -1510.1267765881      6.23E-09 Convergence criterion met
 Total energy in the final basis set = -1510.12677659
   14   -1510.2005385080      6.41E-09 Convergence criterion met
 Total energy in the final basis set = -1510.20053851
   14   -1510.2410536615      8.24E-09 Convergence criterion met
 Total energy in the final basis set = -1510.24105366
   14   -1510.2601089668      9.89E-09 Convergence criterion met
 Total energy in the final basis set = -1510.26010897
   14   -1510.2699300735      5.91E-09 Convergence criterion met
 Total energy in the final basis set = -1510.26993007
   13   -1510.2738412294      7.94E-09 Convergence criterion met
 Total energy in the final basis set = -1510.27384123
   13   -1510.2759936671      2.58E-09 Convergence criterion met
 Total energy in the final basis set = -1510.27599367
   13   -1510.2772544322      4.10E-09 Convergence criterion met
   11   -1510.2846069581      8.69E-09 Convergence criterion met
 Total energy in the final basis set = -1510.28460696
   11   -1510.2846407871      6.85E-09 Convergence criterion met
 Total energy in the final basis set = -1510.28464079
   11   -1510.2846526315      3.88E-09 Convergence criterion met
 Total energy in the final basis set = -1510.28465263
    9   -1510.2846577159      9.06E-09 Convergence criterion met
 Total energy in the final basis set = -1510.28465772
    9   -1510.2846601659      4.01E-09 Convergence criterion met
 Total energy in the final basis set = -1510.28466017
    9   -1510.2846618238      8.92E-09 Convergence criterion met
 Total energy in the final basis set = -1510.28466182

             Standard Nuclear Orientation (Angstroms)
    I     Atom           X                Y                Z
 ----------------------------------------------------------------
    1      O      -2.0389039519     1.6546335259     0.7105436704
    2      C      -2.4811997441     1.2877938228    -0.4036970053
    3      C      -3.8271203398     0.5477604042    -0.7394238066
    4      C      -3.7928265073    -0.9896033862    -0.3355874687
    5      C      -2.7658100896    -1.2332620665     0.8263629051
    6      O      -1.4660008246    -1.2143038397     0.2380616871
    7      C      -0.4163205769    -1.4222159392     1.2588492936
    8      C       0.5157978535    -2.5993127742     0.8152977395
    9      O       1.3784769575    -2.0465250806    -0.2635441953
   10      C       2.4634428712    -1.3138329629     0.3192034354
   11      C       3.3426285574    -0.7517707224    -0.8477171528
   12      C       3.7786135198     0.7501134578    -0.6113127011
   13      C       2.9259844318     1.6464754001     0.3618267217
   14      O       3.2588213107     2.7941281071     0.7317332477
   15      O      -1.7937200740     1.4355936090    -1.6469279624
   16      O       1.6163219626     1.0940132099     0.6000940104
   17      O       2.7021711334    -1.2644835388     1.5452345815
   18      C       0.8643786006     1.9417000906     1.5683836227
   19      C       4.7659294952    -1.4589148998    -0.7660347237
   20      C       5.6607937594    -1.0054689678    -1.9890897552
   21      C       6.1373039284     0.4187977840    -1.5147588925
   22      C       5.3034520462     0.5760489801    -0.1850968109
   23      O       5.3731115771    -0.7805672107     0.4028721147
   24      H       2.8264854145    -0.9025183459    -1.8111617749
   25      H       3.7435276165     1.2861733636    -1.5794616444
   26      H       4.7205033576    -2.5524938532    -0.5977877797
   27      H       6.5080113759    -1.6955572962    -2.1266684109
   28      H       5.0811736233    -0.9680738985    -2.9255877550
   29      H       7.2162523957     0.4260469420    -1.2913911160
   30      H       5.9206289043     1.2123557798    -2.2474372525
   31      H       5.6716580807     1.3375821655     0.5296829067
   32      O      -2.9981702360    -1.4334514447     2.0372576316
   33      C      -0.4549701502     2.0471266306    -1.4742726822
   34      C      -5.1502197324     1.0299019499    -0.0010149741
   35      C      -6.3516132845     0.6600088077    -0.9568661582
   36      C      -6.3385602842    -0.9107898401    -0.8436578947
   37      C      -5.2464428792    -1.1373578174     0.2762835119
   38      O      -5.3296321920     0.0812825901     1.1203516322
   39      H      -3.9506491637     0.6374336611    -1.8332239187
   40      H      -3.5727621969    -1.6467474604    -1.1949894880
   41      H       0.2392741499     1.4003630891    -0.8907723075
   42      H      -5.1302208088     2.0731433819     0.3693298005
   43      H      -7.2918503650     1.0822013427    -0.5670545028
   44      H      -6.2012976521     1.0178665041    -1.9878688052
   45      H      -7.3147370635    -1.3046969981    -0.5200283265
   46      H      -6.0583937932    -1.3988358359    -1.7911564824
   47      H      -5.3834441934    -2.0415606298     0.9002347058
   48      H      -0.5238389947     3.0347702643    -0.9751874799
   49      H      -0.0585747168     2.1834917224    -2.4972004495
   50      H      -0.2160762457     1.8756255034     1.3005168008
   51      H       1.2265209076     2.9864047865     1.5102240630
   52      H       1.0278258454     1.5606735504     2.5959925493
   53      H       1.1279156744    -2.9474452929     1.6743263812
   54      H      -0.0613727849    -3.4359896369     0.3754281890
   55      H      -0.9131729294    -1.6287075529     2.2328955336
   56      H       0.1921404469    -0.4996630942     1.3397249307
 ----------------------------------------------------------------

    9   -1510.2846619388      1.86E-09 Convergence criterion met
 Total energy in the final basis set = -1510.28466194
 Final energy is   -1510.28466193883
 **  OPTIMIZATION CONVERGED  **

                    Orbital Energies (a.u.)
 --------------------------------------------------------------

 Alpha MOs
 -- Occupied --
-18.940 -18.938 -18.930 -18.926 -18.890 -18.888 -18.883 -18.880
-18.879 -18.865 -10.107 -10.104 -10.099 -10.095 -10.070 -10.063
-10.062 -10.061 -10.060 -10.060 -10.059 -10.044 -10.041 -10.041
-10.039 -10.038 -10.023 -10.022 -10.021 -10.021  -1.018  -1.014
 -1.011  -1.004  -0.972  -0.971  -0.941  -0.939  -0.938  -0.928
 -0.766  -0.765  -0.729  -0.724  -0.711  -0.706  -0.696  -0.665
 -0.654  -0.618  -0.598  -0.582  -0.550  -0.546  -0.540  -0.537
 -0.513  -0.511  -0.485  -0.473  -0.463  -0.458  -0.454  -0.447
 -0.438  -0.434  -0.431  -0.422  -0.417  -0.410  -0.407  -0.394
 -0.387  -0.381  -0.379  -0.365  -0.363  -0.358  -0.356  -0.351
 -0.341  -0.340  -0.337  -0.332  -0.332  -0.329  -0.325  -0.315
 -0.309  -0.308  -0.307  -0.302  -0.295  -0.289  -0.285  -0.276
 -0.272  -0.260  -0.253  -0.247  -0.238  -0.235  -0.234  -0.188
 -0.180  -0.174  -0.164  -0.163  -0.159  -0.155  -0.151  -0.144
 -0.142

          Ground-State Mulliken Net Atomic Charges

     Atom                 Charge (a.u.)
  ----------------------------------------
      1 O                    -0.216935
      2 C                     0.215795
      3 C                    -0.080024
      4 C                    -0.076931
      5 C                     0.213256
      6 O                    -0.179004
      7 C                    -0.059494
      8 C                    -0.051372
      9 O                    -0.173811
     10 C                     0.212846
     11 C                    -0.079492
     12 C                    -0.079086
     13 C                     0.211539
     14 O                    -0.211211
     15 O                    -0.166197
     16 O                    -0.176103
     17 O                    -0.217206
     18 C                    -0.151484
     19 C                     0.025850
     20 C                    -0.145212
     21 C                    -0.141935
     22 C                     0.026195
     23 O                    -0.185267
     24 H                     0.086878
     25 H                     0.083734
     26 H                     0.083045
     27 H                     0.078739
     28 H                     0.073637
     29 H                     0.078998
     30 H                     0.073818
     31 H                     0.089807
     32 O                    -0.206027
     33 C                    -0.138304
     34 C                     0.024242
     35 C                    -0.141519
     36 C                    -0.145615
     37 C                     0.025386
     38 O                    -0.184707
     39 H                     0.086541
     40 H                     0.088173
     41 H                     0.101940
     42 H                     0.085771
     43 H                     0.078592
     44 H                     0.073610
     45 H                     0.078751
     46 H                     0.073364
     47 H                     0.087391
     48 H                     0.084778
     49 H                     0.086866
     50 H                     0.112745
     51 H                     0.093857
     52 H                     0.084375
     53 H                     0.097626
     54 H                     0.091023
     55 H                     0.099147
     56 H                     0.098622
  ----------------------------------------
  Sum of atomic charges =    -0.000000

                    Cartesian Multipole Moments
 -----------------------------------------------------------------
    Charge (ESU x 10^10)
                -0.0000
    Dipole Moment (Debye)
         X      -0.6100      Y      -0.6422      Z      -4.5816
       Tot       4.6665
    Quadrupole Moments (Debye-Ang)
        XX    -155.4288     XY      -0.1894     YY    -156.1297
        XZ      -0.1652     YZ      -1.1470     ZZ    -164.5716

 Total job time:  79.93s(wall), 3807.49s(cpu)
        *  Thank you very much for using Q-Chem.  Have a nice day.  *
