 Q-Chem 5.0, Q-Chem, Inc., Pleasanton, CA (2017)
 Q-Chem 5.0.1 for Intel X86 EM64T Linux

User input:
--------------------------------------------------------------
$molecule
0  1
O -4.6849634168 2.515537043 0.9176938603
C -4.0374188032 1.7659386481 0.1561891991
C -4.6046521229 0.6091767781 -0.7401027519
C -3.9568943243 -0.8061117712 -0.4227396296
C -2.7449604593 -0.7374458878 0.5689960367
O -1.5654321334 -1.0786983869 -0.1706435297
C -0.3660145874 -1.0223307041 0.6996729405
C 0.669369983 -2.0946432634 0.1856883553
O 1.7954189626 -1.495904745 -0.5645473028
C 2.8532221013 -1.1253528296 0.3398126317
C 4.1908895937 -1.0208803709 -0.480673332
C 4.6137591722 0.4169268958 -1.0029465833
C 3.6755294235 1.6283939536 -0.6679657669
O 3.9684544911 2.835366938 -0.8202979325
O -2.6145362724 1.8247465689 -0.0198743398
O 2.4022495624 1.1725839377 -0.2068259011
O 2.7269091023 -1.0958263536 1.5827584104
C 1.5152620397 2.3139024026 0.1126077046
C 5.4320995188 -1.3697722867 0.4488223365
C 6.6569438407 -1.7445568405 -0.4739450356
C 7.0778530733 -0.3257876233 -1.009585343
C 6.0223206365 0.5984838882 -0.2856440487
O 5.8159192274 -0.0598667643 1.0235350112
H 4.1110110759 -1.7205649585 -1.3310934061
H 4.7367931022 0.4039813569 -2.1021900388
H 5.2023952466 -2.0906491216 1.2569487856
H 7.4603545402 -2.205361505 0.1223974176
H 6.3726006746 -2.4385102755 -1.2810655202
H 8.1000701081 -0.0607754866 -0.6957768018
H 7.0140687777 -0.2471911435 -2.1067729733
H 6.3235170954 1.6560698064 -0.1533547088
O -2.7653637224 -0.488472713 1.7942646414
C -2.0239616994 2.8107038115 0.9149881892
C -6.1170487193 0.3380509238 -0.3572347732
C -6.7607565978 -0.6207470593 -1.434400757
C -6.1367415467 -2.0067049029 -1.0241435066
C -5.2115883308 -1.5748953895 0.1816133777
O -5.9956410887 -0.5132200086 0.8501229713
H -4.4723527457 0.8773256114 -1.8043791521
H -3.5991463443 -1.2861686151 -1.3503646163
H -1.3813408248 2.2752662278 1.6417151131
H -6.6887304456 1.2570455205 -0.1231204654
H -7.8581122497 -0.626292846 -1.3395447859
H -6.4964812908 -0.323476856 -2.4619912894
H -6.9111128848 -2.7113866397 -0.6810680872
H -5.5662108076 -2.476781826 -1.8409608186
H -4.9584390962 -2.3792053256 0.8991635103
H -2.8362494407 3.341468043 1.4515192221
H -1.4119131163 3.5292231159 0.336619138
H 1.2580262701 2.279230215 1.1894487838
H 0.5921252578 2.2233812407 -0.4920715096
H 2.04243992 3.2604856986 -0.1246587435
H 1.0504610969 -2.6797484529 1.0489419846
H 0.1553982372 -2.772727329 -0.5267796121
H -0.6643468283 -1.2106371755 1.7533823516
H 0.0886524117 -0.0101523204 0.6442621585
$end

$rem
JOBTYPE                   OPT
METHOD                    B3LYP
DFT_D                     d3_op
BASIS                     STO-3G
GEOM_OPT_MAX_CYCLES       100
GEOM_OPT_TOL_GRADIENT     300
GEOM_OPT_TOL_DISPLACEMENT 1200
GEOM_OPT_TOL_ENERGY       100
SYMMETRY                  False
THRESH                    12
SCF_CONVERGENCE           8
MAX_SUB_FILE_NUM          128
MEM_STATIC                400
MEM_TOTAL                 4000
$end
--------------------------------------------------------------

   16   -1510.2787553960      5.42E-09 Convergence criterion met
 Total energy in the final basis set = -1510.27875540
   14   -1510.2769525827      2.73E-09 Convergence criterion met
 Total energy in the final basis set = -1510.27695258
   14   -1510.2794948167      4.96E-09 Convergence criterion met
 Total energy in the final basis set = -1510.27949482
   13   -1510.2776899727      9.51E-09 Convergence criterion met
 Total energy in the final basis set = -1510.27768997
   13   -1510.2809173046      8.01E-09 Convergence criterion met
 Total energy in the final basis set = -1510.28091730
   14   -1510.2823067032      3.79E-09 Convergence criterion met
 Total energy in the final basis set = -1510.28230670
   14   -1510.2831919139      5.41E-09 Convergence criterion met
 Total energy in the final basis set = -1510.28319191
   13   -1510.2841334252      9.86E-09 Convergence criterion met
   11   -1510.3011831287      5.46E-09 Convergence criterion met
 Total energy in the final basis set = -1510.30118313
   12   -1510.3011966844      3.57E-09 Convergence criterion met
 Total energy in the final basis set = -1510.30119668
   13   -1510.3006893236      3.23E-09 Convergence criterion met
 Total energy in the final basis set = -1510.30068932
   13   -1510.3012422743      2.76E-09 Convergence criterion met
 Total energy in the final basis set = -1510.30124227
   12   -1510.3012506482      2.71E-09 Convergence criterion met
 Total energy in the final basis set = -1510.30125065
   10   -1510.3012521305      7.96E-09 Convergence criterion met
 Total energy in the final basis set = -1510.30125213

             Standard Nuclear Orientation (Angstroms)
    I     Atom           X                Y                Z
 ----------------------------------------------------------------
    1      O      -3.8887073640     0.4930663350     1.7606372708
    2      C      -3.0619301251     1.0123923640     0.9818308867
    3      C      -2.6979420304     0.6037412623    -0.4814523853
    4      C      -1.5051766089    -0.4389044736    -0.5910931835
    5      C      -1.2040965032    -1.2150872437     0.7352308505
    6      O      -1.0601695210    -0.2697265376     1.8099929861
    7      C      -0.7233312874    -0.9657939788     3.0721389439
    8      C       0.8351677391    -0.9231636624     3.2933345580
    9      O       1.5059126022    -1.4926934280     2.0999674150
   10      C       1.8015071756    -0.4531644624     1.1618453576
   11      C       2.2862413837    -1.1070009126    -0.1738365111
   12      C       2.4721655908    -0.0473759358    -1.3368179387
   13      C       2.0371843760     1.4146952998    -0.9528658356
   14      O       2.7721586504     2.4010290602    -0.7421993992
   15      O      -2.2915547415     2.1926286166     1.2910903200
   16      O       0.6004000450     1.4743602999    -1.0234626813
   17      O       1.7041591005     0.7709873288     1.4061481511
   18      C       0.0893386183     2.7683063934    -0.5103178712
   19      C       3.7713986959    -1.6581429737    -0.0359427019
   20      C       4.0883162707    -2.5603578199    -1.2938022018
   21      C       4.3143880624    -1.4690273953    -2.4054244219
   22      C       4.0344663403    -0.1468569388    -1.5906593384
   23      O       4.5914377018    -0.4452980859    -0.2500469114
   24      H       1.5774817284    -1.9095894408    -0.4475256445
   25      H       1.8955445786    -0.3515300009    -2.2287770439
   26      H       3.9956605170    -2.1183261755     0.9460108770
   27      H       4.9976820641    -3.1573925608    -1.1198246638
   28      H       3.2570558993    -3.2441174253    -1.5293305708
   29      H       5.3515862058    -1.4804481178    -2.7766736056
   30      H       3.6303996419    -1.5822945033    -3.2614361743
   31      H       4.4862987284     0.7785947718    -1.9969915847
   32      O      -1.0833160126    -2.4506352468     0.8771288413
   33      C      -2.4774714029     2.5815841184     2.7054612045
   34      C      -3.8402106937    -0.1609487204    -1.2824894898
   35      C      -3.5735106922     0.1005108512    -2.8162722280
   36      C      -2.2739913431    -0.7610461530    -3.0393248520
   37      C      -2.1147417151    -1.4576718952    -1.6305361490
   38      O      -3.5079967980    -1.5962327933    -1.1343419802
   39      H      -2.4193723295     1.5296109264    -1.0126179846
   40      H      -0.5797571847     0.1014435632    -0.9098487770
   41      H      -1.5292612110     2.4225383473     3.2567864637
   42      H      -4.8708488645     0.0374745527    -0.9297676765
   43      H      -4.4134958686    -0.2784754552    -3.4203761006
   44      H      -3.4250784524     1.1679911763    -3.0444176325
   45      H      -2.4164885072    -1.5121286253    -3.8321006861
   46      H      -1.3958873892    -0.1444197640    -3.2904607275
   47      H      -1.6123562952    -2.4443825348    -1.6362497544
   48      H      -3.2827334716     1.9622293710     3.1501867836
   49      H      -2.7503374230     3.6538445149     2.7462654959
   50      H       0.9233396350     3.3445085733    -0.0654510435
   51      H      -0.7041835173     2.5591643612     0.2451332259
   52      H      -0.3424176437     3.3458799533    -1.3523571377
   53      H       1.1713284556     0.1237903802     3.4488857066
   54      H       1.1171673956    -1.5537560838     4.1604986974
   55      H      -1.0654175877    -2.0209247300     3.0140747817
   56      H      -1.2439250747    -0.4327525860     3.8935696385
 ----------------------------------------------------------------

   10   -1510.3012526636      9.17E-09 Convergence criterion met
 Total energy in the final basis set = -1510.30125266
 Final energy is   -1510.30125266359
 **  OPTIMIZATION CONVERGED  **

                    Orbital Energies (a.u.)
 --------------------------------------------------------------

 Alpha MOs
 -- Occupied --
-18.944 -18.937 -18.934 -18.928 -18.890 -18.890 -18.881 -18.879
-18.876 -18.871 -10.110 -10.102 -10.100 -10.099 -10.079 -10.076
-10.064 -10.060 -10.059 -10.056 -10.054 -10.044 -10.040 -10.039
-10.032 -10.023 -10.023 -10.021 -10.018 -10.017  -1.028  -1.014
 -1.007  -1.003  -0.973  -0.965  -0.948  -0.940  -0.937  -0.931
 -0.767  -0.760  -0.730  -0.723  -0.714  -0.704  -0.698  -0.661
 -0.652  -0.620  -0.599  -0.581  -0.548  -0.544  -0.539  -0.534
 -0.514  -0.507  -0.492  -0.472  -0.468  -0.460  -0.456  -0.446
 -0.432  -0.431  -0.429  -0.420  -0.413  -0.410  -0.407  -0.403
 -0.395  -0.383  -0.376  -0.368  -0.367  -0.358  -0.351  -0.350
 -0.346  -0.340  -0.337  -0.335  -0.330  -0.327  -0.326  -0.315
 -0.308  -0.308  -0.304  -0.303  -0.297  -0.286  -0.283  -0.278
 -0.272  -0.256  -0.249  -0.246  -0.241  -0.237  -0.227  -0.199
 -0.178  -0.171  -0.167  -0.163  -0.161  -0.154  -0.151  -0.147
 -0.140

          Ground-State Mulliken Net Atomic Charges

     Atom                 Charge (a.u.)
  ----------------------------------------
      1 O                    -0.215036
      2 C                     0.218956
      3 C                    -0.082025
      4 C                    -0.095662
      5 C                     0.208057
      6 O                    -0.175850
      7 C                    -0.053349
      8 C                    -0.052652
      9 O                    -0.170103
     10 C                     0.213356
     11 C                    -0.079301
     12 C                    -0.082051
     13 C                     0.222446
     14 O                    -0.210775
     15 O                    -0.172686
     16 O                    -0.183166
     17 O                    -0.203837
     18 C                    -0.146799
     19 C                     0.025752
     20 C                    -0.143767
     21 C                    -0.143777
     22 C                     0.025110
     23 O                    -0.188379
     24 H                     0.090104
     25 H                     0.082957
     26 H                     0.086461
     27 H                     0.079055
     28 H                     0.075099
     29 H                     0.078817
     30 H                     0.073334
     31 H                     0.089978
     32 O                    -0.210734
     33 C                    -0.134246
     34 C                     0.023565
     35 C                    -0.142014
     36 C                    -0.145444
     37 C                     0.021872
     38 O                    -0.190229
     39 H                     0.085233
     40 H                     0.114150
     41 H                     0.085177
     42 H                     0.084895
     43 H                     0.077019
     44 H                     0.072470
     45 H                     0.076328
     46 H                     0.073750
     47 H                     0.085873
     48 H                     0.100871
     49 H                     0.085553
     50 H                     0.097975
     51 H                     0.109151
     52 H                     0.073857
     53 H                     0.099734
     54 H                     0.091976
     55 H                     0.102838
     56 H                     0.090115
  ----------------------------------------
  Sum of atomic charges =    -0.000000

                    Cartesian Multipole Moments
 -----------------------------------------------------------------
    Charge (ESU x 10^10)
                -0.0000
    Dipole Moment (Debye)
         X       0.0538      Y       0.1280      Z      -0.5356
       Tot       0.5533
    Quadrupole Moments (Debye-Ang)
        XX    -173.3307     XY     -16.8790     YY    -163.9803
        XZ      -0.8606     YZ       2.0876     ZZ    -143.3374

 Total job time:  274.50s(wall), 13073.96s(cpu)
        *  Thank you very much for using Q-Chem.  Have a nice day.  *
