 Q-Chem 5.0, Q-Chem, Inc., Pleasanton, CA (2017)
 Q-Chem 5.0.1 for Intel X86 EM64T Linux

User input:
--------------------------------------------------------------
$molecule
0  1
O -3.94934 -3.66094 2.70899
C -3.26408 -4.56952 2.26188
C -3.36658 -6.02376 2.66595
C -2.10073 -6.68602 3.23419
C -0.924 -5.77371 3.50084
O 0.08892 -6.05614 2.62926
C 1.23743 -5.2212 2.81102
C 2.50575 -5.9849 2.44463
O 2.98488 -5.55121 1.16196
C 3.82146 -4.48403 1.18235
C 4.67805 -4.38417 -0.05738
C 4.12656 -3.45958 -1.15249
C 3.02147 -2.51478 -0.72489
O 2.60059 -1.57311 -1.38115
O -2.37584 -4.29541 1.27111
O 2.43032 -2.59491 0.49847
O 4.10082 -3.86957 2.20784
C 1.50804 -1.6923 1.00089
C 6.05338 -3.71837 0.18882
C 7.03891 -4.15162 -0.89581
C 6.481 -3.41273 -2.09359
C 5.37362 -2.5961 -1.41765
O 5.8577 -2.36162 -0.11862
H 4.87786 -5.421 -0.41311
H 3.76998 -4.00432 -2.05352
H 6.47938 -3.93722 1.19238
H 8.02435 -3.70496 -0.63077
H 7.16153 -5.24792 -1.02951
H 7.27734 -2.74958 -2.4986
H 6.07082 -4.05696 -2.90137
H 5.14361 -1.68937 -2.01989
O -0.96123 -4.80852 4.25697
C -2.1483 -3.03761 0.75542
C -4.33989 -6.25487 3.84142
C -4.81699 -7.70798 3.85205
C -3.57046 -8.41215 4.34527
C -2.64419 -7.21444 4.57185
O -3.51918 -6.19101 4.98268
H -3.7353 -6.56137 1.76361
H -1.76068 -7.51843 2.57523
H -1.7757 -2.35957 1.55282
H -5.2176 -5.57261 3.82798
H -5.60572 -7.80123 4.63256
H -5.21567 -8.06973 2.87987
H -3.802 -8.89478 5.32105
H -3.13844 -9.16126 3.64704
H -1.8319 -7.48141 5.28378
H -3.08352 -2.6275 0.31799
H -1.38272 -3.10814 -0.04373
H 1.21347 -1.98679 2.02708
H 0.6038 -1.66849 0.35774
H 1.95735 -0.67747 1.05031
H 3.29311 -5.83808 3.2215
H 2.32837 -7.08162 2.45314
H 1.37492 -5.02814 3.90211
H 1.13786 -4.23616 2.31906
$end

$opt
CONSTRAINT
tors           1           2           3           4    -121.767
tors           3           4           5           6    -111.778
tors           4           5           6           7    +179.402
tors           5           6           7           8    +148.773
tors           6           7           8           9    +103.961
tors           7           8           9          10     +87.896
tors           8           9          10          11    +158.715
tors           9          10          11          12     +95.311
tors          11          12          13          14    +168.071
ENDCONSTRAINT
$end

$rem
JOBTYPE                   OPT
METHOD                    B3LYP
DFT_D                     d3_op
BASIS                     STO-3G
GEOM_OPT_MAX_CYCLES       100
GEOM_OPT_TOL_GRADIENT     300
GEOM_OPT_TOL_DISPLACEMENT 1200
GEOM_OPT_TOL_ENERGY       100
SYMMETRY                  False
THRESH                    12
SCF_CONVERGENCE           8
MAX_SUB_FILE_NUM          128
MEM_STATIC                400
MEM_TOTAL                 4000
$end
--------------------------------------------------------------

   15   -1510.1372431534      5.97E-09 Convergence criterion met
 Total energy in the final basis set = -1510.13724315
   14   -1510.2098839969      7.09E-09 Convergence criterion met
 Total energy in the final basis set = -1510.20988400
   14   -1510.2497208212      1.00E-08 Convergence criterion met
 Total energy in the final basis set = -1510.24972082
   14   -1510.2676565831      8.16E-09 Convergence criterion met
 Total energy in the final basis set = -1510.26765658
   14   -1510.2724657527      2.20E-09 Convergence criterion met
 Total energy in the final basis set = -1510.27246575
   13   -1510.2753715988      8.54E-09 Convergence criterion met
 Total energy in the final basis set = -1510.27537160
   13   -1510.2756430683      6.53E-09 Convergence criterion met
 Total energy in the final basis set = -1510.27564307
   12   -1510.2766194535      9.79E-09 Convergence criterion met
   12   -1510.2786343980      2.40E-09 Convergence criterion met
 Total energy in the final basis set = -1510.27863440
   11   -1510.2786684338      4.80E-09 Convergence criterion met
 Total energy in the final basis set = -1510.27866843
   11   -1510.2787003687      3.64E-09 Convergence criterion met
 Total energy in the final basis set = -1510.27870037
   10   -1510.2787136550      8.16E-09 Convergence criterion met
 Total energy in the final basis set = -1510.27871366
   11   -1510.2787172713      2.27E-09 Convergence criterion met
 Total energy in the final basis set = -1510.27871727
    9   -1510.2787156951      5.57E-09 Convergence criterion met
 Total energy in the final basis set = -1510.27871570

             Standard Nuclear Orientation (Angstroms)
    I     Atom           X                Y                Z
 ----------------------------------------------------------------
    1      O      -4.6849634168     2.5155370430     0.9176938603
    2      C      -4.0374188032     1.7659386481     0.1561891991
    3      C      -4.6046521229     0.6091767781    -0.7401027519
    4      C      -3.9568943243    -0.8061117712    -0.4227396296
    5      C      -2.7449604593    -0.7374458878     0.5689960367
    6      O      -1.5654321334    -1.0786983869    -0.1706435297
    7      C      -0.3660145874    -1.0223307041     0.6996729405
    8      C       0.6693699830    -2.0946432634     0.1856883553
    9      O       1.7954189626    -1.4959047450    -0.5645473028
   10      C       2.8532221013    -1.1253528296     0.3398126317
   11      C       4.1908895937    -1.0208803709    -0.4806733320
   12      C       4.6137591722     0.4169268958    -1.0029465833
   13      C       3.6755294235     1.6283939536    -0.6679657669
   14      O       3.9684544911     2.8353669380    -0.8202979325
   15      O      -2.6145362724     1.8247465689    -0.0198743398
   16      O       2.4022495624     1.1725839377    -0.2068259011
   17      O       2.7269091023    -1.0958263536     1.5827584104
   18      C       1.5152620397     2.3139024026     0.1126077046
   19      C       5.4320995188    -1.3697722867     0.4488223365
   20      C       6.6569438407    -1.7445568405    -0.4739450356
   21      C       7.0778530733    -0.3257876233    -1.0095853430
   22      C       6.0223206365     0.5984838882    -0.2856440487
   23      O       5.8159192274    -0.0598667643     1.0235350112
   24      H       4.1110110759    -1.7205649585    -1.3310934061
   25      H       4.7367931022     0.4039813569    -2.1021900388
   26      H       5.2023952466    -2.0906491216     1.2569487856
   27      H       7.4603545402    -2.2053615050     0.1223974176
   28      H       6.3726006746    -2.4385102755    -1.2810655202
   29      H       8.1000701081    -0.0607754866    -0.6957768018
   30      H       7.0140687777    -0.2471911435    -2.1067729733
   31      H       6.3235170954     1.6560698064    -0.1533547088
   32      O      -2.7653637224    -0.4884727130     1.7942646414
   33      C      -2.0239616994     2.8107038115     0.9149881892
   34      C      -6.1170487193     0.3380509238    -0.3572347732
   35      C      -6.7607565978    -0.6207470593    -1.4344007570
   36      C      -6.1367415467    -2.0067049029    -1.0241435066
   37      C      -5.2115883308    -1.5748953895     0.1816133777
   38      O      -5.9956410887    -0.5132200086     0.8501229713
   39      H      -4.4723527457     0.8773256114    -1.8043791521
   40      H      -3.5991463443    -1.2861686151    -1.3503646163
   41      H      -1.3813408248     2.2752662278     1.6417151131
   42      H      -6.6887304456     1.2570455205    -0.1231204654
   43      H      -7.8581122497    -0.6262928460    -1.3395447859
   44      H      -6.4964812908    -0.3234768560    -2.4619912894
   45      H      -6.9111128848    -2.7113866397    -0.6810680872
   46      H      -5.5662108076    -2.4767818260    -1.8409608186
   47      H      -4.9584390962    -2.3792053256     0.8991635103
   48      H      -2.8362494407     3.3414680430     1.4515192221
   49      H      -1.4119131163     3.5292231159     0.3366191380
   50      H       1.2580262701     2.2792302150     1.1894487838
   51      H       0.5921252578     2.2233812407    -0.4920715096
   52      H       2.0424399200     3.2604856986    -0.1246587435
   53      H       1.0504610969    -2.6797484529     1.0489419846
   54      H       0.1553982372    -2.7727273290    -0.5267796121
   55      H      -0.6643468283    -1.2106371755     1.7533823516
   56      H       0.0886524117    -0.0101523204     0.6442621585
 ----------------------------------------------------------------

    9   -1510.2787156316      4.31E-09 Convergence criterion met
 Total energy in the final basis set = -1510.27871563
 Final energy is   -1510.27871563162
 **  OPTIMIZATION CONVERGED  **

                    Orbital Energies (a.u.)
 --------------------------------------------------------------

 Alpha MOs
 -- Occupied --
-18.947 -18.936 -18.929 -18.923 -18.889 -18.887 -18.883 -18.882
-18.869 -18.867 -10.108 -10.103 -10.098 -10.097 -10.070 -10.066
-10.064 -10.062 -10.060 -10.060 -10.060 -10.058 -10.043 -10.041
-10.037 -10.037 -10.022 -10.021 -10.021 -10.020  -1.021  -1.016
 -1.007  -1.003  -0.972  -0.970  -0.944  -0.940  -0.935  -0.929
 -0.765  -0.764  -0.727  -0.724  -0.713  -0.706  -0.695  -0.668
 -0.661  -0.618  -0.600  -0.581  -0.548  -0.545  -0.539  -0.537
 -0.513  -0.511  -0.484  -0.479  -0.466  -0.456  -0.453  -0.450
 -0.434  -0.430  -0.424  -0.419  -0.418  -0.412  -0.411  -0.407
 -0.392  -0.386  -0.381  -0.366  -0.362  -0.358  -0.356  -0.349
 -0.346  -0.342  -0.335  -0.333  -0.331  -0.327  -0.326  -0.316
 -0.310  -0.308  -0.306  -0.301  -0.298  -0.293  -0.285  -0.273
 -0.273  -0.252  -0.251  -0.246  -0.238  -0.236  -0.234  -0.184
 -0.178  -0.175  -0.168  -0.164  -0.163  -0.150  -0.148  -0.146
 -0.144

          Ground-State Mulliken Net Atomic Charges

     Atom                 Charge (a.u.)
  ----------------------------------------
      1 O                    -0.206523
      2 C                     0.215392
      3 C                    -0.077414
      4 C                    -0.079702
      5 C                     0.210098
      6 O                    -0.174164
      7 C                    -0.053849
      8 C                    -0.049216
      9 O                    -0.176248
     10 C                     0.218736
     11 C                    -0.080607
     12 C                    -0.077501
     13 C                     0.215035
     14 O                    -0.214551
     15 O                    -0.173721
     16 O                    -0.165946
     17 O                    -0.219105
     18 C                    -0.136142
     19 C                     0.025631
     20 C                    -0.144261
     21 C                    -0.143801
     22 C                     0.024933
     23 O                    -0.187977
     24 H                     0.084960
     25 H                     0.086895
     26 H                     0.087017
     27 H                     0.078552
     28 H                     0.073331
     29 H                     0.078931
     30 H                     0.073657
     31 H                     0.088533
     32 O                    -0.218080
     33 C                    -0.137076
     34 C                     0.024718
     35 C                    -0.144697
     36 C                    -0.143229
     37 C                     0.025361
     38 O                    -0.186208
     39 H                     0.085888
     40 H                     0.085733
     41 H                     0.087232
     42 H                     0.090407
     43 H                     0.078627
     44 H                     0.072975
     45 H                     0.078193
     46 H                     0.073197
     47 H                     0.084258
     48 H                     0.105196
     49 H                     0.083420
     50 H                     0.088923
     51 H                     0.090547
     52 H                     0.105209
     53 H                     0.090483
     54 H                     0.092207
     55 H                     0.097016
     56 H                     0.088725
  ----------------------------------------
  Sum of atomic charges =    -0.000000

                    Cartesian Multipole Moments
 -----------------------------------------------------------------
    Charge (ESU x 10^10)
                -0.0000
    Dipole Moment (Debye)
         X       0.8183      Y      -1.7713      Z      -3.8706
       Tot       4.3346
    Quadrupole Moments (Debye-Ang)
        XX    -159.3831     XY      -2.0868     YY    -154.7169
        XZ       5.3851     YZ       1.0417     ZZ    -165.8265

 Total job time:  109.84s(wall), 5230.29s(cpu)
        *  Thank you very much for using Q-Chem.  Have a nice day.  *
