 Q-Chem 5.0, Q-Chem, Inc., Pleasanton, CA (2017)
 Q-Chem 5.0.1 for Intel X86 EM64T Linux

User input:
--------------------------------------------------------------
$molecule
0  1
O -4.5476232632 2.4134762947 0.3773178123
C -4.2252419898 1.6004775557 -0.5143202621
C -4.8634144271 0.1995764727 -0.8195531114
C -4.1059603209 -0.9888591844 -0.0740097522
C -2.8798196084 -0.4803309714 0.7542345758
O -1.6927862303 -0.7139170205 -0.0170150094
C -0.5126709109 -0.1474672562 0.6807450059
C 0.6164140975 -1.2297098334 0.801676463
O 1.6394963066 -0.9579722468 -0.2353771261
C 2.9552912249 -1.1858507506 0.2949949283
C 3.993120922 -0.8832051207 -0.8441524564
C 4.7116134335 0.5307620217 -0.7650326661
C 4.2021215186 1.5847582728 0.2826691821
O 4.7339218631 2.6937033695 0.5087319795
O -3.1194772525 1.7847759241 -1.4089850773
O 2.9889565996 1.1519440839 0.8999849554
O 3.1865019745 -1.6393139246 1.436387325
C 2.5147450042 2.149862313 1.8842644396
C 5.245400713 -1.8469593055 -0.6854733089
C 6.1128862387 -1.7928928118 -2.0058124563
C 6.8461809366 -0.4104518099 -1.8342724694
C 6.2167396971 0.0954374666 -0.4787397818
O 6.0786535493 -1.1433411761 0.3173346019
H 3.4821273467 -1.0057231955 -1.8152302756
H 4.6519577827 1.0309669586 -1.7500188654
H 4.9910106728 -2.8631822754 -0.327432289
H 6.8273597619 -2.6307810779 -2.034417342
H 5.486598723 -1.8323052756 -2.9115686285
H 7.934296951 -0.5429546387 -1.7235218795
H 6.6571821878 0.2823270653 -2.6697104657
H 6.8097054632 0.8536107141 0.0690003574
O -2.8875720764 0.0540188934 1.8856592162
C -2.4135535384 3.0459049495 -1.0863678512
C -6.3076250542 0.0785879304 -0.1787414378
C -7.0269179883 -1.1866415397 -0.7918444149
C -6.2794186983 -2.3533731953 -0.0448844735
C -5.2678842719 -1.5406666495 0.8556549387
O -6.0261730103 -0.3227525534 1.2193149244
H -4.8660954519 0.0384222198 -1.9122433129
H -3.7474859584 -1.7427623507 -0.7971390279
H -2.0312232227 3.0420369092 -0.044973681
H -6.8934299208 1.0177433879 -0.1978744166
H -8.1009566769 -1.1738943933 -0.5477633721
H -6.9136438553 -1.2401626333 -1.8864197214
H -6.9695338262 -2.9374097736 0.5845655688
H -5.7646067324 -3.0409370352 -0.7349531358
H -4.9165020879 -2.0627338379 1.766487253
H -3.0718779064 3.9294226896 -1.214285213
H -1.565984301 3.1110946437 -1.7931248876
H 1.5615901053 1.7538658882 2.2805813926
H 2.3416430915 3.1373129252 1.4097322832
H 3.238434886 2.2769021954 2.7148584929
H 1.102202889 -1.2126889933 1.8014253286
H 0.1780857781 -2.2399394064 0.6429806307
H -0.8506591633 0.2049445796 1.6807865035
H -0.1309752777 0.7149502505 0.0930098933
$end

$rem
JOBTYPE                   OPT
METHOD                    B3LYP
DFT_D                     d3_op
BASIS                     STO-3G
GEOM_OPT_MAX_CYCLES       100
GEOM_OPT_TOL_GRADIENT     300
GEOM_OPT_TOL_DISPLACEMENT 1200
GEOM_OPT_TOL_ENERGY       100
SYMMETRY                  False
THRESH                    12
SCF_CONVERGENCE           8
MAX_SUB_FILE_NUM          128
MEM_STATIC                400
MEM_TOTAL                 4000
$end
--------------------------------------------------------------

   16   -1510.2779795825      5.85E-09 Convergence criterion met
 Total energy in the final basis set = -1510.27797958
   14   -1510.2786802594      1.83E-09 Convergence criterion met
 Total energy in the final basis set = -1510.27868026
   14   -1510.2796111592      3.89E-09 Convergence criterion met
 Total energy in the final basis set = -1510.27961116
   14   -1510.2805583823      4.13E-09 Convergence criterion met
 Total energy in the final basis set = -1510.28055838
   13   -1510.2814749140      9.02E-09 Convergence criterion met
 Total energy in the final basis set = -1510.28147491
   14   -1510.2823106150      2.32E-09 Convergence criterion met
 Total energy in the final basis set = -1510.28231061
   13   -1510.2831070144      7.23E-09 Convergence criterion met
 Total energy in the final basis set = -1510.28310701
   13   -1510.2838913399      8.81E-09 Convergence criterion met
   12   -1510.3012744874      6.91E-09 Convergence criterion met
 Total energy in the final basis set = -1510.30127449
   11   -1510.3012936427      5.09E-09 Convergence criterion met
 Total energy in the final basis set = -1510.30129364
   11   -1510.3012996657      3.07E-09 Convergence criterion met
 Total energy in the final basis set = -1510.30129967
   11   -1510.3013037160      3.65E-09 Convergence criterion met
 Total energy in the final basis set = -1510.30130372
    9   -1510.3013025819      5.48E-09 Convergence criterion met
 Total energy in the final basis set = -1510.30130258
    9   -1510.3013032703      4.83E-09 Convergence criterion met
 Total energy in the final basis set = -1510.30130327

             Standard Nuclear Orientation (Angstroms)
    I     Atom           X                Y                Z
 ----------------------------------------------------------------
    1      O      -3.8607609696     1.0274773938     1.6724186384
    2      C      -3.0481960014     1.3606612002     0.7858732828
    3      C      -2.7040151847     0.6443548132    -0.5595320571
    4      C      -1.5435715632    -0.4314540755    -0.4412001034
    5      C      -1.2452143716    -0.9174553580     1.0166265655
    6      O      -1.0165315558     0.2256756859     1.8612101869
    7      C      -0.6298096234    -0.2146669909     3.2215507601
    8      C       0.9397202300    -0.1944584868     3.3502474907
    9      O       1.5189586519    -1.0299813785     2.2708312527
   10      C       1.8184388589    -0.2189489179     1.1304553397
   11      C       2.1855446979    -1.1587722207    -0.0648137362
   12      C       2.3285024221    -0.3819002644    -1.4379118521
   13      C       2.0074264626     1.1554360120    -1.3382457698
   14      O       2.8096489644     2.1099383770    -1.3797228266
   15      O      -2.2576155577     2.5656902195     0.8288095650
   16      O       0.5753656724     1.2968303868    -1.3149183917
   17      O       1.8064374379     1.0329465414     1.1284223307
   18      C       0.1711983000     2.6916015875    -1.0173356205
   19      C       3.6546207939    -1.7473075820     0.0964938363
   20      C       3.8336190562    -2.9243271801    -0.9423536530
   21      C       4.0114732609    -2.1226792044    -2.2849191813
   22      C       3.8569898374    -0.6375620020    -1.7736850480
   23      O       4.5054423913    -0.6632695736    -0.4409062755
   24      H       1.4310763358    -1.9644817160    -0.1176605431
   25      H       1.6613236751    -0.8221385601    -2.2007038281
   26      H       3.9354503869    -1.9895188628     1.1398860976
   27      H       4.7296830883    -3.5187188444    -0.7029078770
   28      H       2.9589893223    -3.5938265999    -0.9593322170
   29      H       5.0126790194    -2.2779052233    -2.7172483483
   30      H       3.2547544777    -2.3845368155    -3.0416000929
   31      H       4.3166481738     0.1437364327    -2.4093084770
   32      O      -1.1819984537    -2.0992466389     1.4181104112
   33      C      -2.4256959529     3.2482039096     2.1290697207
   34      C      -3.8673940706    -0.2353054489    -1.1929234035
   35      C      -3.5886906849    -0.3106373622    -2.7449483689
   36      C      -2.3145443372    -1.2361371233    -2.7701724378
   37      C      -2.1834835516    -1.6284250879    -1.2451250038
   38      O      -3.5821528027    -1.6165252602    -0.7435214706
   39      H      -2.3945208094     1.4294041858    -1.2701587773
   40      H      -0.6096680404     0.0071301264    -0.8706567270
   41      H      -2.0392378310     2.6249826155     2.9608573483
   42      H      -4.8924941122     0.0644934160    -0.9007641272
   43      H      -4.4384627500    -0.7839993699    -3.2627923453
   44      H      -3.4071804817     0.6797477643    -3.1920712953
   45      H      -2.4716890002    -2.1306271974    -3.3933432029
   46      H      -1.4183060891    -0.7056441521    -3.1306532356
   47      H      -1.7129258561    -2.6089964701    -1.0376071547
   48      H      -3.4900418505     3.4864625254     2.3300290758
   49      H      -1.8392351050     4.1831215635     2.0652633594
   50      H      -0.6573759840     2.6581623330    -0.2716984874
   51      H      -0.1836089496     3.1804919158    -1.9475018340
   52      H       1.0359141423     3.2583332057    -0.6220694077
   53      H       1.3174920495     0.8461096756     3.2608877477
   54      H       1.2525137654    -0.6396471567     4.3162351498
   55      H      -1.0078663979    -1.2446530225     3.3942978851
   56      H      -1.0835055476     0.4930862485     3.9446489887
 ----------------------------------------------------------------

    9   -1510.3013039720      9.01E-09 Convergence criterion met
 Total energy in the final basis set = -1510.30130397
 Final energy is   -1510.30130397203
 **  OPTIMIZATION CONVERGED  **

                    Orbital Energies (a.u.)
 --------------------------------------------------------------

 Alpha MOs
 -- Occupied --
-18.944 -18.936 -18.936 -18.929 -18.890 -18.890 -18.881 -18.879
-18.875 -18.872 -10.109 -10.101 -10.100 -10.099 -10.078 -10.075
-10.066 -10.064 -10.060 -10.055 -10.053 -10.043 -10.042 -10.039
-10.031 -10.023 -10.022 -10.021 -10.018 -10.017  -1.027  -1.014
 -1.007  -1.003  -0.973  -0.965  -0.948  -0.939  -0.937  -0.932
 -0.767  -0.760  -0.730  -0.723  -0.714  -0.704  -0.698  -0.663
 -0.653  -0.620  -0.599  -0.580  -0.549  -0.544  -0.539  -0.534
 -0.515  -0.507  -0.492  -0.472  -0.469  -0.460  -0.456  -0.446
 -0.432  -0.432  -0.429  -0.420  -0.413  -0.410  -0.407  -0.403
 -0.395  -0.382  -0.376  -0.368  -0.367  -0.357  -0.352  -0.351
 -0.347  -0.340  -0.336  -0.335  -0.329  -0.327  -0.326  -0.315
 -0.308  -0.307  -0.304  -0.303  -0.296  -0.285  -0.283  -0.279
 -0.272  -0.258  -0.252  -0.246  -0.241  -0.237  -0.227  -0.198
 -0.180  -0.171  -0.168  -0.164  -0.160  -0.152  -0.150  -0.147
 -0.139

          Ground-State Mulliken Net Atomic Charges

     Atom                 Charge (a.u.)
  ----------------------------------------
      1 O                    -0.212648
      2 C                     0.216235
      3 C                    -0.082467
      4 C                    -0.096483
      5 C                     0.207533
      6 O                    -0.176465
      7 C                    -0.053765
      8 C                    -0.053093
      9 O                    -0.170569
     10 C                     0.213201
     11 C                    -0.079510
     12 C                    -0.082042
     13 C                     0.222302
     14 O                    -0.209597
     15 O                    -0.171931
     16 O                    -0.182781
     17 O                    -0.204566
     18 C                    -0.144807
     19 C                     0.025912
     20 C                    -0.143681
     21 C                    -0.143921
     22 C                     0.025156
     23 O                    -0.188078
     24 H                     0.089963
     25 H                     0.082814
     26 H                     0.086309
     27 H                     0.079089
     28 H                     0.075174
     29 H                     0.078931
     30 H                     0.073399
     31 H                     0.089807
     32 O                    -0.210795
     33 C                    -0.126113
     34 C                     0.023809
     35 C                    -0.141971
     36 C                    -0.145399
     37 C                     0.021554
     38 O                    -0.189879
     39 H                     0.084600
     40 H                     0.113898
     41 H                     0.086863
     42 H                     0.084473
     43 H                     0.076905
     44 H                     0.072489
     45 H                     0.076078
     46 H                     0.073330
     47 H                     0.085601
     48 H                     0.090127
     49 H                     0.090650
     50 H                     0.108845
     51 H                     0.074713
     52 H                     0.097426
     53 H                     0.100264
     54 H                     0.091664
     55 H                     0.103455
     56 H                     0.087997
  ----------------------------------------
  Sum of atomic charges =    -0.000000

                    Cartesian Multipole Moments
 -----------------------------------------------------------------
    Charge (ESU x 10^10)
                -0.0000
    Dipole Moment (Debye)
         X       0.0559      Y       0.2030      Z      -0.4890
       Tot       0.5324
    Quadrupole Moments (Debye-Ang)
        XX    -175.2892     XY     -16.3862     YY    -160.0415
        XZ       4.0774     YZ       6.9391     ZZ    -145.3078

 Total job time:  268.20s(wall), 12770.86s(cpu)
        *  Thank you very much for using Q-Chem.  Have a nice day.  *
