 Q-Chem 5.0, Q-Chem, Inc., Pleasanton, CA (2017)
 Q-Chem 5.0.1 for Intel X86 EM64T Linux

User input:
--------------------------------------------------------------
$molecule
0  1
O -3.94934 -3.66094 2.70899
C -3.26408 -4.56952 2.26188
C -3.36658 -6.02376 2.66595
C -2.43874 -6.50703 3.79263
C -1.63856 -5.44282 4.51045
O -0.36499 -5.40886 4.01821
C 0.4265 -4.35465 4.57627
C 1.74475 -4.91045 5.10488
O 2.80184 -4.63235 4.17316
C 3.98828 -4.27786 4.72619
C 5.05735 -3.99892 3.69665
C 5.30599 -2.51118 3.40839
C 4.72992 -1.53747 4.41673
O 4.89697 -0.32645 4.40802
O -2.20562 -4.2594 1.46894
O 3.95193 -1.95157 5.45191
O 4.27856 -4.54893 5.88793
C 3.37571 -1.14365 6.41326
C 6.47964 -4.42646 4.13093
C 7.35268 -4.64601 2.89578
C 7.52622 -3.21987 2.41558
C 6.83568 -2.46212 3.55533
O 7.05019 -3.26841 4.68799
H 4.80378 -4.57883 2.77931
H 4.93778 -2.20157 2.40604
H 6.49343 -5.33661 4.76955
H 8.3365 -5.01925 3.26126
H 6.95359 -5.35588 2.13975
H 8.61445 -2.99056 2.38335
H 7.05621 -2.98777 1.43525
H 7.22261 -1.42096 3.61945
O -2.1679 -4.55245 5.16827
C -1.88249 -2.98009 1.06843
C -4.73414 -6.33604 3.32302
C -5.04317 -7.82938 3.212
C -4.06385 -8.39497 4.21789
C -3.46189 -7.10056 4.77345
O -4.51815 -6.17609 4.70332
H -3.305 -6.62607 1.73182
H -1.7281 -7.27944 3.41894
H -1.66727 -2.34505 1.95441
H -5.57265 -5.74799 2.88888
H -6.07542 -7.9813 3.6017
H -4.97327 -8.25435 2.18766
H -4.63877 -8.92596 5.00896
H -3.28551 -9.06794 3.79738
H -3.0275 -7.27402 5.78305
H -2.71799 -2.53983 0.4832
H -0.97746 -3.01728 0.42813
H 2.79998 -1.77596 7.11988
H 2.68218 -0.41791 5.9375
H 4.16253 -0.60037 6.97874
H 1.93413 -4.37533 6.06656
H 1.67074 -5.99235 5.34857
H -0.05687 -3.84046 5.43841
H 0.61453 -3.55605 3.82624
$end

$opt
CONSTRAINT
tors           1           2           3           4     -93.111
tors           3           4           5           6     -99.527
tors           4           5           6           7    +175.427
tors           5           6           7           8    +128.428
tors           6           7           8           9    +101.716
tors           7           8           9          10    +140.582
tors           8           9          10          11    -180.000
tors           9          10          11          12    +100.634
tors          11          12          13          14    +174.902
ENDCONSTRAINT
$end

$rem
JOBTYPE                   OPT
METHOD                    B3LYP
DFT_D                     d3_op
BASIS                     STO-3G
GEOM_OPT_MAX_CYCLES       100
GEOM_OPT_TOL_GRADIENT     300
GEOM_OPT_TOL_DISPLACEMENT 1200
GEOM_OPT_TOL_ENERGY       100
SYMMETRY                  False
THRESH                    12
SCF_CONVERGENCE           8
MAX_SUB_FILE_NUM          128
MEM_STATIC                400
MEM_TOTAL                 4000
$end
--------------------------------------------------------------

   15   -1510.1298899261      5.96E-09 Convergence criterion met
 Total energy in the final basis set = -1510.12988993
   14   -1510.2029134874      7.23E-09 Convergence criterion met
 Total energy in the final basis set = -1510.20291349
   15   -1510.2434321453      1.07E-09 Convergence criterion met
 Total energy in the final basis set = -1510.24343215
   14   -1510.2626581163      7.39E-09 Convergence criterion met
 Total energy in the final basis set = -1510.26265812
   14   -1510.2695507498      7.16E-09 Convergence criterion met
 Total energy in the final basis set = -1510.26955075
   14   -1510.2734353766      3.74E-09 Convergence criterion met
 Total energy in the final basis set = -1510.27343538
   13   -1510.2751698842      6.05E-09 Convergence criterion met
 Total energy in the final basis set = -1510.27516988
   13   -1510.2761658251      6.86E-09 Convergence criterion met
   12   -1510.2778934325      2.87E-09 Convergence criterion met
 Total energy in the final basis set = -1510.27789343
   11   -1510.2779389981      6.44E-09 Convergence criterion met
 Total energy in the final basis set = -1510.27793900
   11   -1510.2779703722      5.58E-09 Convergence criterion met
 Total energy in the final basis set = -1510.27797037
   10   -1510.2779835401      9.44E-09 Convergence criterion met
 Total energy in the final basis set = -1510.27798354
   10   -1510.2779863550      4.57E-09 Convergence criterion met
 Total energy in the final basis set = -1510.27798635
   10   -1510.2779874426      5.25E-09 Convergence criterion met
 Total energy in the final basis set = -1510.27798744

             Standard Nuclear Orientation (Angstroms)
    I     Atom           X                Y                Z
 ----------------------------------------------------------------
    1      O      -4.5476232632     2.4134762947     0.3773178123
    2      C      -4.2252419898     1.6004775557    -0.5143202621
    3      C      -4.8634144271     0.1995764727    -0.8195531114
    4      C      -4.1059603209    -0.9888591844    -0.0740097522
    5      C      -2.8798196084    -0.4803309714     0.7542345758
    6      O      -1.6927862303    -0.7139170205    -0.0170150094
    7      C      -0.5126709109    -0.1474672562     0.6807450059
    8      C       0.6164140975    -1.2297098334     0.8016764630
    9      O       1.6394963066    -0.9579722468    -0.2353771261
   10      C       2.9552912249    -1.1858507506     0.2949949283
   11      C       3.9931209220    -0.8832051207    -0.8441524564
   12      C       4.7116134335     0.5307620217    -0.7650326661
   13      C       4.2021215186     1.5847582728     0.2826691821
   14      O       4.7339218631     2.6937033695     0.5087319795
   15      O      -3.1194772525     1.7847759241    -1.4089850773
   16      O       2.9889565996     1.1519440839     0.8999849554
   17      O       3.1865019745    -1.6393139246     1.4363873250
   18      C       2.5147450042     2.1498623130     1.8842644396
   19      C       5.2454007130    -1.8469593055    -0.6854733089
   20      C       6.1128862387    -1.7928928118    -2.0058124563
   21      C       6.8461809366    -0.4104518099    -1.8342724694
   22      C       6.2167396971     0.0954374666    -0.4787397818
   23      O       6.0786535493    -1.1433411761     0.3173346019
   24      H       3.4821273467    -1.0057231955    -1.8152302756
   25      H       4.6519577827     1.0309669586    -1.7500188654
   26      H       4.9910106728    -2.8631822754    -0.3274322890
   27      H       6.8273597619    -2.6307810779    -2.0344173420
   28      H       5.4865987230    -1.8323052756    -2.9115686285
   29      H       7.9342969510    -0.5429546387    -1.7235218795
   30      H       6.6571821878     0.2823270653    -2.6697104657
   31      H       6.8097054632     0.8536107141     0.0690003574
   32      O      -2.8875720764     0.0540188934     1.8856592162
   33      C      -2.4135535384     3.0459049495    -1.0863678512
   34      C      -6.3076250542     0.0785879304    -0.1787414378
   35      C      -7.0269179883    -1.1866415397    -0.7918444149
   36      C      -6.2794186983    -2.3533731953    -0.0448844735
   37      C      -5.2678842719    -1.5406666495     0.8556549387
   38      O      -6.0261730103    -0.3227525534     1.2193149244
   39      H      -4.8660954519     0.0384222198    -1.9122433129
   40      H      -3.7474859584    -1.7427623507    -0.7971390279
   41      H      -2.0312232227     3.0420369092    -0.0449736810
   42      H      -6.8934299208     1.0177433879    -0.1978744166
   43      H      -8.1009566769    -1.1738943933    -0.5477633721
   44      H      -6.9136438553    -1.2401626333    -1.8864197214
   45      H      -6.9695338262    -2.9374097736     0.5845655688
   46      H      -5.7646067324    -3.0409370352    -0.7349531358
   47      H      -4.9165020879    -2.0627338379     1.7664872530
   48      H      -3.0718779064     3.9294226896    -1.2142852130
   49      H      -1.5659843010     3.1110946437    -1.7931248876
   50      H       1.5615901053     1.7538658882     2.2805813926
   51      H       2.3416430915     3.1373129252     1.4097322832
   52      H       3.2384348860     2.2769021954     2.7148584929
   53      H       1.1022028890    -1.2126889933     1.8014253286
   54      H       0.1780857781    -2.2399394064     0.6429806307
   55      H      -0.8506591633     0.2049445796     1.6807865035
   56      H      -0.1309752777     0.7149502505     0.0930098933
 ----------------------------------------------------------------

    9   -1510.2779879073      7.53E-09 Convergence criterion met
 Total energy in the final basis set = -1510.27798791
 Final energy is   -1510.27798790733
 **  OPTIMIZATION CONVERGED  **

                    Orbital Energies (a.u.)
 --------------------------------------------------------------

 Alpha MOs
 -- Occupied --
-18.946 -18.934 -18.934 -18.924 -18.889 -18.888 -18.880 -18.879
-18.878 -18.866 -10.106 -10.101 -10.099 -10.097 -10.072 -10.067
-10.066 -10.066 -10.061 -10.061 -10.060 -10.059 -10.042 -10.041
-10.039 -10.037 -10.021 -10.021 -10.020 -10.020  -1.020  -1.016
 -1.010  -1.003  -0.971  -0.970  -0.942  -0.940  -0.936  -0.929
 -0.765  -0.764  -0.728  -0.724  -0.712  -0.706  -0.696  -0.669
 -0.665  -0.618  -0.599  -0.579  -0.549  -0.545  -0.539  -0.537
 -0.514  -0.511  -0.488  -0.476  -0.466  -0.458  -0.455  -0.450
 -0.433  -0.431  -0.422  -0.418  -0.417  -0.414  -0.411  -0.407
 -0.391  -0.385  -0.380  -0.370  -0.362  -0.359  -0.356  -0.352
 -0.347  -0.337  -0.335  -0.332  -0.332  -0.330  -0.327  -0.315
 -0.310  -0.308  -0.307  -0.299  -0.298  -0.295  -0.281  -0.276
 -0.272  -0.256  -0.250  -0.247  -0.241  -0.235  -0.234  -0.186
 -0.180  -0.175  -0.167  -0.163  -0.159  -0.151  -0.148  -0.145
 -0.144

          Ground-State Mulliken Net Atomic Charges

     Atom                 Charge (a.u.)
  ----------------------------------------
      1 O                    -0.204972
      2 C                     0.205054
      3 C                    -0.077726
      4 C                    -0.077695
      5 C                     0.205388
      6 O                    -0.171216
      7 C                    -0.058373
      8 C                    -0.053842
      9 O                    -0.175779
     10 C                     0.219115
     11 C                    -0.080070
     12 C                    -0.078885
     13 C                     0.211188
     14 O                    -0.214054
     15 O                    -0.170831
     16 O                    -0.167707
     17 O                    -0.218154
     18 C                    -0.126104
     19 C                     0.026180
     20 C                    -0.144868
     21 C                    -0.143106
     22 C                     0.025254
     23 O                    -0.186618
     24 H                     0.085548
     25 H                     0.085514
     26 H                     0.085727
     27 H                     0.078382
     28 H                     0.073257
     29 H                     0.078736
     30 H                     0.073669
     31 H                     0.087502
     32 O                    -0.209108
     33 C                    -0.129306
     34 C                     0.025632
     35 C                    -0.144179
     36 C                    -0.143809
     37 C                     0.025946
     38 O                    -0.183657
     39 H                     0.086303
     40 H                     0.087426
     41 H                     0.088169
     42 H                     0.087324
     43 H                     0.078554
     44 H                     0.073256
     45 H                     0.078543
     46 H                     0.073356
     47 H                     0.085469
     48 H                     0.089247
     49 H                     0.089803
     50 H                     0.091976
     51 H                     0.091318
     52 H                     0.093900
     53 H                     0.099046
     54 H                     0.085721
     55 H                     0.099351
     56 H                     0.089205
  ----------------------------------------
  Sum of atomic charges =     0.000000

                    Cartesian Multipole Moments
 -----------------------------------------------------------------
    Charge (ESU x 10^10)
                -0.0000
    Dipole Moment (Debye)
         X      -0.2759      Y      -0.8222      Z      -3.8362
       Tot       3.9330
    Quadrupole Moments (Debye-Ang)
        XX    -165.1837     XY       7.9882     YY    -157.2358
        XZ       1.2285     YZ       0.3608     ZZ    -161.8636

 Total job time:  54.84s(wall), 2606.31s(cpu)
        *  Thank you very much for using Q-Chem.  Have a nice day.  *
