 Q-Chem 5.0, Q-Chem, Inc., Pleasanton, CA (2017)
 Q-Chem 5.0.1 for Intel X86 EM64T Linux

User input:
--------------------------------------------------------------
$molecule
0  1
O 3.4795770119 -2.7490368811 -0.473346715
C 3.1464058927 -1.5665938914 -0.6966515659
C 4.0811535386 -0.3469839333 -1.0283180695
C 3.8517577426 0.9217995908 -0.0953369279
C 2.8051655605 0.6473362144 1.0385426804
O 1.5742499378 1.2831265423 0.6791912933
C 0.5534078569 1.0324169272 1.7242738443
C -0.6103240754 2.0453083446 1.4971094054
O -1.3413158243 1.6346101055 0.2737754887
C -2.6903442664 1.2662856376 0.5932663086
C -3.4100133851 0.9293826047 -0.7597090933
C -3.9260461263 -0.5625796373 -0.901224427
C -3.432831867 -1.6248098104 0.1431091869
O -3.9079797555 -2.7725814543 0.2834735476
O 1.7932921863 -1.0947218818 -0.7102831927
O -2.2599180862 -1.1719856096 0.8354036423
O -3.1883027829 1.3381289385 1.7382095876
C -1.8962514061 -2.149941273 1.8897552703
C -4.7978756601 1.7067464036 -0.8132612948
C -5.3918054915 1.6136907109 -2.2748948489
C -5.9604558661 0.1464334122 -2.284258034
C -5.5038169209 -0.3583284091 -0.8610017751
O -5.6852739004 0.8365846672 -0.0067262178
H -2.7327998966 1.2008830015 -1.5877913125
H -3.6313790409 -0.9566265607 -1.8926493066
H -4.7643139793 2.7262362755 -0.3827273234
H -6.1889588083 2.3603742891 -2.4164992295
H -4.6187456945 1.773411544 -3.0435588729
H -7.05994144 0.141142723 -2.3556883622
H -5.5497383669 -0.468730819 -3.1005695012
H -6.0632205064 -1.2242081575 -0.456144646
O 2.9744509989 -0.0075697798 2.0900566154
C 0.8484736813 -2.1798389855 -0.3627947563
C 5.6007354933 -0.6781046385 -0.7311588567
C 6.4953380751 0.3724515851 -1.4969906675
C 6.258742005 1.6608659369 -0.6235955903
C 5.3086954707 1.0978095537 0.507253062
O 5.7667045563 -0.2979921787 0.6917864288
H 3.9233991969 -0.0777327781 -2.0892754778
H 3.5204341826 1.797163193 -0.6803546828
H 1.105614174 -2.6458126541 0.6101091538
H 5.8649324895 -1.7432448151 -0.8805174994
H 7.5523115686 0.0622725275 -1.4816526912
H 6.1802452662 0.5037475608 -2.5445540451
H 7.1992360826 2.0327494974 -0.1872249038
H 5.7854680872 2.4775133255 -1.1920134223
H 5.3413415398 1.6445718915 1.4693214892
H 0.8327342901 -2.9725813006 -1.1389177414
H -0.1496256722 -1.704212376 -0.2955988867
H -0.9761816368 -1.7632650445 2.3639507857
H -1.70320205 -3.1550605181 1.4633560879
H -2.6970890282 -2.2343586289 2.6516932186
H -1.3209610677 2.0299842681 2.353917074
H -0.2104883211 3.069106176 1.3439142986
H 0.994615384 1.1567484014 2.7378287506
H 0.1643913952 -0.0050652951 1.6433302038
$end

$rem
JOBTYPE                   OPT
METHOD                    B3LYP
DFT_D                     d3_op
BASIS                     STO-3G
GEOM_OPT_MAX_CYCLES       100
GEOM_OPT_TOL_GRADIENT     300
GEOM_OPT_TOL_DISPLACEMENT 1200
GEOM_OPT_TOL_ENERGY       100
SYMMETRY                  False
THRESH                    12
SCF_CONVERGENCE           8
MAX_SUB_FILE_NUM          128
MEM_STATIC                400
MEM_TOTAL                 4000
$end
--------------------------------------------------------------

   16   -1510.2836594870      5.56E-09 Convergence criterion met
 Total energy in the final basis set = -1510.28365949
   15   -1510.2798671425      2.95E-09 Convergence criterion met
 Total energy in the final basis set = -1510.27986714
   15   -1510.2843424665      5.38E-09 Convergence criterion met
 Total energy in the final basis set = -1510.28434247
   14   -1510.2862002244      8.22E-09 Convergence criterion met
 Total energy in the final basis set = -1510.28620022
   13   -1510.2873749103      6.06E-09 Convergence criterion met
 Total energy in the final basis set = -1510.28737491
   14   -1510.2896494941      3.61E-09 Convergence criterion met
 Total energy in the final basis set = -1510.28964949
   14   -1510.2904090818      8.88E-09 Convergence criterion met
 Total energy in the final basis set = -1510.29040908
   13   -1510.2915420439      7.73E-09 Convergence criterion met
   12   -1510.2987897531      9.61E-09 Convergence criterion met
 Total energy in the final basis set = -1510.29878975
   12   -1510.2988363776      5.87E-09 Convergence criterion met
 Total energy in the final basis set = -1510.29883638
   12   -1510.2988619189      5.29E-09 Convergence criterion met
 Total energy in the final basis set = -1510.29886192
   11   -1510.2988567332      9.75E-09 Convergence criterion met
 Total energy in the final basis set = -1510.29885673
   11   -1510.2988799569      5.82E-09 Convergence criterion met
 Total energy in the final basis set = -1510.29887996
   11   -1510.2988814100      3.61E-09 Convergence criterion met
 Total energy in the final basis set = -1510.29888141

             Standard Nuclear Orientation (Angstroms)
    I     Atom           X                Y                Z
 ----------------------------------------------------------------
    1      O       2.3863205580    -1.8777170342    -2.1674146095
    2      C       2.4395370733    -0.7233100649    -1.6897870525
    3      C       3.7347006159     0.0856683849    -1.3295265234
    4      C       3.6689409747     0.8524376898     0.0578743422
    5      C       2.3189381904     0.6718856837     0.8349520854
    6      O       1.6564700113     1.9401396858     0.8603318626
    7      C       0.4118127589     1.8920012967     1.6640898715
    8      C      -0.6922161957     2.7593817437     0.9608538821
    9      O      -1.4267648500     2.0203467964    -0.0928988904
   10      C      -2.4708942238     1.2324675580     0.4987394012
   11      C      -3.2793893580     0.5390708573    -0.6478825350
   12      C      -3.4753606832    -1.0202328594    -0.4324304047
   13      C      -2.7734602053    -1.5872897487     0.8527449846
   14      O      -3.2915360917    -2.2437456419     1.7785367142
   15      O       1.3056001872     0.0987379524    -1.4117630668
   16      O      -1.3813222567    -1.2538584028     0.7870204327
   17      O      -2.6938170026     1.1747152132     1.7277564952
   18      C      -0.6396618281    -1.7827162407     1.9558724725
   19      C      -4.7970125165     1.0223022381    -0.6375453765
   20      C      -5.4693762431     0.5839736532    -1.9989059088
   21      C      -5.6695331112    -0.9586411784    -1.7578753346
   22      C      -5.0511140847    -1.1224950101    -0.3151710003
   23      O      -5.4262986813     0.1383421193     0.3676271552
   24      H      -2.7842970230     0.7620974726    -1.6082359365
   25      H      -3.0940685639    -1.5805652350    -1.3060072513
   26      H      -4.9383053525     2.0855566878    -0.3626811154
   27      H      -6.4326510295     1.1006718918    -2.1359139087
   28      H      -4.8261401722     0.7993870860    -2.8670891649
   29      H      -6.7369384454    -1.2311701272    -1.7526467371
   30      H      -5.1504788222    -1.5781842635    -2.5064938695
   31      H      -5.4004112940    -1.9964680926     0.2682237963
   32      O       1.9198650605    -0.3611693230     1.4196079349
   33      C       0.0417932498    -0.6235808308    -1.7023946858
   34      C       4.9545024464    -0.8943068938    -1.0859735511
   35      C       6.2922213421    -0.0600013436    -1.1392488700
   36      C       6.2274907150     0.7041992652     0.2350984035
   37      C       4.8710612497     0.1522003450     0.8292649234
   38      O       4.8207667466    -1.2459440347     0.3478134211
   39      H       3.9377619023     0.7942750423    -2.1539707880
   40      H       3.8374985282     1.9348596212    -0.0785340686
   41      H       0.2725730728    -1.5625575848    -2.2431708697
   42      H       4.9223339705    -1.8054132031    -1.7146910041
   43      H       7.1634905756    -0.7324376479    -1.1868033934
   44      H       6.3245396696     0.6211657786    -2.0046394194
   45      H       7.0718313744     0.4334213194     0.8888558510
   46      H       6.2120830853     1.7990986569     0.1138940561
   47      H       4.7883823586     0.1840121527     1.9329086062
   48      H      -0.5838847416     0.0371129033    -2.3316374340
   49      H      -0.4864163894    -0.8505876973    -0.7441119717
   50      H       0.3870415372    -1.3630019910     1.8630507760
   51      H      -0.6107365786    -2.8907019883     1.9390775661
   52      H      -1.1118378007    -1.4530230552     2.9025555986
   53      H      -1.4011789190     3.1246866959     1.7350032657
   54      H      -0.2165915391     3.6225782089     0.4520523631
   55      H       0.6198461148     2.3165944311     2.6709413849
   56      H       0.0698058347     0.8447299454     1.7878410789
 ----------------------------------------------------------------

    9   -1510.2988806585      6.74E-09 Convergence criterion met
 Total energy in the final basis set = -1510.29888066
 Final energy is   -1510.29888065855
 **  OPTIMIZATION CONVERGED  **

                    Orbital Energies (a.u.)
 --------------------------------------------------------------

 Alpha MOs
 -- Occupied --
-18.939 -18.936 -18.936 -18.931 -18.889 -18.887 -18.882 -18.877
-18.875 -18.874 -10.107 -10.103 -10.101 -10.098 -10.076 -10.073
-10.063 -10.061 -10.059 -10.058 -10.047 -10.041 -10.040 -10.039
-10.038 -10.036 -10.022 -10.021 -10.021 -10.020  -1.018  -1.014
 -1.010  -1.005  -0.972  -0.970  -0.943  -0.939  -0.936  -0.933
 -0.766  -0.764  -0.729  -0.724  -0.715  -0.706  -0.699  -0.657
 -0.651  -0.621  -0.599  -0.582  -0.548  -0.545  -0.539  -0.538
 -0.512  -0.512  -0.481  -0.477  -0.463  -0.460  -0.455  -0.452
 -0.436  -0.431  -0.427  -0.422  -0.411  -0.409  -0.404  -0.401
 -0.395  -0.383  -0.374  -0.371  -0.365  -0.356  -0.353  -0.349
 -0.346  -0.342  -0.333  -0.332  -0.330  -0.328  -0.323  -0.312
 -0.311  -0.306  -0.305  -0.301  -0.295  -0.289  -0.286  -0.277
 -0.271  -0.256  -0.251  -0.248  -0.242  -0.236  -0.234  -0.187
 -0.182  -0.171  -0.169  -0.161  -0.158  -0.153  -0.152  -0.145
 -0.144

          Ground-State Mulliken Net Atomic Charges

     Atom                 Charge (a.u.)
  ----------------------------------------
      1 O                    -0.213252
      2 C                     0.212630
      3 C                    -0.078003
      4 C                    -0.078529
      5 C                     0.223773
      6 O                    -0.170287
      7 C                    -0.052993
      8 C                    -0.048818
      9 O                    -0.169547
     10 C                     0.209028
     11 C                    -0.079215
     12 C                    -0.079570
     13 C                     0.217951
     14 O                    -0.202687
     15 O                    -0.172806
     16 O                    -0.178110
     17 O                    -0.215578
     18 C                    -0.144536
     19 C                     0.025995
     20 C                    -0.143903
     21 C                    -0.143910
     22 C                     0.024647
     23 O                    -0.185855
     24 H                     0.085805
     25 H                     0.084984
     26 H                     0.082788
     27 H                     0.078652
     28 H                     0.073551
     29 H                     0.078980
     30 H                     0.073428
     31 H                     0.091778
     32 O                    -0.222399
     33 C                    -0.154230
     34 C                     0.023885
     35 C                    -0.144059
     36 C                    -0.143958
     37 C                     0.025698
     38 O                    -0.186989
     39 H                     0.085086
     40 H                     0.086226
     41 H                     0.091593
     42 H                     0.091474
     43 H                     0.078545
     44 H                     0.073126
     45 H                     0.078176
     46 H                     0.073198
     47 H                     0.083404
     48 H                     0.075903
     49 H                     0.110085
     50 H                     0.118421
     51 H                     0.084598
     52 H                     0.088631
     53 H                     0.094227
     54 H                     0.094555
     55 H                     0.084656
     56 H                     0.103753
  ----------------------------------------
  Sum of atomic charges =     0.000000

                    Cartesian Multipole Moments
 -----------------------------------------------------------------
    Charge (ESU x 10^10)
                 0.0000
    Dipole Moment (Debye)
         X       1.2233      Y       2.9953      Z      -2.3351
       Tot       3.9901
    Quadrupole Moments (Debye-Ang)
        XX    -155.3502     XY       7.4388     YY    -160.2045
        XZ      12.0146     YZ       3.1248     ZZ    -159.8789

 Total job time:  110.17s(wall), 5252.84s(cpu)
        *  Thank you very much for using Q-Chem.  Have a nice day.  *
