 Q-Chem 5.0, Q-Chem, Inc., Pleasanton, CA (2017)
 Q-Chem 5.0.1 for Intel X86 EM64T Linux

User input:
--------------------------------------------------------------
$molecule
0  1
O -3.94934 -3.66094 2.70899
C -3.26408 -4.56952 2.26188
C -3.36658 -6.02376 2.66595
C -2.07085 -6.72301 3.10864
C -0.85047 -5.84359 3.26801
O -0.0095 -6.02012 2.20639
C 1.16703 -5.20785 2.27884
C 2.21792 -5.7161 1.29729
O 1.81304 -5.42192 -0.04897
C 2.62007 -4.56892 -0.72737
C 2.18562 -4.3608 -2.15867
C 1.79143 -2.91936 -2.51242
C 2.21914 -1.85528 -1.52171
O 2.1818 -0.64902 -1.71693
O -2.40619 -4.30089 1.24218
O 2.32393 -2.16529 -0.2014
O 3.72626 -4.20681 -0.33465
C 2.58053 -1.27746 0.82579
C 3.29725 -4.6343 -3.18577
C 2.67732 -4.95023 -4.54586
C 2.14617 -3.58625 -4.93665
C 2.67035 -2.74139 -3.76933
O 3.87514 -3.37279 -3.40591
H 1.32971 -5.04728 -2.35663
H 0.71007 -2.77406 -2.72741
H 3.99011 -5.44692 -2.87549
H 3.51331 -5.21637 -5.23187
H 1.92686 -5.76982 -4.54807
H 2.63274 -3.28172 -5.88991
H 1.04103 -3.51429 -5.03188
H 2.75726 -1.67651 -4.07968
O -0.76406 -4.92952 4.08106
C -2.17675 -3.04372 0.72451
C -4.23911 -6.24689 3.9177
C -4.74481 -7.68985 3.95586
C -3.47613 -8.42548 4.33404
C -2.50611 -7.25094 4.48625
O -3.31877 -6.21305 4.98179
H -3.8153 -6.54313 1.78953
H -1.81067 -7.55683 2.41608
H -1.77584 -2.37342 1.51464
H -5.0986 -5.54533 3.98761
H -5.46655 -7.77668 4.79934
H -5.2315 -8.031 3.01685
H -3.63213 -8.90904 5.32429
H -3.12494 -9.17995 3.59733
H -1.64047 -7.54285 5.12131
H -3.11778 -2.62074 0.31264
H -1.42904 -3.11809 -0.09206
H 2.61636 -1.83418 1.78464
H 1.7746 -0.51536 0.88608
H 3.56053 -0.78004 0.66368
H 3.17694 -5.23896 1.59625
H 2.35968 -6.81125 1.41851
H 1.62728 -5.33417 3.28753
H 0.93896 -4.13041 2.11844
$end

$opt
CONSTRAINT
tors           1           2           3           4    -127.394
tors           3           4           5           6    -103.913
tors           4           5           6           7    +179.402
tors           5           6           7           8    +164.583
tors           6           7           8           9     +71.480
tors           7           8           9          10    +116.283
tors           8           9          10          11    +176.750
tors           9          10          11          12    +117.734
tors          11          12          13          14    +168.289
ENDCONSTRAINT
$end

$rem
JOBTYPE                   OPT
METHOD                    B3LYP
DFT_D                     d3_op
BASIS                     STO-3G
GEOM_OPT_MAX_CYCLES       100
GEOM_OPT_TOL_GRADIENT     300
GEOM_OPT_TOL_DISPLACEMENT 1200
GEOM_OPT_TOL_ENERGY       100
SYMMETRY                  False
THRESH                    12
SCF_CONVERGENCE           8
MAX_SUB_FILE_NUM          128
MEM_STATIC                400
MEM_TOTAL                 4000
$end
--------------------------------------------------------------

   15   -1510.1392631974      6.75E-09 Convergence criterion met
 Total energy in the final basis set = -1510.13926320
   14   -1510.2111559884      4.59E-09 Convergence criterion met
 Total energy in the final basis set = -1510.21115599
   14   -1510.2508708269      6.87E-09 Convergence criterion met
 Total energy in the final basis set = -1510.25087083
   14   -1510.2689245664      9.93E-09 Convergence criterion met
 Total energy in the final basis set = -1510.26892457
    2   -1510.2689245663      2.17E-09 Convergence criterion met
 Total energy in the final basis set = -1510.26892457
   14   -1510.2758701924      3.53E-09 Convergence criterion met
 Total energy in the final basis set = -1510.27587019
   14   -1510.2793368642      3.66E-09 Convergence criterion met
 Total energy in the final basis set = -1510.27933686
   13   -1510.2809066390      3.56E-09 Convergence criterion met
   11   -1510.2835003064      9.26E-09 Convergence criterion met
 Total energy in the final basis set = -1510.28350031
   11   -1510.2835824003      9.46E-09 Convergence criterion met
 Total energy in the final basis set = -1510.28358240
   11   -1510.2836257689      3.15E-09 Convergence criterion met
 Total energy in the final basis set = -1510.28362577
   11   -1510.2836629699      3.48E-09 Convergence criterion met
 Total energy in the final basis set = -1510.28366297
   11   -1510.2836718545      4.19E-09 Convergence criterion met
 Total energy in the final basis set = -1510.28367185
   10   -1510.2836739549      4.79E-09 Convergence criterion met
 Total energy in the final basis set = -1510.28367395

             Standard Nuclear Orientation (Angstroms)
    I     Atom           X                Y                Z
 ----------------------------------------------------------------
    1      O       3.4795770119    -2.7490368811    -0.4733467150
    2      C       3.1464058927    -1.5665938914    -0.6966515659
    3      C       4.0811535386    -0.3469839333    -1.0283180695
    4      C       3.8517577426     0.9217995908    -0.0953369279
    5      C       2.8051655605     0.6473362144     1.0385426804
    6      O       1.5742499378     1.2831265423     0.6791912933
    7      C       0.5534078569     1.0324169272     1.7242738443
    8      C      -0.6103240754     2.0453083446     1.4971094054
    9      O      -1.3413158243     1.6346101055     0.2737754887
   10      C      -2.6903442664     1.2662856376     0.5932663086
   11      C      -3.4100133851     0.9293826047    -0.7597090933
   12      C      -3.9260461263    -0.5625796373    -0.9012244270
   13      C      -3.4328318670    -1.6248098104     0.1431091869
   14      O      -3.9079797555    -2.7725814543     0.2834735476
   15      O       1.7932921863    -1.0947218818    -0.7102831927
   16      O      -2.2599180862    -1.1719856096     0.8354036423
   17      O      -3.1883027829     1.3381289385     1.7382095876
   18      C      -1.8962514061    -2.1499412730     1.8897552703
   19      C      -4.7978756601     1.7067464036    -0.8132612948
   20      C      -5.3918054915     1.6136907109    -2.2748948489
   21      C      -5.9604558661     0.1464334122    -2.2842580340
   22      C      -5.5038169209    -0.3583284091    -0.8610017751
   23      O      -5.6852739004     0.8365846672    -0.0067262178
   24      H      -2.7327998966     1.2008830015    -1.5877913125
   25      H      -3.6313790409    -0.9566265607    -1.8926493066
   26      H      -4.7643139793     2.7262362755    -0.3827273234
   27      H      -6.1889588083     2.3603742891    -2.4164992295
   28      H      -4.6187456945     1.7734115440    -3.0435588729
   29      H      -7.0599414400     0.1411427230    -2.3556883622
   30      H      -5.5497383669    -0.4687308190    -3.1005695012
   31      H      -6.0632205064    -1.2242081575    -0.4561446460
   32      O       2.9744509989    -0.0075697798     2.0900566154
   33      C       0.8484736813    -2.1798389855    -0.3627947563
   34      C       5.6007354933    -0.6781046385    -0.7311588567
   35      C       6.4953380751     0.3724515851    -1.4969906675
   36      C       6.2587420050     1.6608659369    -0.6235955903
   37      C       5.3086954707     1.0978095537     0.5072530620
   38      O       5.7667045563    -0.2979921787     0.6917864288
   39      H       3.9233991969    -0.0777327781    -2.0892754778
   40      H       3.5204341826     1.7971631930    -0.6803546828
   41      H       1.1056141740    -2.6458126541     0.6101091538
   42      H       5.8649324895    -1.7432448151    -0.8805174994
   43      H       7.5523115686     0.0622725275    -1.4816526912
   44      H       6.1802452662     0.5037475608    -2.5445540451
   45      H       7.1992360826     2.0327494974    -0.1872249038
   46      H       5.7854680872     2.4775133255    -1.1920134223
   47      H       5.3413415398     1.6445718915     1.4693214892
   48      H       0.8327342901    -2.9725813006    -1.1389177414
   49      H      -0.1496256722    -1.7042123760    -0.2955988867
   50      H      -0.9761816368    -1.7632650445     2.3639507857
   51      H      -1.7032020500    -3.1550605181     1.4633560879
   52      H      -2.6970890282    -2.2343586289     2.6516932186
   53      H      -1.3209610677     2.0299842681     2.3539170740
   54      H      -0.2104883211     3.0691061760     1.3439142986
   55      H       0.9946153840     1.1567484014     2.7378287506
   56      H       0.1643913952    -0.0050652951     1.6433302038
 ----------------------------------------------------------------

    9   -1510.2836749323      8.85E-09 Convergence criterion met
 Total energy in the final basis set = -1510.28367493
 Final energy is   -1510.28367493225
 **  OPTIMIZATION CONVERGED  **

                    Orbital Energies (a.u.)
 --------------------------------------------------------------

 Alpha MOs
 -- Occupied --
-18.947 -18.935 -18.929 -18.927 -18.891 -18.885 -18.884 -18.878
-18.869 -18.868 -10.109 -10.100 -10.098 -10.095 -10.073 -10.071
-10.068 -10.064 -10.063 -10.062 -10.058 -10.056 -10.044 -10.039
-10.037 -10.036 -10.023 -10.022 -10.020 -10.019  -1.022  -1.014
 -1.009  -1.003  -0.973  -0.968  -0.945  -0.938  -0.936  -0.928
 -0.767  -0.762  -0.729  -0.723  -0.714  -0.706  -0.698  -0.671
 -0.662  -0.618  -0.600  -0.579  -0.549  -0.545  -0.540  -0.536
 -0.516  -0.510  -0.487  -0.476  -0.466  -0.457  -0.453  -0.450
 -0.436  -0.430  -0.429  -0.423  -0.417  -0.414  -0.411  -0.404
 -0.390  -0.387  -0.378  -0.367  -0.364  -0.358  -0.356  -0.350
 -0.342  -0.339  -0.338  -0.333  -0.330  -0.329  -0.327  -0.316
 -0.310  -0.309  -0.304  -0.301  -0.294  -0.291  -0.282  -0.275
 -0.273  -0.256  -0.254  -0.251  -0.242  -0.237  -0.232  -0.188
 -0.179  -0.172  -0.169  -0.163  -0.157  -0.153  -0.147  -0.146
 -0.141

          Ground-State Mulliken Net Atomic Charges

     Atom                 Charge (a.u.)
  ----------------------------------------
      1 O                    -0.208527
      2 C                     0.210043
      3 C                    -0.077841
      4 C                    -0.078276
      5 C                     0.208699
      6 O                    -0.168652
      7 C                    -0.047042
      8 C                    -0.054310
      9 O                    -0.172753
     10 C                     0.216382
     11 C                    -0.079529
     12 C                    -0.079340
     13 C                     0.211244
     14 O                    -0.210667
     15 O                    -0.169738
     16 O                    -0.170272
     17 O                    -0.218966
     18 C                    -0.128357
     19 C                     0.026293
     20 C                    -0.144996
     21 C                    -0.142729
     22 C                     0.025348
     23 O                    -0.185761
     24 H                     0.087958
     25 H                     0.085872
     26 H                     0.084161
     27 H                     0.078816
     28 H                     0.074047
     29 H                     0.079154
     30 H                     0.073914
     31 H                     0.089210
     32 O                    -0.217218
     33 C                    -0.131885
     34 C                     0.023618
     35 C                    -0.143658
     36 C                    -0.144338
     37 C                     0.025529
     38 O                    -0.186192
     39 H                     0.084574
     40 H                     0.086082
     41 H                     0.088818
     42 H                     0.090234
     43 H                     0.078196
     44 H                     0.072558
     45 H                     0.077846
     46 H                     0.072858
     47 H                     0.083738
     48 H                     0.086471
     49 H                     0.095098
     50 H                     0.091017
     51 H                     0.092880
     52 H                     0.094691
     53 H                     0.102296
     54 H                     0.088017
     55 H                     0.090259
     56 H                     0.085125
  ----------------------------------------
  Sum of atomic charges =    -0.000000

                    Cartesian Multipole Moments
 -----------------------------------------------------------------
    Charge (ESU x 10^10)
                -0.0000
    Dipole Moment (Debye)
         X      -0.1594      Y       2.0313      Z      -3.0430
       Tot       3.6621
    Quadrupole Moments (Debye-Ang)
        XX    -169.5105     XY       8.8651     YY    -160.5969
        XZ       0.6361     YZ       0.0542     ZZ    -156.2618

 Total job time:  54.95s(wall), 2614.00s(cpu)
        *  Thank you very much for using Q-Chem.  Have a nice day.  *
