 Q-Chem 5.0, Q-Chem, Inc., Pleasanton, CA (2017)
 Q-Chem 5.0.1 for Intel X86 EM64T Linux

User input:
--------------------------------------------------------------
$molecule
0  1
O 3.2204129106 2.5058042107 -0.0920746707
C 2.6995939687 1.4974113191 0.4295639756
C 3.4114749482 0.275545906 1.1052535137
C 3.4391128367 -1.0136696407 0.1724346145
C 2.8198457118 -0.7670031483 -1.2474862301
O 1.4616326389 -1.2239614388 -1.2273262728
C 0.7548316259 -0.8138953038 -2.469064668
C -0.5484787911 -1.6799913779 -2.5304251754
O -1.1603590662 -1.742305137 -1.1818611628
C -2.2858330631 -0.8451946473 -1.1090560392
C -2.8641172784 -0.9767637055 0.3384187873
C -3.2817692865 0.3289138441 1.1419152975
C -3.1840344381 1.7725112674 0.5186181094
O -3.7098421778 2.7819056613 1.0376463716
O 1.2938249901 1.2313083282 0.4600803778
O -2.3680357743 1.8437425528 -0.6574665747
O -2.7443948417 -0.2286911355 -2.0947855101
C -2.488678343 3.1923176645 -1.2673760587
C -4.2556112837 -1.7632948876 0.3143946409
C -4.4988876894 -2.383014841 1.7464295473
C -4.8914121628 -1.0994670779 2.5664074987
C -4.8129328507 0.0122819087 1.4490269118
O -5.2639314401 -0.6850617745 0.2241588694
H -2.1137041027 -1.5424914487 0.9178175939
H -2.7066458955 0.3695904453 2.086124052
H -4.3666143415 -2.470288424 -0.5307207412
H -5.3246884176 -3.111627027 1.7137960815
H -3.6003502303 -2.8837351502 2.1408593363
H -5.9157166164 -1.1712816833 2.9654401211
H -4.200980799 -0.8963775948 3.4004724974
H -5.4215459955 0.9188358441 1.6349610807
O 3.367489229 -0.239681256 -2.2398586463
C 0.5463906371 2.3014408616 -0.2355821125
C 4.9608815665 0.5276455934 1.3195956964
C 5.4977473427 -0.5418166719 2.3495137535
C 5.5036137395 -1.8405836347 1.4598286574
C 5.0022059374 -1.2665932819 0.0755071984
O 5.5641393743 0.1023223186 0.0356366519
H 2.8924892778 0.0503427282 2.0541843636
H 2.9011221306 -1.8541193508 0.6453232509
H 0.9686728258 2.5014286073 -1.2407556059
H 5.2227454259 1.5810141997 1.537655546
H 6.5136214823 -0.2771860619 2.683674698
H 4.8471589657 -0.6324932661 3.2340648515
H 6.5181429102 -2.2578988358 1.3600279477
H 4.8354193965 -2.6257902343 1.8482796022
H 5.3170387864 -1.8385775512 -0.8185935632
H 0.5704163146 3.2482135439 0.3420433767
H -0.5032431374 1.9442949199 -0.3266338592
H -1.8521919465 3.1708415472 -2.1704329629
H -2.1362201004 3.9864434416 -0.5784532837
H -3.5370157877 3.4062267963 -1.5547620628
H -1.2729817601 -1.2336967644 -3.2461659491
H -0.3058783771 -2.7216847367 -2.822881215
H 1.3876525423 -0.9771623277 -3.3683106114
H 0.4974234767 0.2659376685 -2.4132165665
$end

$rem
JOBTYPE                   OPT
METHOD                    B3LYP
DFT_D                     d3_op
BASIS                     STO-3G
GEOM_OPT_MAX_CYCLES       100
GEOM_OPT_TOL_GRADIENT     300
GEOM_OPT_TOL_DISPLACEMENT 1200
GEOM_OPT_TOL_ENERGY       100
SYMMETRY                  False
THRESH                    12
SCF_CONVERGENCE           8
MAX_SUB_FILE_NUM          128
MEM_STATIC                400
MEM_TOTAL                 4000
$end
--------------------------------------------------------------

   16   -1510.2779368759      6.07E-09 Convergence criterion met
 Total energy in the final basis set = -1510.27793688
   15   -1510.2758561636      2.95E-09 Convergence criterion met
 Total energy in the final basis set = -1510.27585616
   15   -1510.2778030860      2.25E-09 Convergence criterion met
 Total energy in the final basis set = -1510.27780309
   14   -1510.2818745988      5.37E-09 Convergence criterion met
 Total energy in the final basis set = -1510.28187460
   13   -1510.2747954726      9.41E-09 Convergence criterion met
 Total energy in the final basis set = -1510.27479547
   14   -1510.2790074643      5.69E-09 Convergence criterion met
 Total energy in the final basis set = -1510.27900746
   14   -1510.2833284943      6.35E-09 Convergence criterion met
 Total energy in the final basis set = -1510.28332849
   14   -1510.2850425616      5.78E-09 Convergence criterion met
   11   -1510.2988457954      5.12E-09 Convergence criterion met
 Total energy in the final basis set = -1510.29884580
   12   -1510.2988630590      3.01E-09 Convergence criterion met
 Total energy in the final basis set = -1510.29886306
   11   -1510.2988650417      6.08E-09 Convergence criterion met
 Total energy in the final basis set = -1510.29886504
   11   -1510.2988663399      4.87E-09 Convergence criterion met
 Total energy in the final basis set = -1510.29886634
    9   -1510.2988668276      9.51E-09 Convergence criterion met
 Total energy in the final basis set = -1510.29886683
    9   -1510.2988674519      4.61E-09 Convergence criterion met
 Total energy in the final basis set = -1510.29886745

             Standard Nuclear Orientation (Angstroms)
    I     Atom           X                Y                Z
 ----------------------------------------------------------------
    1      O      -2.2239367338    -1.2536209004     2.6502165594
    2      C      -2.3528060167    -0.2891950780     1.8651407538
    3      C      -3.6943320131     0.2998881988     1.3051268795
    4      C      -3.6620777536     0.6474840096    -0.2421039020
    5      C      -2.3157473169     0.2703005667    -0.9546812747
    6      O      -1.7026734758     1.4784760646    -1.4147804024
    7      C      -0.4761955437     1.2008267635    -2.2012508400
    8      C       0.6117649351     2.2806477627    -1.8689358659
    9      O       1.3596555321     1.9703196718    -0.6278158289
   10      C       2.4949182858     1.1431645226    -0.9306169039
   11      C       3.2885839490     0.8971316366     0.3948183148
   12      C       3.5024830267    -0.6369265416     0.7390062589
   13      C       2.8485769691    -1.6383640169    -0.2780775428
   14      O       3.3918653666    -2.6037019413    -0.8521935265
   15      O      -1.2776148217     0.4939057030     1.3466685609
   16      O       1.4635534864    -1.2971396794    -0.4212009611
   17      O       2.7897112720     0.7510001116    -2.0806482518
   18      C       0.7538751847    -2.2563289763    -1.3014203029
   19      C       4.8020379370     1.3709399503     0.2534186179
   20      C       5.4340271272     1.4474927972     1.6996273082
   21      C       5.6514824001    -0.0783697803     2.0191124189
   22      C       5.0819842209    -0.7462109043     0.7078161597
   23      O       5.4691807582     0.2032173539    -0.3621746601
   24      H       2.7673607208     1.4251296824     1.2116217922
   25      H       3.0983961478    -0.8647142696     1.7428650870
   26      H       4.9435471555     2.2730101040    -0.3730759136
   27      H       6.3891313049     1.9956333650     1.6719249411
   28      H       4.7634210002     1.9432123883     2.4196826883
   29      H       6.7199737075    -0.3169963438     2.1407141415
   30      H       5.1102566796    -0.4059143476     2.9210935813
   31      H       5.4542697961    -1.7633786789     0.4771093414
   32      O      -1.8853078588    -0.8851036907    -1.1754076943
   33      C       0.0315525001    -0.0364163247     1.8009893054
   34      C      -4.8610858170    -0.7704773711     1.3609153737
   35      C      -6.2375857465    -0.0107420375     1.2253160634
   36      C      -6.2211755319     0.3691532373    -0.3027906820
   37      C      -4.8512552607    -0.2706869412    -0.7645442362
   38      O      -4.7323295076    -1.4866294050     0.0701743283
   39      H      -3.9460322388     1.2003730654     1.8956798604
   40      H      -3.8541610815     1.7201716599    -0.4178272017
   41      H      -0.1343096890    -0.7864734671     2.5992183236
   42      H      -4.7741036531    -1.4775730455     2.2088352917
   43      H      -7.0760393308    -0.6837313234     1.4650833474
   44      H      -6.2911289966     0.8711062088     1.8833336844
   45      H      -7.0619018524    -0.0934011949    -0.8439743706
   46      H      -6.2484198352     1.4575508864    -0.4713836542
   47      H      -4.7910383259    -0.5321082967    -1.8388356679
   48      H       0.6191319321     0.8156282639     2.1913459003
   49      H       0.5621388769    -0.5038211898     0.9355899180
   50      H      -0.2991266654    -1.8958400211    -1.3300012389
   51      H       0.8033849217    -3.2846010257    -0.8910697725
   52      H       1.1939676538    -2.2562004405    -2.3185704786
   53      H       1.3162980608     2.3452427836    -2.7261109267
   54      H       0.1247570685     3.2631905712    -1.7031970932
   55      H      -0.7262326016     1.2576038724    -3.2838461477
   56      H      -0.0959933744     0.1835665420    -1.9801102798
 ----------------------------------------------------------------

   11   -1510.2988677769      3.23E-09 Convergence criterion met
 Total energy in the final basis set = -1510.29886778
 Final energy is   -1510.29886777689
 **  OPTIMIZATION CONVERGED  **

                    Orbital Energies (a.u.)
 --------------------------------------------------------------

 Alpha MOs
 -- Occupied --
-18.941 -18.936 -18.935 -18.931 -18.890 -18.888 -18.884 -18.877
-18.874 -18.874 -10.107 -10.105 -10.101 -10.098 -10.075 -10.072
-10.063 -10.061 -10.059 -10.058 -10.048 -10.041 -10.040 -10.039
-10.038 -10.036 -10.022 -10.021 -10.021 -10.020  -1.018  -1.015
 -1.010  -1.005  -0.972  -0.970  -0.943  -0.940  -0.935  -0.933
 -0.767  -0.764  -0.729  -0.724  -0.715  -0.706  -0.699  -0.658
 -0.651  -0.620  -0.599  -0.581  -0.548  -0.545  -0.539  -0.538
 -0.512  -0.512  -0.482  -0.478  -0.464  -0.460  -0.455  -0.453
 -0.436  -0.431  -0.427  -0.421  -0.413  -0.409  -0.405  -0.400
 -0.396  -0.384  -0.373  -0.372  -0.366  -0.356  -0.353  -0.349
 -0.347  -0.342  -0.333  -0.333  -0.330  -0.328  -0.323  -0.312
 -0.311  -0.307  -0.305  -0.301  -0.295  -0.289  -0.285  -0.277
 -0.272  -0.256  -0.251  -0.249  -0.243  -0.236  -0.234  -0.186
 -0.184  -0.171  -0.169  -0.161  -0.159  -0.153  -0.152  -0.146
 -0.144

          Ground-State Mulliken Net Atomic Charges

     Atom                 Charge (a.u.)
  ----------------------------------------
      1 O                    -0.213295
      2 C                     0.212741
      3 C                    -0.078242
      4 C                    -0.078030
      5 C                     0.223326
      6 O                    -0.169739
      7 C                    -0.053252
      8 C                    -0.050109
      9 O                    -0.169833
     10 C                     0.209239
     11 C                    -0.079368
     12 C                    -0.079410
     13 C                     0.217541
     14 O                    -0.202208
     15 O                    -0.172758
     16 O                    -0.177028
     17 O                    -0.215662
     18 C                    -0.144438
     19 C                     0.026184
     20 C                    -0.143971
     21 C                    -0.143909
     22 C                     0.024481
     23 O                    -0.185740
     24 H                     0.085914
     25 H                     0.085209
     26 H                     0.083227
     27 H                     0.078654
     28 H                     0.073538
     29 H                     0.079096
     30 H                     0.073410
     31 H                     0.091920
     32 O                    -0.222836
     33 C                    -0.154458
     34 C                     0.023951
     35 C                    -0.143815
     36 C                    -0.144102
     37 C                     0.025740
     38 O                    -0.186806
     39 H                     0.084915
     40 H                     0.086383
     41 H                     0.090911
     42 H                     0.091253
     43 H                     0.078465
     44 H                     0.073061
     45 H                     0.078232
     46 H                     0.073295
     47 H                     0.082872
     48 H                     0.075756
     49 H                     0.109818
     50 H                     0.118961
     51 H                     0.086262
     52 H                     0.087471
     53 H                     0.096239
     54 H                     0.093533
     55 H                     0.084127
     56 H                     0.103282
  ----------------------------------------
  Sum of atomic charges =     0.000000

                    Cartesian Multipole Moments
 -----------------------------------------------------------------
    Charge (ESU x 10^10)
                 0.0000
    Dipole Moment (Debye)
         X      -1.4418      Y       3.4898      Z       1.2716
       Tot       3.9842
    Quadrupole Moments (Debye-Ang)
        XX    -155.7413     XY      -2.5274     YY    -162.8967
        XZ      13.2364     YZ      -1.3795     ZZ    -157.5497

 Total job time:  144.65s(wall), 6901.01s(cpu)
        *  Thank you very much for using Q-Chem.  Have a nice day.  *
