 Q-Chem 5.0, Q-Chem, Inc., Pleasanton, CA (2017)
 Q-Chem 5.0.1 for Intel X86 EM64T Linux

User input:
--------------------------------------------------------------
$molecule
0  1
O -3.94934 -3.66094 2.70899
C -3.26408 -4.56952 2.26188
C -3.36658 -6.02376 2.66595
C -2.29005 -6.56525 3.62079
C -1.33426 -5.54902 4.20544
O -0.17744 -5.52881 3.47964
C 0.69209 -4.4489 3.83594
C 2.09168 -4.69657 3.28281
O 2.00552 -5.19534 1.93868
C 2.26597 -4.29014 0.96301
C 2.15934 -4.87453 -0.42544
C 1.42141 -3.99321 -1.44378
C 1.22016 -2.54592 -1.04186
O 0.85628 -1.64745 -1.78678
O -2.33215 -4.28536 1.31893
O 0.96899 -2.25478 0.26376
O 2.94561 -3.28909 1.17515
C 0.68297 -1.00198 0.7746
C 3.52644 -5.03578 -1.11835
C 3.42807 -6.10209 -2.20782
C 2.57485 -5.38038 -3.23061
C 2.47054 -3.99838 -2.574
O 3.68085 -3.85915 -1.87033
H 1.68609 -5.88038 -0.3415
H 0.43647 -4.3983 -1.76345
H 4.35022 -5.27892 -0.41184
H 4.45222 -6.23112 -2.62613
H 3.04078 -7.09081 -1.88022
H 3.14421 -5.32537 -4.18496
H 1.56999 -5.82112 -3.40871
H 2.26783 -3.22302 -3.34568
O -1.68487 -4.65457 4.96851
C -2.16014 -3.03667 0.76527
C -4.62212 -6.29164 3.53303
C -5.00614 -7.77007 3.46208
C -3.9046 -8.38738 4.29597
C -3.1656 -7.12601 4.75243
O -4.17885 -6.15813 4.86059
H -3.47706 -6.61275 1.72787
H -1.68559 -7.36461 3.13413
H -1.8536 -2.31045 1.5476
H -5.49645 -5.66748 3.24491
H -5.96937 -7.88788 4.00867
H -5.11526 -8.18209 2.43586
H -4.36818 -8.89974 5.16829
H -3.23501 -9.09029 3.7546
H -2.58144 -7.33023 5.67718
H -3.10284 -2.69732 0.28523
H -1.38218 -3.09828 -0.01715
H 0.5377 -1.08284 1.87135
H -0.24785 -0.60065 0.32025
H 1.52775 -0.30875 0.57566
H 2.7214 -3.79094 3.42702
H 2.56553 -5.5022 3.88302
H 0.79041 -4.32016 4.9389
H 0.28394 -3.51451 3.39003
$end

$opt
CONSTRAINT
tors           1           2           3           4    -102.951
tors           3           4           5           6     -97.257
tors           4           5           6           7    +170.640
tors           5           6           7           8    +164.583
tors           6           7           8           9     +42.684
tors           7           8           9          10    +102.399
tors           8           9          10          11    -180.000
tors           9          10          11          12    +136.284
tors          11          12          13          14    +167.575
ENDCONSTRAINT
$end

$rem
JOBTYPE                   OPT
METHOD                    B3LYP
DFT_D                     d3_op
BASIS                     STO-3G
GEOM_OPT_MAX_CYCLES       100
GEOM_OPT_TOL_GRADIENT     300
GEOM_OPT_TOL_DISPLACEMENT 1200
GEOM_OPT_TOL_ENERGY       100
SYMMETRY                  False
THRESH                    12
SCF_CONVERGENCE           8
MAX_SUB_FILE_NUM          128
MEM_STATIC                400
MEM_TOTAL                 4000
$end
--------------------------------------------------------------

   15   -1510.1273592716      6.48E-09 Convergence criterion met
 Total energy in the final basis set = -1510.12735927
   14   -1510.2007365552      7.03E-09 Convergence criterion met
 Total energy in the final basis set = -1510.20073656
   14   -1510.2410139284      8.22E-09 Convergence criterion met
 Total energy in the final basis set = -1510.24101393
   15   -1510.2604229837      1.36E-09 Convergence criterion met
 Total energy in the final basis set = -1510.26042298
   14   -1510.2696699209      6.20E-09 Convergence criterion met
 Total energy in the final basis set = -1510.26966992
   14   -1510.2719067098      3.83E-09 Convergence criterion met
 Total energy in the final basis set = -1510.27190671
   14   -1510.2746054566      3.03E-09 Convergence criterion met
 Total energy in the final basis set = -1510.27460546
   14   -1510.2752164586      2.94E-09 Convergence criterion met
   11   -1510.2780560896      3.86E-09 Convergence criterion met
 Total energy in the final basis set = -1510.27805609
   11   -1510.2780681121      3.72E-09 Convergence criterion met
 Total energy in the final basis set = -1510.27806811
   11   -1510.2780757984      2.87E-09 Convergence criterion met
 Total energy in the final basis set = -1510.27807580
   10   -1510.2780823453      7.38E-09 Convergence criterion met
 Total energy in the final basis set = -1510.27808235
    9   -1510.2780860706      7.54E-09 Convergence criterion met
 Total energy in the final basis set = -1510.27808607
    9   -1510.2780877343      5.49E-09 Convergence criterion met
 Total energy in the final basis set = -1510.27808773

             Standard Nuclear Orientation (Angstroms)
    I     Atom           X                Y                Z
 ----------------------------------------------------------------
    1      O       3.2204129106     2.5058042107    -0.0920746707
    2      C       2.6995939687     1.4974113191     0.4295639756
    3      C       3.4114749482     0.2755459060     1.1052535137
    4      C       3.4391128367    -1.0136696407     0.1724346145
    5      C       2.8198457118    -0.7670031483    -1.2474862301
    6      O       1.4616326389    -1.2239614388    -1.2273262728
    7      C       0.7548316259    -0.8138953038    -2.4690646680
    8      C      -0.5484787911    -1.6799913779    -2.5304251754
    9      O      -1.1603590662    -1.7423051370    -1.1818611628
   10      C      -2.2858330631    -0.8451946473    -1.1090560392
   11      C      -2.8641172784    -0.9767637055     0.3384187873
   12      C      -3.2817692865     0.3289138441     1.1419152975
   13      C      -3.1840344381     1.7725112674     0.5186181094
   14      O      -3.7098421778     2.7819056613     1.0376463716
   15      O       1.2938249901     1.2313083282     0.4600803778
   16      O      -2.3680357743     1.8437425528    -0.6574665747
   17      O      -2.7443948417    -0.2286911355    -2.0947855101
   18      C      -2.4886783430     3.1923176645    -1.2673760587
   19      C      -4.2556112837    -1.7632948876     0.3143946409
   20      C      -4.4988876894    -2.3830148410     1.7464295473
   21      C      -4.8914121628    -1.0994670779     2.5664074987
   22      C      -4.8129328507     0.0122819087     1.4490269118
   23      O      -5.2639314401    -0.6850617745     0.2241588694
   24      H      -2.1137041027    -1.5424914487     0.9178175939
   25      H      -2.7066458955     0.3695904453     2.0861240520
   26      H      -4.3666143415    -2.4702884240    -0.5307207412
   27      H      -5.3246884176    -3.1116270270     1.7137960815
   28      H      -3.6003502303    -2.8837351502     2.1408593363
   29      H      -5.9157166164    -1.1712816833     2.9654401211
   30      H      -4.2009807990    -0.8963775948     3.4004724974
   31      H      -5.4215459955     0.9188358441     1.6349610807
   32      O       3.3674892290    -0.2396812560    -2.2398586463
   33      C       0.5463906371     2.3014408616    -0.2355821125
   34      C       4.9608815665     0.5276455934     1.3195956964
   35      C       5.4977473427    -0.5418166719     2.3495137535
   36      C       5.5036137395    -1.8405836347     1.4598286574
   37      C       5.0022059374    -1.2665932819     0.0755071984
   38      O       5.5641393743     0.1023223186     0.0356366519
   39      H       2.8924892778     0.0503427282     2.0541843636
   40      H       2.9011221306    -1.8541193508     0.6453232509
   41      H       0.9686728258     2.5014286073    -1.2407556059
   42      H       5.2227454259     1.5810141997     1.5376555460
   43      H       6.5136214823    -0.2771860619     2.6836746980
   44      H       4.8471589657    -0.6324932661     3.2340648515
   45      H       6.5181429102    -2.2578988358     1.3600279477
   46      H       4.8354193965    -2.6257902343     1.8482796022
   47      H       5.3170387864    -1.8385775512    -0.8185935632
   48      H       0.5704163146     3.2482135439     0.3420433767
   49      H      -0.5032431374     1.9442949199    -0.3266338592
   50      H      -1.8521919465     3.1708415472    -2.1704329629
   51      H      -2.1362201004     3.9864434416    -0.5784532837
   52      H      -3.5370157877     3.4062267963    -1.5547620628
   53      H      -1.2729817601    -1.2336967644    -3.2461659491
   54      H      -0.3058783771    -2.7216847367    -2.8228812150
   55      H       1.3876525423    -0.9771623277    -3.3683106114
   56      H       0.4974234767     0.2659376685    -2.4132165665
 ----------------------------------------------------------------

    9   -1510.2780882219      5.81E-09 Convergence criterion met
 Total energy in the final basis set = -1510.27808822
 Final energy is   -1510.27808822193
 **  OPTIMIZATION CONVERGED  **

                    Orbital Energies (a.u.)
 --------------------------------------------------------------

 Alpha MOs
 -- Occupied --
-18.951 -18.933 -18.930 -18.926 -18.894 -18.884 -18.883 -18.879
-18.873 -18.872 -10.110 -10.101 -10.095 -10.093 -10.072 -10.071
-10.071 -10.065 -10.064 -10.057 -10.056 -10.047 -10.046 -10.042
-10.036 -10.034 -10.025 -10.024 -10.019 -10.017  -1.023  -1.014
 -1.008  -1.003  -0.976  -0.966  -0.946  -0.939  -0.931  -0.929
 -0.767  -0.761  -0.729  -0.723  -0.716  -0.705  -0.697  -0.669
 -0.655  -0.620  -0.599  -0.579  -0.549  -0.545  -0.541  -0.535
 -0.518  -0.508  -0.486  -0.477  -0.460  -0.452  -0.451  -0.449
 -0.443  -0.435  -0.429  -0.425  -0.419  -0.411  -0.407  -0.399
 -0.389  -0.385  -0.372  -0.366  -0.361  -0.358  -0.354  -0.352
 -0.345  -0.341  -0.338  -0.335  -0.328  -0.327  -0.326  -0.315
 -0.310  -0.308  -0.306  -0.301  -0.294  -0.291  -0.276  -0.275
 -0.274  -0.261  -0.256  -0.247  -0.242  -0.239  -0.231  -0.190
 -0.179  -0.172  -0.168  -0.162  -0.157  -0.153  -0.150  -0.145
 -0.140

          Ground-State Mulliken Net Atomic Charges

     Atom                 Charge (a.u.)
  ----------------------------------------
      1 O                    -0.208713
      2 C                     0.205347
      3 C                    -0.078228
      4 C                    -0.077575
      5 C                     0.204385
      6 O                    -0.167863
      7 C                    -0.049913
      8 C                    -0.053411
      9 O                    -0.167993
     10 C                     0.211326
     11 C                    -0.080529
     12 C                    -0.078238
     13 C                     0.213337
     14 O                    -0.211540
     15 O                    -0.174261
     16 O                    -0.163079
     17 O                    -0.208153
     18 C                    -0.126141
     19 C                     0.026582
     20 C                    -0.143578
     21 C                    -0.144034
     22 C                     0.025440
     23 O                    -0.188029
     24 H                     0.089768
     25 H                     0.087504
     26 H                     0.083821
     27 H                     0.078948
     28 H                     0.075134
     29 H                     0.079392
     30 H                     0.074562
     31 H                     0.089720
     32 O                    -0.209944
     33 C                    -0.145250
     34 C                     0.024814
     35 C                    -0.143812
     36 C                    -0.144361
     37 C                     0.025570
     38 O                    -0.184978
     39 H                     0.084223
     40 H                     0.085800
     41 H                     0.082112
     42 H                     0.087907
     43 H                     0.077784
     44 H                     0.072226
     45 H                     0.077581
     46 H                     0.072467
     47 H                     0.084352
     48 H                     0.078179
     49 H                     0.102799
     50 H                     0.094658
     51 H                     0.092134
     52 H                     0.094843
     53 H                     0.101033
     54 H                     0.086997
     55 H                     0.093708
     56 H                     0.085171
  ----------------------------------------
  Sum of atomic charges =    -0.000000

                    Cartesian Multipole Moments
 -----------------------------------------------------------------
    Charge (ESU x 10^10)
                -0.0000
    Dipole Moment (Debye)
         X      -1.2813      Y      -2.4979      Z       2.1600
       Tot       3.5422
    Quadrupole Moments (Debye-Ang)
        XX    -177.8385     XY      -5.3438     YY    -155.9446
        XZ       6.0111     YZ      -1.4511     ZZ    -153.7024

 Total job time:  65.02s(wall), 3096.78s(cpu)
        *  Thank you very much for using Q-Chem.  Have a nice day.  *
