 Q-Chem 5.0, Q-Chem, Inc., Pleasanton, CA (2017)
 Q-Chem 5.0.1 for Intel X86 EM64T Linux

User input:
--------------------------------------------------------------
$molecule
0  1
O -2.7542088661 1.3532484922 2.1161725573
C -2.7392163438 1.2193393169 0.8718992778
C -3.9792717736 0.9652843637 -0.0626139615
C -4.0209439943 -0.4501820002 -0.7987262974
C -2.8686338931 -1.4150944544 -0.3534453601
O -1.6740550987 -0.9886258184 -1.0066857123
C -0.5279207186 -1.8433079232 -0.6271886002
C 0.4934563895 -1.857732189 -1.8101173456
O 1.3276932627 -0.6339945345 -1.7379503086
C 2.597086833 -0.9170806029 -1.135415332
C 3.3987713492 0.4310553729 -1.1056046334
C 3.8911324572 0.9014127575 0.3225560982
C 3.2224489524 0.2944436448 1.6047202582
O 3.5990896514 0.5133984652 2.7765420286
O -1.5757774493 1.3924541368 0.056277492
O 2.0118719855 -0.4190231605 1.2994984357
O 2.9870687464 -2.0596855278 -0.8125471996
C 1.4444110071 -0.970479665 2.5571657712
C 4.804601623 0.173611274 -1.8058352054
C 5.5567562771 1.5486345114 -2.0136820776
C 6.1022412583 1.8251407519 -0.5633058933
C 5.4576939783 0.6216581473 0.2274204027
O 5.5685078096 -0.5004462265 -0.7302232392
H 2.7984197692 1.2085535392 -1.6086258246
H 3.7298945586 1.9930663765 0.4105391901
H 4.7517810474 -0.4720804479 -2.7037206422
H 6.3754693979 1.4358756433 -2.7417531029
H 4.8756147577 2.3386313564 -2.3690790976
H 7.2014868198 1.7584699611 -0.5281789684
H 5.7932286313 2.805191843 -0.1661702027
H 5.93757756 0.3691392686 1.1929325758
O -2.9435782417 -2.3946668979 0.4198098874
C -0.3808037187 1.6647485485 0.891993854
C -5.3317940748 0.9135179017 0.7619420468
C -6.5280181336 1.17285857 -0.2351538374
C -6.5723232729 -0.1933660552 -1.0159311549
C -5.4203639017 -0.9973870227 -0.2946398432
O -5.4771641144 -0.5199622022 1.1065707174
H -3.9932786906 1.7752791608 -0.8152349595
H -3.9767362283 -0.3232862368 -1.8951846164
H -0.6773978231 1.6912053786 1.9600029915
H -5.3219753652 1.5322811212 1.6800005507
H -7.4614873253 1.3483607398 0.3230909636
H -6.3428378816 2.0353012923 -0.8952684954
H -7.5397574176 -0.70379184 -0.8855203434
H -6.3799119937 -0.0726388949 -2.0941447489
H -5.511091303 -2.1003688684 -0.3283817371
H 0.0394884333 2.6455568278 0.5953885531
H 0.3828367094 0.8744096678 0.7256118286
H 0.5050961934 -1.4805826576 2.2778827214
H 1.2269418788 -0.1663638404 3.2884572696
H 2.1368455613 -1.699414483 3.0233706254
H 1.1502023966 -2.7512862169 -1.7263275339
H -0.036385854 -1.8497744116 -2.7840360617
H -0.8876738272 -2.8686170113 -0.3891781194
H -0.0286306597 -1.4322810023 0.2744092691
$end

$rem
JOBTYPE                   OPT
METHOD                    B3LYP
DFT_D                     d3_op
BASIS                     STO-3G
GEOM_OPT_MAX_CYCLES       100
GEOM_OPT_TOL_GRADIENT     300
GEOM_OPT_TOL_DISPLACEMENT 1200
GEOM_OPT_TOL_ENERGY       100
SYMMETRY                  False
THRESH                    12
SCF_CONVERGENCE           8
MAX_SUB_FILE_NUM          128
MEM_STATIC                400
MEM_TOTAL                 4000
$end
--------------------------------------------------------------

   16   -1510.2813581504      5.97E-09 Convergence criterion met
 Total energy in the final basis set = -1510.28135815
   14   -1510.2467932929      6.86E-09 Convergence criterion met
 Total energy in the final basis set = -1510.24679329
   15   -1510.2825542250      2.27E-09 Convergence criterion met
 Total energy in the final basis set = -1510.28255422
   14   -1510.2826470640      7.08E-09 Convergence criterion met
 Total energy in the final basis set = -1510.28264706
   13   -1510.2848718075      7.05E-09 Convergence criterion met
 Total energy in the final basis set = -1510.28487181
   15   -1510.2850747756      3.23E-09 Convergence criterion met
 Total energy in the final basis set = -1510.28507478
   14   -1510.2869166466      4.74E-09 Convergence criterion met
 Total energy in the final basis set = -1510.28691665
   13   -1510.2882126092      3.50E-09 Convergence criterion met
   13   -1510.2987638929      3.05E-09 Convergence criterion met
 Total energy in the final basis set = -1510.29876389
   11   -1510.2988397223      9.23E-09 Convergence criterion met
 Total energy in the final basis set = -1510.29883972
   12   -1510.2989158539      6.29E-09 Convergence criterion met
 Total energy in the final basis set = -1510.29891585
   11   -1510.2989338227      8.64E-09 Convergence criterion met
 Total energy in the final basis set = -1510.29893382
   11   -1510.2989471919      7.60E-09 Convergence criterion met
 Total energy in the final basis set = -1510.29894719
   11   -1510.2989501810      3.13E-09 Convergence criterion met
 Total energy in the final basis set = -1510.29895018

             Standard Nuclear Orientation (Angstroms)
    I     Atom           X                Y                Z
 ----------------------------------------------------------------
    1      O      -2.2649945351    -2.5072960338     1.6147744625
    2      C      -2.3703415805    -1.2699750646     1.4678846580
    3      C      -3.7003425903    -0.4447350117     1.3651601756
    4      C      -3.6876712329     0.6924445600     0.2591180690
    5      C      -2.3570956003     0.7787385505    -0.5681190694
    6      O      -1.7242319347     2.0244982179    -0.2584619970
    7      C      -0.5170815355     2.2418073640    -1.0914236250
    8      C       0.5971962308     2.9311588861    -0.2279741678
    9      O       1.3693088765     1.9649181593     0.5890004330
   10      C       2.4385472332     1.4068082516    -0.1905401945
   11      C       3.2631165233     0.4404780758     0.7232755746
   12      C       3.4790318735    -0.9983494884     0.0902197062
   13      C       2.7773668828    -1.2138068107    -1.2973215906
   14      O       3.2935798219    -1.6125138332    -2.3606878573
   15      O      -1.2731593244    -0.3593288361     1.3972886811
   16      O       1.3835149802    -0.9143962588    -1.1456755301
   17      O       2.6637878030     1.7012817100    -1.3846554314
   18      C       0.6334718929    -1.1498014021    -2.4019551805
   19      C       4.7734396978     0.9266055280     0.8491472665
   20      C       5.4531357545     0.1382263184     2.0379958007
   21      C       5.6767838018    -1.2741268212     1.3808596819
   22      C       5.0561890796    -1.0423358297    -0.0516765213
   23      O       5.4130447154     0.3627819291    -0.3594541119
   24      H       2.7667605939     0.3826209837     1.7069223327
   25      H       3.1109280989    -1.7805025891     0.7798915011
   26      H       4.8999973601     2.0261739676     0.8789297224
   27      H       6.4084919337     0.6115204346     2.3146890787
   28      H       4.8080598216     0.0967722051     2.9302985603
   29      H       6.7484766432    -1.5159755692     1.3006870965
   30      H       5.1712546038    -2.0855902382     1.9285013525
   31      H       5.4135487690    -1.7171309766    -0.8538383788
   32      O      -1.9561173804    -0.0380303099    -1.4289206102
   33      C       0.0201123771    -1.0855086070     1.4444057978
   34      C      -4.8948656132    -1.3548870773     0.8611118688
   35      C      -6.2561264796    -0.6243900032     1.1811873113
   36      C      -6.2496072355     0.5150127775     0.0936927894
   37      C      -4.8942990245     0.2109759161    -0.6597613879
   38      O      -4.7908896621    -1.2642585741    -0.6139575309
   39      H      -3.9133447849    -0.0117975308     2.3603826275
   40      H      -3.8752986168     1.6842927713     0.7057716981
   41      H      -0.1673556180    -2.1469281206     1.7002777563
   42      H      -4.8184408507    -2.4092629749     1.1916859604
   43      H      -7.1048353075    -1.3119066567     1.0385789902
   44      H      -6.2870647067    -0.2320703528     2.2101924877
   45      H      -7.1027157809     0.4198751988    -0.5965241620
   46      H      -6.2617036513     1.5247859205     0.5341691015
   47      H      -4.8440538115     0.5688154244    -1.7064300638
   48      H       0.6442939165    -0.6081543266     2.2229620094
   49      H       0.5237962405    -1.0089090026     0.4497302514
   50      H      -0.4054204288    -0.8140744850    -2.1849005445
   51      H       0.6462081557    -2.2233767379    -2.6774511710
   52      H       1.0678144544    -0.5624796320    -3.2353293517
   53      H       1.2793081605     3.4813394732    -0.9112568894
   54      H       0.1299900542     3.6371058000     0.4883105682
   55      H      -0.7840398947     2.9111703824    -1.9390642917
   56      H      -0.1532247779     1.2798266236    -1.5050882748
 ----------------------------------------------------------------

   11   -1510.2989511138      3.95E-09 Convergence criterion met
 Total energy in the final basis set = -1510.29895111
 Final energy is   -1510.29895111380
 **  OPTIMIZATION CONVERGED  **

                    Orbital Energies (a.u.)
 --------------------------------------------------------------

 Alpha MOs
 -- Occupied --
-18.940 -18.936 -18.936 -18.931 -18.889 -18.887 -18.883 -18.876
-18.875 -18.874 -10.106 -10.104 -10.101 -10.098 -10.076 -10.072
-10.063 -10.061 -10.059 -10.058 -10.048 -10.041 -10.040 -10.039
-10.038 -10.036 -10.022 -10.021 -10.021 -10.020  -1.018  -1.014
 -1.010  -1.006  -0.972  -0.970  -0.942  -0.939  -0.936  -0.933
 -0.766  -0.764  -0.729  -0.724  -0.715  -0.706  -0.699  -0.657
 -0.651  -0.621  -0.599  -0.581  -0.548  -0.545  -0.539  -0.538
 -0.512  -0.512  -0.482  -0.477  -0.463  -0.460  -0.455  -0.452
 -0.436  -0.431  -0.427  -0.421  -0.412  -0.409  -0.404  -0.401
 -0.396  -0.383  -0.374  -0.371  -0.366  -0.356  -0.353  -0.349
 -0.346  -0.342  -0.333  -0.332  -0.330  -0.328  -0.323  -0.312
 -0.311  -0.306  -0.305  -0.301  -0.295  -0.289  -0.286  -0.277
 -0.272  -0.256  -0.251  -0.248  -0.242  -0.236  -0.234  -0.186
 -0.183  -0.171  -0.169  -0.161  -0.159  -0.153  -0.152  -0.146
 -0.144

          Ground-State Mulliken Net Atomic Charges

     Atom                 Charge (a.u.)
  ----------------------------------------
      1 O                    -0.213327
      2 C                     0.212900
      3 C                    -0.078150
      4 C                    -0.078354
      5 C                     0.223680
      6 O                    -0.170173
      7 C                    -0.053116
      8 C                    -0.049476
      9 O                    -0.169523
     10 C                     0.209242
     11 C                    -0.079180
     12 C                    -0.079538
     13 C                     0.217905
     14 O                    -0.202477
     15 O                    -0.172303
     16 O                    -0.177906
     17 O                    -0.215489
     18 C                    -0.144156
     19 C                     0.026014
     20 C                    -0.143931
     21 C                    -0.143889
     22 C                     0.024612
     23 O                    -0.185858
     24 H                     0.085919
     25 H                     0.085018
     26 H                     0.082958
     27 H                     0.078673
     28 H                     0.073568
     29 H                     0.079034
     30 H                     0.073464
     31 H                     0.091826
     32 O                    -0.223070
     33 C                    -0.154597
     34 C                     0.024067
     35 C                    -0.143994
     36 C                    -0.144064
     37 C                     0.025726
     38 O                    -0.187118
     39 H                     0.085058
     40 H                     0.086144
     41 H                     0.091731
     42 H                     0.091188
     43 H                     0.078555
     44 H                     0.073130
     45 H                     0.078259
     46 H                     0.073235
     47 H                     0.083149
     48 H                     0.075613
     49 H                     0.110183
     50 H                     0.118466
     51 H                     0.085142
     52 H                     0.088263
     53 H                     0.095373
     54 H                     0.094087
     55 H                     0.084115
     56 H                     0.103392
  ----------------------------------------
  Sum of atomic charges =     0.000000

                    Cartesian Multipole Moments
 -----------------------------------------------------------------
    Charge (ESU x 10^10)
                 0.0000
    Dipole Moment (Debye)
         X      -1.3038      Y       2.1547      Z       3.0429
       Tot       3.9499
    Quadrupole Moments (Debye-Ang)
        XX    -154.8833     XY     -10.1920     YY    -159.3959
        XZ       9.3450     YZ      -2.4615     ZZ    -161.6280

 Total job time:  140.00s(wall), 6679.45s(cpu)
        *  Thank you very much for using Q-Chem.  Have a nice day.  *
