 Q-Chem 5.0, Q-Chem, Inc., Pleasanton, CA (2017)
 Q-Chem 5.0.1 for Intel X86 EM64T Linux

User input:
--------------------------------------------------------------
$molecule
0  1
O -3.94934 -3.66094 2.70899
C -3.26408 -4.56952 2.26188
C -3.36658 -6.02376 2.66595
C -2.16419 -6.63423 3.40448
C -1.06704 -5.67669 3.81373
O -0.30143 -5.35722 2.72874
C 0.7544 -4.44029 3.0349
C 1.92856 -4.65467 2.08541
O 1.68146 -3.98051 0.84149
C 2.29256 -2.77834 0.69836
C 1.99417 -2.12085 -0.62804
C 1.37298 -0.7198 -0.53081
C 1.47036 -0.04632 0.82331
O 1.12774 1.10084 1.07067
O -2.33536 -4.27951 1.31279
O 1.77264 -0.73147 1.95553
O 3.30805 -2.47831 1.32261
C 1.81137 -0.22276 3.24048
C 3.2499 -1.82227 -1.47076
C 2.86632 -1.70451 -2.94508
C 2.10906 -0.39212 -2.93545
C 2.32217 0.03755 -1.47908
O 3.58125 -0.49568 -1.1449
H 1.33348 -2.80536 -1.20942
H 0.30896 -0.67846 -0.85155
H 4.0557 -2.57743 -1.34012
H 3.81268 -1.56448 -3.51541
H 2.31077 -2.56952 -3.36695
H 2.61667 0.31005 -3.63351
H 1.02804 -0.4644 -3.18425
H 2.22287 1.14175 -1.38517
O -0.85462 -5.30825 4.96485
C -2.06886 -3.01085 0.84115
C -4.48446 -6.26057 3.70381
C -4.92838 -7.72277 3.67492
C -3.74157 -8.38786 4.33401
C -2.88611 -7.16147 4.66543
O -3.82952 -6.15695 4.94165
H -3.61403 -6.58243 1.73575
H -1.68556 -7.4808 2.86289
H -1.72382 -2.35889 1.67204
H -5.3683 -5.60127 3.55973
H -5.8088 -7.82241 4.34958
H -5.19124 -8.10807 2.66628
H -4.08804 -8.871 5.27499
H -3.19996 -9.12816 3.70646
H -2.18189 -7.41081 5.4898
H -2.97802 -2.57645 0.37354
H -1.26508 -3.06766 0.07839
H 2.09448 -1.03394 3.94228
H 0.81162 0.16551 3.52986
H 2.56702 0.58874 3.30754
H 2.832 -4.26755 2.60712
H 2.13384 -5.73357 1.91895
H 1.19558 -4.70114 4.02628
H 0.409 -3.38426 3.07695
$end

$opt
CONSTRAINT
tors           1           2           3           4    -113.844
tors           3           4           5           6     -77.128
tors           4           5           6           7    +179.402
tors           5           6           7           8    +151.386
tors           6           7           8           9     +81.602
tors           7           8           9          10     +99.596
tors           8           9          10          11    -180.000
tors           9          10          11          12    +123.058
tors          11          12          13          14    +174.195
ENDCONSTRAINT
$end

$rem
JOBTYPE                   OPT
METHOD                    B3LYP
DFT_D                     d3_op
BASIS                     STO-3G
GEOM_OPT_MAX_CYCLES       100
GEOM_OPT_TOL_GRADIENT     300
GEOM_OPT_TOL_DISPLACEMENT 1200
GEOM_OPT_TOL_ENERGY       100
SYMMETRY                  False
THRESH                    12
SCF_CONVERGENCE           8
MAX_SUB_FILE_NUM          128
MEM_STATIC                400
MEM_TOTAL                 4000
$end
--------------------------------------------------------------

   15   -1510.1290819414      6.94E-09 Convergence criterion met
 Total energy in the final basis set = -1510.12908194
   14   -1510.2025388688      6.16E-09 Convergence criterion met
 Total energy in the final basis set = -1510.20253887
   13   -1510.2428229234      9.42E-09 Convergence criterion met
 Total energy in the final basis set = -1510.24282292
   15   -1510.2609629006      1.29E-09 Convergence criterion met
 Total energy in the final basis set = -1510.26096290
   14   -1510.2701239987      6.37E-09 Convergence criterion met
 Total energy in the final basis set = -1510.27012400
   13   -1510.2736385370      8.31E-09 Convergence criterion met
 Total energy in the final basis set = -1510.27363854
   13   -1510.2758517882      7.03E-09 Convergence criterion met
 Total energy in the final basis set = -1510.27585179
   14   -1510.2772028578      2.56E-09 Convergence criterion met
   10   -1510.2814839074      8.35E-09 Convergence criterion met
 Total energy in the final basis set = -1510.28148391
   11   -1510.2814852703      2.56E-09 Convergence criterion met
 Total energy in the final basis set = -1510.28148527
    9   -1510.2814799293      9.29E-09 Convergence criterion met
 Total energy in the final basis set = -1510.28147993
    9   -1510.2814822717      8.72E-09 Convergence criterion met
 Total energy in the final basis set = -1510.28148227
    9   -1510.2814844927      7.95E-09 Convergence criterion met
 Total energy in the final basis set = -1510.28148449
    9   -1510.2814929972      4.47E-09 Convergence criterion met
 Total energy in the final basis set = -1510.28149300

             Standard Nuclear Orientation (Angstroms)
    I     Atom           X                Y                Z
 ----------------------------------------------------------------
    1      O      -2.7542088661     1.3532484922     2.1161725573
    2      C      -2.7392163438     1.2193393169     0.8718992778
    3      C      -3.9792717736     0.9652843637    -0.0626139615
    4      C      -4.0209439943    -0.4501820002    -0.7987262974
    5      C      -2.8686338931    -1.4150944544    -0.3534453601
    6      O      -1.6740550987    -0.9886258184    -1.0066857123
    7      C      -0.5279207186    -1.8433079232    -0.6271886002
    8      C       0.4934563895    -1.8577321890    -1.8101173456
    9      O       1.3276932627    -0.6339945345    -1.7379503086
   10      C       2.5970868330    -0.9170806029    -1.1354153320
   11      C       3.3987713492     0.4310553729    -1.1056046334
   12      C       3.8911324572     0.9014127575     0.3225560982
   13      C       3.2224489524     0.2944436448     1.6047202582
   14      O       3.5990896514     0.5133984652     2.7765420286
   15      O      -1.5757774493     1.3924541368     0.0562774920
   16      O       2.0118719855    -0.4190231605     1.2994984357
   17      O       2.9870687464    -2.0596855278    -0.8125471996
   18      C       1.4444110071    -0.9704796650     2.5571657712
   19      C       4.8046016230     0.1736112740    -1.8058352054
   20      C       5.5567562771     1.5486345114    -2.0136820776
   21      C       6.1022412583     1.8251407519    -0.5633058933
   22      C       5.4576939783     0.6216581473     0.2274204027
   23      O       5.5685078096    -0.5004462265    -0.7302232392
   24      H       2.7984197692     1.2085535392    -1.6086258246
   25      H       3.7298945586     1.9930663765     0.4105391901
   26      H       4.7517810474    -0.4720804479    -2.7037206422
   27      H       6.3754693979     1.4358756433    -2.7417531029
   28      H       4.8756147577     2.3386313564    -2.3690790976
   29      H       7.2014868198     1.7584699611    -0.5281789684
   30      H       5.7932286313     2.8051918430    -0.1661702027
   31      H       5.9375775600     0.3691392686     1.1929325758
   32      O      -2.9435782417    -2.3946668979     0.4198098874
   33      C      -0.3808037187     1.6647485485     0.8919938540
   34      C      -5.3317940748     0.9135179017     0.7619420468
   35      C      -6.5280181336     1.1728585700    -0.2351538374
   36      C      -6.5723232729    -0.1933660552    -1.0159311549
   37      C      -5.4203639017    -0.9973870227    -0.2946398432
   38      O      -5.4771641144    -0.5199622022     1.1065707174
   39      H      -3.9932786906     1.7752791608    -0.8152349595
   40      H      -3.9767362283    -0.3232862368    -1.8951846164
   41      H      -0.6773978231     1.6912053786     1.9600029915
   42      H      -5.3219753652     1.5322811212     1.6800005507
   43      H      -7.4614873253     1.3483607398     0.3230909636
   44      H      -6.3428378816     2.0353012923    -0.8952684954
   45      H      -7.5397574176    -0.7037918400    -0.8855203434
   46      H      -6.3799119937    -0.0726388949    -2.0941447489
   47      H      -5.5110913030    -2.1003688684    -0.3283817371
   48      H       0.0394884333     2.6455568278     0.5953885531
   49      H       0.3828367094     0.8744096678     0.7256118286
   50      H       0.5050961934    -1.4805826576     2.2778827214
   51      H       1.2269418788    -0.1663638404     3.2884572696
   52      H       2.1368455613    -1.6994144830     3.0233706254
   53      H       1.1502023966    -2.7512862169    -1.7263275339
   54      H      -0.0363858540    -1.8497744116    -2.7840360617
   55      H      -0.8876738272    -2.8686170113    -0.3891781194
   56      H      -0.0286306597    -1.4322810023     0.2744092691
 ----------------------------------------------------------------

    8   -1510.2814929327      9.59E-09 Convergence criterion met
 Total energy in the final basis set = -1510.28149293
 Final energy is   -1510.28149293269
 **  OPTIMIZATION CONVERGED  **

                    Orbital Energies (a.u.)
 --------------------------------------------------------------

 Alpha MOs
 -- Occupied --
-18.949 -18.933 -18.931 -18.929 -18.892 -18.884 -18.884 -18.875
-18.874 -18.871 -10.110 -10.099 -10.099 -10.097 -10.071 -10.071
-10.070 -10.064 -10.064 -10.057 -10.056 -10.050 -10.045 -10.041
-10.038 -10.037 -10.024 -10.023 -10.019 -10.018  -1.022  -1.015
 -1.009  -1.006  -0.975  -0.967  -0.946  -0.940  -0.933  -0.931
 -0.768  -0.762  -0.730  -0.724  -0.714  -0.706  -0.698  -0.669
 -0.657  -0.620  -0.600  -0.581  -0.550  -0.546  -0.540  -0.536
 -0.517  -0.510  -0.485  -0.476  -0.464  -0.459  -0.455  -0.450
 -0.438  -0.430  -0.428  -0.423  -0.419  -0.414  -0.408  -0.401
 -0.390  -0.386  -0.376  -0.368  -0.365  -0.359  -0.355  -0.350
 -0.344  -0.341  -0.340  -0.334  -0.331  -0.330  -0.328  -0.317
 -0.310  -0.310  -0.305  -0.301  -0.296  -0.293  -0.280  -0.277
 -0.273  -0.259  -0.254  -0.245  -0.239  -0.238  -0.232  -0.191
 -0.183  -0.171  -0.164  -0.163  -0.160  -0.154  -0.151  -0.146
 -0.142

          Ground-State Mulliken Net Atomic Charges

     Atom                 Charge (a.u.)
  ----------------------------------------
      1 O                    -0.214641
      2 C                     0.205787
      3 C                    -0.077253
      4 C                    -0.077159
      5 C                     0.206539
      6 O                    -0.168632
      7 C                    -0.051568
      8 C                    -0.052393
      9 O                    -0.173344
     10 C                     0.214463
     11 C                    -0.079635
     12 C                    -0.079676
     13 C                     0.211118
     14 O                    -0.209723
     15 O                    -0.165389
     16 O                    -0.170760
     17 O                    -0.215324
     18 C                    -0.128888
     19 C                     0.026413
     20 C                    -0.145253
     21 C                    -0.142290
     22 C                     0.026069
     23 O                    -0.185008
     24 H                     0.088095
     25 H                     0.085983
     26 H                     0.083804
     27 H                     0.079048
     28 H                     0.074048
     29 H                     0.079355
     30 H                     0.074160
     31 H                     0.089096
     32 O                    -0.212683
     33 C                    -0.143537
     34 C                     0.023730
     35 C                    -0.143657
     36 C                    -0.144539
     37 C                     0.024795
     38 O                    -0.187233
     39 H                     0.085187
     40 H                     0.085831
     41 H                     0.096353
     42 H                     0.089471
     43 H                     0.078092
     44 H                     0.072535
     45 H                     0.077965
     46 H                     0.072426
     47 H                     0.087258
     48 H                     0.080209
     49 H                     0.093397
     50 H                     0.093078
     51 H                     0.094711
     52 H                     0.095034
     53 H                     0.100436
     54 H                     0.091898
     55 H                     0.094411
     56 H                     0.087784
  ----------------------------------------
  Sum of atomic charges =    -0.000000

                    Cartesian Multipole Moments
 -----------------------------------------------------------------
    Charge (ESU x 10^10)
                -0.0000
    Dipole Moment (Debye)
         X      -0.0590      Y       2.3872      Z      -3.1201
       Tot       3.9290
    Quadrupole Moments (Debye-Ang)
        XX    -159.6898     XY       4.9492     YY    -159.0233
        XZ       6.7671     YZ       0.2410     ZZ    -162.4384

 Total job time:  115.98s(wall), 5532.40s(cpu)
        *  Thank you very much for using Q-Chem.  Have a nice day.  *
