 Q-Chem 5.0, Q-Chem, Inc., Pleasanton, CA (2017)
 Q-Chem 5.0.1 for Intel X86 EM64T Linux

User input:
--------------------------------------------------------------
$molecule
0  1
O -2.3549572188 0.0175017007 2.1299752494
C -2.5860299964 0.7300581864 1.1277456867
C -3.9314721957 0.8826656768 0.3394119595
C -4.0626115828 -0.2498174807 -0.7758035843
C -2.968539511 -1.3618954466 -0.5940009201
O -1.7637657385 -0.9297759012 -1.2420587172
C -0.7121182152 -1.9620194578 -1.0689016232
C 0.5146057404 -1.5560199785 -1.9409368308
O 1.0838565457 -0.264031948 -1.4808954942
C 2.4788685114 -0.4388676814 -1.1478702076
C 3.0655201539 0.9500366603 -0.7158610822
C 3.9899117405 0.8601011379 0.5599506446
C 3.6812280477 -0.3105495338 1.5574479016
O 4.3387597491 -0.6173228307 2.5746165211
O -1.6025177289 1.4904416328 0.4216909906
O 2.3815644702 -0.8417500667 1.2618094698
O 3.0988700765 -1.5093495106 -1.3246942737
C 2.0122789687 -1.8994345183 2.2283568097
C 4.1655799008 1.3275021012 -1.8052333537
C 4.771280381 2.7542737707 -1.491826952
C 5.7861817593 2.4170720559 -0.3357873635
C 5.4442767626 0.8969830493 -0.0867901998
O 5.2553465999 0.3824776197 -1.4626090596
H 2.258464977 1.694685581 -0.6205652509
H 3.8506990425 1.7796509577 1.1608172515
H 3.8389713882 1.1765972643 -2.852514649
H 5.282994127 3.160512808 -2.3784283173
H 3.9928614786 3.4682515257 -1.1773456477
H 6.8292809146 2.5230626239 -0.6747805358
H 5.6383305538 3.037491016 0.5625679393
H 6.2103377161 0.3094476217 0.4553761394
O -3.0889197801 -2.4595003522 -0.0098666336
C -0.2361350738 1.1452046019 0.8841517009
C -5.2360797551 0.6112795592 1.2007140295
C -6.4578242091 1.2341694633 0.4181014954
C -6.5989224265 0.2155486878 -0.7736655012
C -5.4837742628 -0.8443047593 -0.4119943376
O -5.4601728115 -0.8466293292 1.0700943016
H -3.9496900535 1.8844424321 -0.1249892052
H -4.0011754237 0.1705589175 -1.7951166725
H 0.2833273115 0.6086429974 0.056328166
H -5.1519733322 0.8950205748 2.2675063179
H -7.3586445286 1.2394249199 1.0522508728
H -6.2570588405 2.2630751633 0.0793750064
H -7.5925633357 -0.2595704264 -0.7850930143
H -6.420673475 0.6842156934 -1.7548280514
H -5.6578573616 -1.8686421562 -0.7940191601
H -0.2962501053 0.5030124991 1.7849527246
H 0.2999884104 2.0826311603 1.1265906109
H 0.9545382128 -2.1469525528 2.0212363882
H 2.1160244089 -1.5466456737 3.274340424
H 2.6381787037 -2.8052823536 2.0940494814
H 1.3185653895 -2.3236165416 -1.874550984
H 0.2000671298 -1.4375055633 -2.9993988688
H -1.0836638509 -2.9604271413 -1.3898359038
H -0.4155254032 -2.0372582859 0.0003741165
$end

$rem
JOBTYPE                   OPT
METHOD                    B3LYP
DFT_D                     d3_op
BASIS                     STO-3G
GEOM_OPT_MAX_CYCLES       100
GEOM_OPT_TOL_GRADIENT     300
GEOM_OPT_TOL_DISPLACEMENT 1200
GEOM_OPT_TOL_ENERGY       100
SYMMETRY                  False
THRESH                    12
SCF_CONVERGENCE           8
MAX_SUB_FILE_NUM          128
MEM_STATIC                400
MEM_TOTAL                 4000
$end
--------------------------------------------------------------

   16   -1510.2829426067      5.97E-09 Convergence criterion met
 Total energy in the final basis set = -1510.28294261
   15   -1510.2773670293      2.70E-09 Convergence criterion met
 Total energy in the final basis set = -1510.27736703
   14   -1510.2836033612      9.19E-09 Convergence criterion met
 Total energy in the final basis set = -1510.28360336
   14   -1510.2840921787      5.31E-09 Convergence criterion met
 Total energy in the final basis set = -1510.28409218
   13   -1510.2861507575      8.95E-09 Convergence criterion met
 Total energy in the final basis set = -1510.28615076
   13   -1510.2875137593      6.46E-09 Convergence criterion met
 Total energy in the final basis set = -1510.28751376
   14   -1510.2890410446      5.09E-09 Convergence criterion met
 Total energy in the final basis set = -1510.28904104
   14   -1510.2901367481      4.72E-09 Convergence criterion met
   11   -1510.2978388354      5.01E-09 Convergence criterion met
 Total energy in the final basis set = -1510.29783884
   11   -1510.2978513524      6.96E-09 Convergence criterion met
 Total energy in the final basis set = -1510.29785135
   11   -1510.2978527561      6.63E-09 Convergence criterion met
 Total energy in the final basis set = -1510.29785276
   11   -1510.2978601612      2.29E-09 Convergence criterion met
 Total energy in the final basis set = -1510.29786016
    9   -1510.2978612260      9.20E-09 Convergence criterion met
 Total energy in the final basis set = -1510.29786123
    9   -1510.2978627409      5.77E-09 Convergence criterion met
 Total energy in the final basis set = -1510.29786274

             Standard Nuclear Orientation (Angstroms)
    I     Atom           X                Y                Z
 ----------------------------------------------------------------
    1      O       1.6967674476    -0.6901393269    -1.2337071664
    2      C       2.1710601667     0.4447199914    -1.0020639399
    3      C       3.6679620707     0.7854465278    -0.6748935934
    4      C       4.0780327145     0.4569698200     0.8249270596
    5      C       2.9651858537    -0.2738992650     1.6580901090
    6      O       1.7027493040     0.3687707836     1.4259385635
    7      C       0.6063057119    -0.4098471121     2.0517734014
    8      C      -0.4684538415     0.5683161101     2.6396631439
    9      O      -1.3428824704     1.1682575052     1.6000618220
   10      C      -2.3600928926     0.2279460617     1.2037924156
   11      C      -3.3095123742     0.9203730395     0.1721289684
   12      C      -3.6584928226     0.0037236931    -1.0739986385
   13      C      -2.9245832182    -1.3864606431    -1.0729008779
   14      O      -3.4418398699    -2.5223751453    -1.0570651609
   15      O       1.4617765554     1.6802676359    -1.0699622700
   16      O      -1.5176543879    -1.1371242162    -1.1385754749
   17      O      -2.4515784246    -0.9295478248     1.6653644454
   18      C      -0.7442382904    -2.3999517545    -1.1114975009
   19      C      -4.7620580922     1.1203380952     0.7973489263
   20      C      -5.5713381920     2.1114274476    -0.1303065289
   21      C      -5.9277421892     1.1724105388    -1.3422957005
   22      C      -5.2235671471    -0.1693604920    -0.9029872162
   23      O      -5.4091017874    -0.1890896086     0.5678913435
   24      H      -2.8609144381     1.8803254342    -0.1346700630
   25      H      -3.4041398214     0.5242858974    -2.0154973393
   26      H      -4.7671157827     1.3738791254     1.8752898857
   27      H      -6.4765266987     2.4672378960     0.3867172180
   28      H      -4.9687900044     2.9834383186    -0.4305629923
   29      H      -7.0158420270     1.0241525455    -1.4304590768
   30      H      -5.5440256725     1.5521958454    -2.3028898991
   31      H      -5.6229509834    -1.0987482535    -1.3534151408
   32      O       3.1214348885    -1.2534327857     2.4183796689
   33      C      -0.0053190030     1.4750792832    -1.1231808759
   34      C       4.6880175258    -0.1412813443    -1.4656505597
   35      C       6.1075738765     0.5497908307    -1.4305671586
   36      C       6.5332068701     0.2879262613     0.0626594392
   37      C       5.2940515425    -0.5316461669     0.5955579205
   38      O       4.8546881487    -1.3169293952    -0.5816434142
   39      H       3.8265219748     1.8552131195    -0.8963006909
   40      H       4.3780661189     1.3748164526     1.3637368885
   41      H      -0.4270190346     1.6284753065    -0.1044764428
   42      H       4.3370228153    -0.4584078482    -2.4667838848
   43      H       6.7931096902     0.0562267737    -2.1377435996
   44      H       6.0554580868     1.6220840095    -1.6778610797
   45      H       7.4502726504    -0.3194144380     0.1210848192
   46      H       6.6897329117     1.2199512557     0.6291726139
   47      H       5.4875069655    -1.2006930906     1.4566618248
   48      H      -0.2819437753     0.4506156553    -1.4514673325
   49      H      -0.4202329424     2.2264433899    -1.8207856018
   50      H       0.3142988114    -2.0691388660    -1.1602180615
   51      H      -0.9919057886    -3.0444867916    -1.9787043665
   52      H      -0.9383414025    -2.9685951349    -0.1794782692
   53      H      -1.0853790266     0.0094254138     3.3759086734
   54      H       0.0303734065     1.4218030166     3.1418372331
   55      H       1.0339006977    -1.0507249358     2.8535180663
   56      H       0.1398214434    -1.0641756046     1.2845708360
 ----------------------------------------------------------------

    9   -1510.2978636789      8.91E-09 Convergence criterion met
 Total energy in the final basis set = -1510.29786368
 Final energy is   -1510.29786367886
 **  OPTIMIZATION CONVERGED  **

                    Orbital Energies (a.u.)
 --------------------------------------------------------------

 Alpha MOs
 -- Occupied --
-18.946 -18.941 -18.929 -18.923 -18.890 -18.887 -18.886 -18.885
-18.875 -18.864 -10.108 -10.107 -10.098 -10.097 -10.083 -10.074
-10.065 -10.059 -10.059 -10.058 -10.045 -10.043 -10.042 -10.039
-10.034 -10.034 -10.023 -10.022 -10.021 -10.019  -1.024  -1.018
 -1.006  -0.999  -0.973  -0.970  -0.949  -0.942  -0.933  -0.928
 -0.767  -0.763  -0.731  -0.724  -0.715  -0.706  -0.701  -0.654
 -0.650  -0.622  -0.597  -0.584  -0.549  -0.545  -0.539  -0.537
 -0.514  -0.510  -0.488  -0.474  -0.458  -0.456  -0.454  -0.452
 -0.439  -0.434  -0.430  -0.419  -0.414  -0.405  -0.402  -0.399
 -0.394  -0.383  -0.374  -0.365  -0.365  -0.357  -0.356  -0.350
 -0.345  -0.344  -0.335  -0.333  -0.330  -0.329  -0.320  -0.313
 -0.310  -0.308  -0.306  -0.301  -0.294  -0.286  -0.285  -0.278
 -0.271  -0.267  -0.255  -0.248  -0.237  -0.234  -0.231  -0.195
 -0.178  -0.174  -0.166  -0.163  -0.161  -0.150  -0.148  -0.146
 -0.144

          Ground-State Mulliken Net Atomic Charges

     Atom                 Charge (a.u.)
  ----------------------------------------
      1 O                    -0.229428
      2 C                     0.220672
      3 C                    -0.080175
      4 C                    -0.077638
      5 C                     0.214090
      6 O                    -0.172441
      7 C                    -0.056033
      8 C                    -0.049123
      9 O                    -0.169811
     10 C                     0.212246
     11 C                    -0.079159
     12 C                    -0.079248
     13 C                     0.214176
     14 O                    -0.206024
     15 O                    -0.172464
     16 O                    -0.179549
     17 O                    -0.208334
     18 C                    -0.142456
     19 C                     0.026079
     20 C                    -0.143873
     21 C                    -0.143846
     22 C                     0.024775
     23 O                    -0.185684
     24 H                     0.086911
     25 H                     0.084295
     26 H                     0.082440
     27 H                     0.078872
     28 H                     0.073785
     29 H                     0.079017
     30 H                     0.073473
     31 H                     0.091775
     32 O                    -0.207770
     33 C                    -0.154386
     34 C                     0.025058
     35 C                    -0.143617
     36 C                    -0.144431
     37 C                     0.023955
     38 O                    -0.188187
     39 H                     0.085812
     40 H                     0.085911
     41 H                     0.093864
     42 H                     0.084810
     43 H                     0.077994
     44 H                     0.073428
     45 H                     0.078600
     46 H                     0.072897
     47 H                     0.090477
     48 H                     0.105259
     49 H                     0.074081
     50 H                     0.116828
     51 H                     0.084283
     52 H                     0.085676
     53 H                     0.096923
     54 H                     0.094913
     55 H                     0.103174
     56 H                     0.097131
  ----------------------------------------
  Sum of atomic charges =    -0.000000

                    Cartesian Multipole Moments
 -----------------------------------------------------------------
    Charge (ESU x 10^10)
                -0.0000
    Dipole Moment (Debye)
         X       0.8987      Y       4.4517      Z      -0.2904
       Tot       4.5507
    Quadrupole Moments (Debye-Ang)
        XX    -153.8518     XY      -4.3125     YY    -167.0387
        XZ       4.3729     YZ       2.3078     ZZ    -154.1284

 Total job time:  110.86s(wall), 5287.56s(cpu)
        *  Thank you very much for using Q-Chem.  Have a nice day.  *
