 Q-Chem 5.0, Q-Chem, Inc., Pleasanton, CA (2017)
 Q-Chem 5.0.1 for Intel X86 EM64T Linux

User input:
--------------------------------------------------------------
$molecule
0  1
O -3.94934 -3.66094 2.70899
C -3.26408 -4.56952 2.26188
C -3.36658 -6.02376 2.66595
C -2.55813 -6.47011 3.89519
C -1.87811 -5.37643 4.68861
O -0.67028 -5.0772 4.12555
C 0.03034 -4.03678 4.81542
C 1.43847 -3.88634 4.24915
O 1.37167 -3.4949 2.86886
C 2.01827 -2.3443 2.55711
C 1.95247 -2.01265 1.08526
C 1.66134 -0.53898 0.76617
C 1.83252 0.43253 1.91664
O 1.73405 1.64855 1.83812
O -2.26321 -4.26803 1.39409
O 1.75721 0.02566 3.21033
O 2.99497 -1.98539 3.21267
C 1.78832 0.83297 4.33306
C 3.29823 -2.20208 0.35566
C 3.05058 -2.40489 -1.13833
C 2.60437 -1.01412 -1.54047
C 2.81453 -0.26607 -0.21845
O 3.89725 -0.93138 0.38538
H 1.20602 -2.68929 0.61216
H 0.65758 -0.3647 0.32043
H 3.90401 -3.04061 0.76398
H 4.04111 -2.60928 -1.60473
H 2.34715 -3.22354 -1.40284
H 3.29752 -0.63719 -2.32494
H 1.55169 -0.93414 -1.88874
H 2.95973 0.82032 -0.41011
O -2.26994 -4.94265 5.76752
C -1.97364 -2.99312 0.95516
C -4.79792 -6.36861 3.12953
C -5.04552 -7.87126 3.00378
C -4.20173 -8.38829 4.14657
C -3.70575 -7.06678 4.74275
O -4.7676 -6.17449 4.51949
H -3.14977 -6.62707 1.75572
H -1.80509 -7.26217 3.68342
H -1.68275 -2.34955 1.8131
H -5.58365 -5.80961 2.57462
H -6.11738 -8.05489 3.24389
H -4.81281 -8.30278 2.00651
H -4.87061 -8.90578 4.87011
H -3.36573 -9.06069 3.85625
H -3.41481 -7.22327 5.80521
H -2.8542 -2.55695 0.43689
H -1.13011 -3.03922 0.23801
H 1.7174 0.19635 5.2387
H 0.92939 1.53739 4.32524
H 2.74284 1.4002 4.36828
H 1.97247 -3.16142 4.90456
H 1.96669 -4.86088 4.32338
H 0.15009 -4.30891 5.88972
H -0.51963 -3.07191 4.7381
$end

$opt
CONSTRAINT
tors           1           2           3           4     -86.333
tors           3           4           5           6     -84.569
tors           4           5           6           7    +179.402
tors           5           6           7           8    +172.453
tors           6           7           8           9     +62.666
tors           7           8           9          10    +123.035
tors           8           9          10          11    +177.978
tors           9          10          11          12    +136.652
tors          11          12          13          14    +174.902
ENDCONSTRAINT
$end

$rem
JOBTYPE                   OPT
METHOD                    B3LYP
DFT_D                     d3_op
BASIS                     STO-3G
GEOM_OPT_MAX_CYCLES       100
GEOM_OPT_TOL_GRADIENT     300
GEOM_OPT_TOL_DISPLACEMENT 1200
GEOM_OPT_TOL_ENERGY       100
SYMMETRY                  False
THRESH                    12
SCF_CONVERGENCE           8
MAX_SUB_FILE_NUM          128
MEM_STATIC                400
MEM_TOTAL                 4000
$end
--------------------------------------------------------------

   15   -1510.1193445605      7.37E-09 Convergence criterion met
 Total energy in the final basis set = -1510.11934456
   14   -1510.1940053016      4.28E-09 Convergence criterion met
 Total energy in the final basis set = -1510.19400530
   14   -1510.2347326569      8.41E-09 Convergence criterion met
 Total energy in the final basis set = -1510.23473266
   14   -1510.2554238719      2.48E-09 Convergence criterion met
 Total energy in the final basis set = -1510.25542387
   14   -1510.2658552595      4.94E-09 Convergence criterion met
 Total energy in the final basis set = -1510.26585526
   14   -1510.2704023610      3.65E-09 Convergence criterion met
 Total energy in the final basis set = -1510.27040236
   13   -1510.2726455306      7.02E-09 Convergence criterion met
 Total energy in the final basis set = -1510.27264553
   13   -1510.2739434631      5.03E-09 Convergence criterion met
   13   -1510.2829260476      5.14E-09 Convergence criterion met
 Total energy in the final basis set = -1510.28292605
   11   -1510.2830270985      6.86E-09 Convergence criterion met
 Total energy in the final basis set = -1510.28302710
   10   -1510.2830512167      9.07E-09 Convergence criterion met
 Total energy in the final basis set = -1510.28305122
   11   -1510.2830805296      5.22E-09 Convergence criterion met
 Total energy in the final basis set = -1510.28308053
   10   -1510.2830923844      9.29E-09 Convergence criterion met
 Total energy in the final basis set = -1510.28309238
   11   -1510.2830993504      2.53E-09 Convergence criterion met
 Total energy in the final basis set = -1510.28309935

             Standard Nuclear Orientation (Angstroms)
    I     Atom           X                Y                Z
 ----------------------------------------------------------------
    1      O      -2.3549572188     0.0175017007     2.1299752494
    2      C      -2.5860299964     0.7300581864     1.1277456867
    3      C      -3.9314721957     0.8826656768     0.3394119595
    4      C      -4.0626115828    -0.2498174807    -0.7758035843
    5      C      -2.9685395110    -1.3618954466    -0.5940009201
    6      O      -1.7637657385    -0.9297759012    -1.2420587172
    7      C      -0.7121182152    -1.9620194578    -1.0689016232
    8      C       0.5146057404    -1.5560199785    -1.9409368308
    9      O       1.0838565457    -0.2640319480    -1.4808954942
   10      C       2.4788685114    -0.4388676814    -1.1478702076
   11      C       3.0655201539     0.9500366603    -0.7158610822
   12      C       3.9899117405     0.8601011379     0.5599506446
   13      C       3.6812280477    -0.3105495338     1.5574479016
   14      O       4.3387597491    -0.6173228307     2.5746165211
   15      O      -1.6025177289     1.4904416328     0.4216909906
   16      O       2.3815644702    -0.8417500667     1.2618094698
   17      O       3.0988700765    -1.5093495106    -1.3246942737
   18      C       2.0122789687    -1.8994345183     2.2283568097
   19      C       4.1655799008     1.3275021012    -1.8052333537
   20      C       4.7712803810     2.7542737707    -1.4918269520
   21      C       5.7861817593     2.4170720559    -0.3357873635
   22      C       5.4442767626     0.8969830493    -0.0867901998
   23      O       5.2553465999     0.3824776197    -1.4626090596
   24      H       2.2584649770     1.6946855810    -0.6205652509
   25      H       3.8506990425     1.7796509577     1.1608172515
   26      H       3.8389713882     1.1765972643    -2.8525146490
   27      H       5.2829941270     3.1605128080    -2.3784283173
   28      H       3.9928614786     3.4682515257    -1.1773456477
   29      H       6.8292809146     2.5230626239    -0.6747805358
   30      H       5.6383305538     3.0374910160     0.5625679393
   31      H       6.2103377161     0.3094476217     0.4553761394
   32      O      -3.0889197801    -2.4595003522    -0.0098666336
   33      C      -0.2361350738     1.1452046019     0.8841517009
   34      C      -5.2360797551     0.6112795592     1.2007140295
   35      C      -6.4578242091     1.2341694633     0.4181014954
   36      C      -6.5989224265     0.2155486878    -0.7736655012
   37      C      -5.4837742628    -0.8443047593    -0.4119943376
   38      O      -5.4601728115    -0.8466293292     1.0700943016
   39      H      -3.9496900535     1.8844424321    -0.1249892052
   40      H      -4.0011754237     0.1705589175    -1.7951166725
   41      H       0.2833273115     0.6086429974     0.0563281660
   42      H      -5.1519733322     0.8950205748     2.2675063179
   43      H      -7.3586445286     1.2394249199     1.0522508728
   44      H      -6.2570588405     2.2630751633     0.0793750064
   45      H      -7.5925633357    -0.2595704264    -0.7850930143
   46      H      -6.4206734750     0.6842156934    -1.7548280514
   47      H      -5.6578573616    -1.8686421562    -0.7940191601
   48      H      -0.2962501053     0.5030124991     1.7849527246
   49      H       0.2999884104     2.0826311603     1.1265906109
   50      H       0.9545382128    -2.1469525528     2.0212363882
   51      H       2.1160244089    -1.5466456737     3.2743404240
   52      H       2.6381787037    -2.8052823536     2.0940494814
   53      H       1.3185653895    -2.3236165416    -1.8745509840
   54      H       0.2000671298    -1.4375055633    -2.9993988688
   55      H      -1.0836638509    -2.9604271413    -1.3898359038
   56      H      -0.4155254032    -2.0372582859     0.0003741165
 ----------------------------------------------------------------

    9   -1510.2830996022      5.09E-09 Convergence criterion met
 Total energy in the final basis set = -1510.28309960
 Final energy is   -1510.28309960218
 **  OPTIMIZATION CONVERGED  **

                    Orbital Energies (a.u.)
 --------------------------------------------------------------

 Alpha MOs
 -- Occupied --
-18.944 -18.939 -18.933 -18.923 -18.893 -18.884 -18.883 -18.879
-18.876 -18.869 -10.108 -10.106 -10.097 -10.093 -10.077 -10.072
-10.070 -10.066 -10.065 -10.057 -10.057 -10.045 -10.044 -10.039
-10.037 -10.034 -10.026 -10.024 -10.019 -10.018  -1.022  -1.015
 -1.010  -1.002  -0.976  -0.967  -0.945  -0.941  -0.933  -0.928
 -0.770  -0.762  -0.732  -0.724  -0.715  -0.706  -0.700  -0.668
 -0.651  -0.620  -0.598  -0.578  -0.552  -0.547  -0.541  -0.535
 -0.517  -0.508  -0.488  -0.475  -0.464  -0.459  -0.454  -0.451
 -0.441  -0.435  -0.428  -0.419  -0.414  -0.413  -0.407  -0.401
 -0.395  -0.387  -0.373  -0.368  -0.363  -0.358  -0.355  -0.351
 -0.346  -0.341  -0.339  -0.335  -0.329  -0.328  -0.328  -0.319
 -0.311  -0.308  -0.305  -0.301  -0.297  -0.291  -0.278  -0.277
 -0.272  -0.258  -0.255  -0.249  -0.240  -0.238  -0.231  -0.188
 -0.180  -0.177  -0.167  -0.160  -0.158  -0.156  -0.148  -0.146
 -0.141

          Ground-State Mulliken Net Atomic Charges

     Atom                 Charge (a.u.)
  ----------------------------------------
      1 O                    -0.215691
      2 C                     0.205078
      3 C                    -0.078116
      4 C                    -0.077237
      5 C                     0.205058
      6 O                    -0.171945
      7 C                    -0.047805
      8 C                    -0.055450
      9 O                    -0.172121
     10 C                     0.221210
     11 C                    -0.077953
     12 C                    -0.079532
     13 C                     0.212278
     14 O                    -0.209595
     15 O                    -0.171770
     16 O                    -0.171293
     17 O                    -0.212188
     18 C                    -0.127911
     19 C                     0.025500
     20 C                    -0.145326
     21 C                    -0.141487
     22 C                     0.026001
     23 O                    -0.184715
     24 H                     0.089762
     25 H                     0.085751
     26 H                     0.083381
     27 H                     0.079471
     28 H                     0.074316
     29 H                     0.079547
     30 H                     0.074541
     31 H                     0.090004
     32 O                    -0.206762
     33 C                    -0.149353
     34 C                     0.024627
     35 C                    -0.143045
     36 C                    -0.144820
     37 C                     0.025567
     38 O                    -0.184834
     39 H                     0.085498
     40 H                     0.086419
     41 H                     0.104339
     42 H                     0.086238
     43 H                     0.077790
     44 H                     0.072855
     45 H                     0.077932
     46 H                     0.072747
     47 H                     0.086090
     48 H                     0.091628
     49 H                     0.073895
     50 H                     0.092640
     51 H                     0.095000
     52 H                     0.092197
     53 H                     0.105842
     54 H                     0.087413
     55 H                     0.091601
     56 H                     0.086734
  ----------------------------------------
  Sum of atomic charges =    -0.000000

                    Cartesian Multipole Moments
 -----------------------------------------------------------------
    Charge (ESU x 10^10)
                -0.0000
    Dipole Moment (Debye)
         X      -0.2785      Y       2.9374      Z      -2.0208
       Tot       3.5762
    Quadrupole Moments (Debye-Ang)
        XX    -163.0454     XY       1.4756     YY    -156.5933
        XZ       8.6373     YZ       3.2107     ZZ    -162.3785

 Total job time:  94.17s(wall), 4486.93s(cpu)
        *  Thank you very much for using Q-Chem.  Have a nice day.  *
