 Q-Chem 5.0, Q-Chem, Inc., Pleasanton, CA (2017)
 Q-Chem 5.0.1 for Intel X86 EM64T Linux

User input:
--------------------------------------------------------------
$molecule
0  1
O -1.7960777482 1.8507478628 1.0550805803
C -2.1904401005 1.4026034566 -0.0461679407
C -3.6143912913 0.9363934845 -0.4900396959
C -3.6561706662 -0.6230237709 -0.7684618492
C -2.6503491449 -1.455882978 0.1164225252
O -1.4232996155 -1.7092779061 -0.5850063195
C -0.5234264941 -2.483976527 0.3163721453
C 0.7079904412 -2.9764850094 -0.5088902014
O 1.4572736155 -1.8720783972 -1.1579837215
C 2.5439737403 -1.4905782268 -0.2785327684
C 3.3610863556 -0.3241705633 -0.9297184198
C 3.3434632419 1.0848114467 -0.1977406545
C 2.4597218694 1.2898980305 1.0844031093
O 2.5198971363 2.2895557396 1.8326624853
O -1.3986576893 1.2666842144 -1.2230921869
O 1.4611917284 0.2686111636 1.2034731213
O 2.8361228632 -2.1159285124 0.7645902484
C 0.5553940265 0.5580818772 2.3488424052
C 4.9180647729 -0.6553065075 -0.8759384035
C 5.6677095432 0.265049333 -1.9187424534
C 5.6586228285 1.647682322 -1.1658770144
C 4.8840174446 1.2660963303 0.1545483241
O 5.3356368676 -0.1144745042 0.4365828817
H 3.0046959358 -0.2129661852 -1.9692673624
H 3.0243770708 1.8664256092 -0.9125363481
H 5.1556396016 -1.7347046712 -0.9413383438
H 6.6941942635 -0.0990682831 -2.0834912651
H 5.1462476948 0.303779024 -2.8883577309
H 6.6801914248 1.9845004293 -0.9280963699
H 5.1479533811 2.4416349991 -1.7340537643
H 5.066781736 1.9272199863 1.0240762022
O -2.8640708791 -1.8693006787 1.2773375316
C 0.0179788365 1.6068050583 -0.9824355971
C -4.8485368782 1.1315303298 0.485653147
C -6.1172654384 1.2805495132 -0.4419290583
C -6.2122035774 -0.178335534 -1.0298465998
C -5.1040837106 -0.9332211864 -0.1896941245
O -5.064553129 -0.1983008589 1.0998323905
H -3.8107715893 1.4607304227 -1.4431937375
H -3.5203390707 -0.8606092862 -1.837910252
H 0.1231905826 2.6205817052 -0.5449610602
H -4.7143533156 1.9075467014 1.2638756815
H -7.0051557294 1.5265043288 0.1626662585
H -5.9908888408 2.05130132 -1.218877977
H -7.2028670858 -0.6246284508 -0.8507347323
H -6.0018730668 -0.2128409574 -2.1112132688
H -5.3006809117 -2.0077366955 -0.0100554529
H 0.5060257251 1.579475241 -1.9732809443
H 0.4997095411 0.8687711621 -0.3024114435
H 0.2992939762 -0.410181593 2.8164917731
H -0.3642905349 1.0642223266 1.965100494
H 1.0674866507 1.2164781784 3.0757855388
H 1.3902438481 -3.5212633653 0.1796321341
H 0.3701323546 -3.6458838087 -1.325922076
H -1.0563904261 -3.3593398273 0.7470248506
H -0.1830075579 -1.843262642 1.1567799662
$end

$rem
JOBTYPE                   OPT
METHOD                    B3LYP
DFT_D                     d3_op
BASIS                     STO-3G
GEOM_OPT_MAX_CYCLES       100
GEOM_OPT_TOL_GRADIENT     300
GEOM_OPT_TOL_DISPLACEMENT 1200
GEOM_OPT_TOL_ENERGY       100
SYMMETRY                  False
THRESH                    12
SCF_CONVERGENCE           8
MAX_SUB_FILE_NUM          128
MEM_STATIC                400
MEM_TOTAL                 4000
$end
--------------------------------------------------------------

   16   -1510.2826668832      6.74E-09 Convergence criterion met
 Total energy in the final basis set = -1510.28266688
   14   -1510.2758601802      8.83E-09 Convergence criterion met
 Total energy in the final basis set = -1510.27586018
   14   -1510.2816314232      8.41E-09 Convergence criterion met
 Total energy in the final basis set = -1510.28163142
   14   -1510.2815450285      7.33E-09 Convergence criterion met
 Total energy in the final basis set = -1510.28154503
   15   -1510.2750694202      6.90E-09 Convergence criterion met
 Total energy in the final basis set = -1510.27506942
   15   -1510.2759418640      4.39E-09 Convergence criterion met
 Total energy in the final basis set = -1510.27594186
   14   -1510.2817398930      7.14E-09 Convergence criterion met
 Total energy in the final basis set = -1510.28173989
   14   -1510.2875148398      7.00E-09 Convergence criterion met
   11   -1510.2978019397      8.29E-09 Convergence criterion met
 Total energy in the final basis set = -1510.29780194
   11   -1510.2978073032      4.48E-09 Convergence criterion met
 Total energy in the final basis set = -1510.29780730
   11   -1510.2978135775      3.02E-09 Convergence criterion met
 Total energy in the final basis set = -1510.29781358
   11   -1510.2978170393      1.89E-09 Convergence criterion met
 Total energy in the final basis set = -1510.29781704
    9   -1510.2978187884      8.42E-09 Convergence criterion met
 Total energy in the final basis set = -1510.29781879
    9   -1510.2978198928      5.33E-09 Convergence criterion met
 Total energy in the final basis set = -1510.29781989

             Standard Nuclear Orientation (Angstroms)
    I     Atom           X                Y                Z
 ----------------------------------------------------------------
    1      O       1.7722131980     1.3162915574    -0.4633314247
    2      C       2.1726834791     0.9548456016     0.6662748272
    3      C       3.6405448664     0.5591483396     1.0562834104
    4      C       4.0330467665    -0.9208808109     0.6295597824
    5      C       2.9485354654    -1.6770361839    -0.2178934469
    6      O       1.6497079094    -1.4402852014     0.3442625342
    7      C       0.5990417934    -2.0113893397    -0.5334111224
    8      C      -0.5409850704    -2.6375047042     0.3412410337
    9      O      -1.4323997064    -1.6218480599     0.9576314441
   10      C      -2.3918854331    -1.1493280327    -0.0089641493
   11      C      -3.3796545398    -0.1658475831     0.6998716523
   12      C      -3.6558614342     1.1537891899    -0.1355961142
   13      C      -2.8198004236     1.2541392356    -1.4628929549
   14      O      -3.2504497008     1.3392625689    -2.6314830458
   15      O       1.3912716099     0.9071539661     1.8586043702
   16      O      -1.4360406768     1.2667552174    -1.1039675572
   17      O      -2.4177073416    -1.5275639850    -1.1995144809
   18      C      -0.5691677451     1.3106993970    -2.3044252493
   19      C      -4.8458718100    -0.7883700622     0.7464736718
   20      C      -5.7198527197     0.0680032438     1.7466881094
   21      C      -5.9988665368     1.3549649363     0.8839018420
   22      C      -5.2041349098     1.0120514281    -0.4357592454
   23      O      -5.3958767663    -0.4505595714    -0.5837088329
   24      H      -2.9971896877     0.0562234784     1.7108027239
   25      H      -3.4381532039     2.0476586748     0.4774886188
   26      H      -4.8757369832    -1.8827843517     0.9133191520
   27      H      -6.6517497406    -0.4651952205     1.9934541149
   28      H      -5.1810846107     0.2895412314     2.6819493318
   29      H      -7.0729971517     1.4710254383     0.6686592678
   30      H      -5.6317364314     2.2763506226     1.3633243648
   31      H      -5.5324104546     1.5376593121    -1.3533654570
   32      O       3.1540371819    -2.3930976947    -1.2218156948
   33      C      -0.0593960487     1.0163771798     1.5740413553
   34      C       4.7298146581     1.3918091551     0.2526346797
   35      C       6.1089091244     1.2582362222     1.0112049369
   36      C       6.5089215655    -0.2215526304     0.6522067010
   37      C       5.3048325647    -0.6476597494    -0.2748355391
   38      O       4.9380104118     0.6016122020    -0.9815706539
   39      H       3.7457452800     0.6875683359     2.1476833547
   40      H       4.2768539680    -1.5355605106     1.5162459085
   41      H      -0.2627157793     1.4819882463     0.5871992000
   42      H       4.4216034483     2.4250749209     0.0009890862
   43      H       6.8383909226     1.9810344721     0.6121400122
   44      H       6.0057674376     1.4211770258     2.0958393261
   45      H       7.4583754390    -0.2607125794     0.0952646951
   46      H       6.5928834289    -0.8668232254     1.5409814298
   47      H       5.5112227008    -1.4580580289    -1.0009545014
   48      H      -0.5099452920     1.6203952274     2.3834990334
   49      H      -0.5078495432    -0.0032482611     1.5659890055
   50      H      -0.7329226323     0.4221284567    -2.9472373374
   51      H       0.4622706608     1.3190836185    -1.8926892866
   52      H      -0.7569367172     2.2227702852    -2.9057113828
   53      H      -1.1363066263    -3.3234973923    -0.2991668743
   54      H      -0.1013829938    -3.2036571273     1.1871908641
   55      H       1.0614141106    -2.7836729691    -1.1863541389
   56      H       0.1818684611    -1.2067143019    -1.1754238347
 ----------------------------------------------------------------

    9   -1510.2978199163      5.85E-09 Convergence criterion met
 Total energy in the final basis set = -1510.29781992
 Final energy is   -1510.29781991627
 **  OPTIMIZATION CONVERGED  **

                    Orbital Energies (a.u.)
 --------------------------------------------------------------

 Alpha MOs
 -- Occupied --
-18.947 -18.942 -18.928 -18.923 -18.890 -18.887 -18.886 -18.886
-18.874 -18.864 -10.108 -10.107 -10.098 -10.097 -10.083 -10.074
-10.065 -10.059 -10.059 -10.058 -10.044 -10.043 -10.042 -10.038
-10.035 -10.034 -10.023 -10.021 -10.021 -10.020  -1.024  -1.019
 -1.006  -0.999  -0.973  -0.970  -0.949  -0.943  -0.933  -0.928
 -0.767  -0.763  -0.731  -0.724  -0.715  -0.706  -0.701  -0.653
 -0.650  -0.622  -0.597  -0.584  -0.549  -0.545  -0.539  -0.538
 -0.514  -0.510  -0.489  -0.474  -0.458  -0.456  -0.454  -0.452
 -0.440  -0.434  -0.430  -0.420  -0.414  -0.405  -0.402  -0.399
 -0.394  -0.383  -0.374  -0.366  -0.365  -0.358  -0.356  -0.350
 -0.345  -0.345  -0.335  -0.333  -0.330  -0.329  -0.320  -0.313
 -0.311  -0.308  -0.306  -0.302  -0.294  -0.286  -0.285  -0.278
 -0.271  -0.267  -0.255  -0.247  -0.237  -0.234  -0.231  -0.195
 -0.178  -0.174  -0.166  -0.163  -0.161  -0.149  -0.148  -0.146
 -0.144

          Ground-State Mulliken Net Atomic Charges

     Atom                 Charge (a.u.)
  ----------------------------------------
      1 O                    -0.228825
      2 C                     0.221107
      3 C                    -0.080258
      4 C                    -0.077541
      5 C                     0.213732
      6 O                    -0.171974
      7 C                    -0.056300
      8 C                    -0.049057
      9 O                    -0.169573
     10 C                     0.212580
     11 C                    -0.078970
     12 C                    -0.079208
     13 C                     0.213750
     14 O                    -0.206303
     15 O                    -0.172290
     16 O                    -0.179656
     17 O                    -0.208189
     18 C                    -0.143251
     19 C                     0.026076
     20 C                    -0.143810
     21 C                    -0.143873
     22 C                     0.024707
     23 O                    -0.185665
     24 H                     0.086895
     25 H                     0.084267
     26 H                     0.082368
     27 H                     0.078846
     28 H                     0.073715
     29 H                     0.078983
     30 H                     0.073480
     31 H                     0.091840
     32 O                    -0.208532
     33 C                    -0.153959
     34 C                     0.025193
     35 C                    -0.143618
     36 C                    -0.144463
     37 C                     0.023895
     38 O                    -0.188289
     39 H                     0.085799
     40 H                     0.085808
     41 H                     0.103693
     42 H                     0.085084
     43 H                     0.078086
     44 H                     0.073462
     45 H                     0.078586
     46 H                     0.072904
     47 H                     0.090631
     48 H                     0.074240
     49 H                     0.095283
     50 H                     0.084881
     51 H                     0.116951
     52 H                     0.084359
     53 H                     0.096967
     54 H                     0.094861
     55 H                     0.103568
     56 H                     0.097005
  ----------------------------------------
  Sum of atomic charges =    -0.000000

                    Cartesian Multipole Moments
 -----------------------------------------------------------------
    Charge (ESU x 10^10)
                -0.0000
    Dipole Moment (Debye)
         X       0.6234      Y      -0.1296      Z       4.5281
       Tot       4.5726
    Quadrupole Moments (Debye-Ang)
        XX    -153.0842     XY      -3.8732     YY    -153.9937
        XZ      -3.9213     YZ      -1.3234     ZZ    -167.8651

 Total job time:  140.85s(wall), 6723.08s(cpu)
        *  Thank you very much for using Q-Chem.  Have a nice day.  *
