 Q-Chem 5.0, Q-Chem, Inc., Pleasanton, CA (2017)
 Q-Chem 5.0.1 for Intel X86 EM64T Linux

User input:
--------------------------------------------------------------
$molecule
0  1
O -3.94934 -3.66094 2.70899
C -3.26408 -4.56952 2.26188
C -3.36658 -6.02376 2.66595
C -2.1722 -6.62888 3.42169
C -1.08452 -5.66673 3.84514
O -0.07842 -5.6681 2.92147
C 0.98609 -4.76804 3.24698
C 2.1692 -4.99285 2.31111
O 1.75126 -4.83163 0.94647
C 1.93847 -3.59531 0.42149
C 1.47998 -3.48986 -1.01355
C 0.29358 -2.54295 -1.24614
C -0.02309 -1.5894 -0.1116
O -0.80099 -0.64831 -0.1729
O -2.64368 -4.35408 1.07791
O 0.43062 -1.79041 1.15335
O 2.67923 -2.7553 0.92643
C 0.1678 -0.98189 2.24546
C 2.54134 -2.88914 -1.95135
C 2.25509 -3.30665 -3.39273
C 1.01863 -2.48225 -3.68292
C 0.90485 -1.68536 -2.3776
O 2.24078 -1.51722 -1.96732
H 1.22458 -4.51762 -1.36212
H -0.61492 -3.04825 -1.60692
H 3.58112 -3.16319 -1.66761
H 3.09241 -2.92479 -4.01986
H 2.14481 -4.40062 -3.55403
H 1.24496 -1.80063 -4.53296
H 0.09646 -3.0643 -3.89784
H 0.33294 -0.74796 -2.55763
O -1.23965 -4.79168 4.69052
C -2.91574 -3.23937 0.31216
C -4.47687 -6.25873 3.71892
C -4.92498 -7.72071 3.69639
C -3.73133 -8.39157 4.3406
C -2.87595 -7.16717 4.67824
O -3.81838 -6.16191 4.95741
H -3.64016 -6.59536 1.75023
H -1.69518 -7.44888 2.83748
H -2.58423 -2.31874 0.83472
H -5.36157 -5.599 3.58233
H -5.79474 -7.81271 4.3859
H -5.20845 -8.11077 2.69523
H -4.07027 -8.89128 5.27541
H -3.18901 -9.11807 3.69752
H -2.15883 -7.40762 5.49434
H -4.0069 -3.17398 0.10945
H -2.4349 -3.34272 -0.66578
H 0.69596 -1.3789 3.13515
H -0.92293 -0.96191 2.45529
H 0.53478 0.04903 2.05366
H 3.02337 -4.34152 2.60144
H 2.52449 -6.03766 2.43714
H 1.35168 -4.95853 4.28241
H 0.63427 -3.71927 3.17142
$end

$opt
CONSTRAINT
tors           1           2           3           4    -113.017
tors           3           4           5           6     -96.052
tors           4           5           6           7    +179.402
tors           5           6           7           8    +170.407
tors           6           7           8           9     +57.108
tors           7           8           9          10     +94.306
tors           8           9          10          11    -180.000
tors           9          10          11          12    +114.768
tors          11          12          13          14    +169.539
ENDCONSTRAINT
$end

$rem
JOBTYPE                   OPT
METHOD                    B3LYP
DFT_D                     d3_op
BASIS                     STO-3G
GEOM_OPT_MAX_CYCLES       100
GEOM_OPT_TOL_GRADIENT     300
GEOM_OPT_TOL_DISPLACEMENT 1200
GEOM_OPT_TOL_ENERGY       100
SYMMETRY                  False
THRESH                    12
SCF_CONVERGENCE           8
MAX_SUB_FILE_NUM          128
MEM_STATIC                400
MEM_TOTAL                 4000
$end
--------------------------------------------------------------

   15   -1510.1309309138      6.73E-09 Convergence criterion met
 Total energy in the final basis set = -1510.13093091
   14   -1510.2046800823      8.70E-09 Convergence criterion met
 Total energy in the final basis set = -1510.20468008
   15   -1510.2434967955      1.43E-09 Convergence criterion met
 Total energy in the final basis set = -1510.24349680
   15   -1510.2611907757      2.41E-09 Convergence criterion met
 Total energy in the final basis set = -1510.26119078
   14   -1510.2696098031      5.78E-09 Convergence criterion met
 Total energy in the final basis set = -1510.26960980
   14   -1510.2699979628      8.05E-09 Convergence criterion met
 Total energy in the final basis set = -1510.26999796
   13   -1510.2730582696      5.81E-09 Convergence criterion met
 Total energy in the final basis set = -1510.27305827
   13   -1510.2729931833      7.17E-09 Convergence criterion met
   12   -1510.2825929610      4.76E-09 Convergence criterion met
 Total energy in the final basis set = -1510.28259296
   11   -1510.2826643420      5.95E-09 Convergence criterion met
 Total energy in the final basis set = -1510.28266434
   11   -1510.2826944705      5.10E-09 Convergence criterion met
 Total energy in the final basis set = -1510.28269447
   11   -1510.2827053155      5.40E-09 Convergence criterion met
 Total energy in the final basis set = -1510.28270532
    9   -1510.2827080668      8.08E-09 Convergence criterion met
 Total energy in the final basis set = -1510.28270807
    9   -1510.2827097578      4.85E-09 Convergence criterion met
 Total energy in the final basis set = -1510.28270976

             Standard Nuclear Orientation (Angstroms)
    I     Atom           X                Y                Z
 ----------------------------------------------------------------
    1      O      -1.7960777482     1.8507478628     1.0550805803
    2      C      -2.1904401005     1.4026034566    -0.0461679407
    3      C      -3.6143912913     0.9363934845    -0.4900396959
    4      C      -3.6561706662    -0.6230237709    -0.7684618492
    5      C      -2.6503491449    -1.4558829780     0.1164225252
    6      O      -1.4232996155    -1.7092779061    -0.5850063195
    7      C      -0.5234264941    -2.4839765270     0.3163721453
    8      C       0.7079904412    -2.9764850094    -0.5088902014
    9      O       1.4572736155    -1.8720783972    -1.1579837215
   10      C       2.5439737403    -1.4905782268    -0.2785327684
   11      C       3.3610863556    -0.3241705633    -0.9297184198
   12      C       3.3434632419     1.0848114467    -0.1977406545
   13      C       2.4597218694     1.2898980305     1.0844031093
   14      O       2.5198971363     2.2895557396     1.8326624853
   15      O      -1.3986576893     1.2666842144    -1.2230921869
   16      O       1.4611917284     0.2686111636     1.2034731213
   17      O       2.8361228632    -2.1159285124     0.7645902484
   18      C       0.5553940265     0.5580818772     2.3488424052
   19      C       4.9180647729    -0.6553065075    -0.8759384035
   20      C       5.6677095432     0.2650493330    -1.9187424534
   21      C       5.6586228285     1.6476823220    -1.1658770144
   22      C       4.8840174446     1.2660963303     0.1545483241
   23      O       5.3356368676    -0.1144745042     0.4365828817
   24      H       3.0046959358    -0.2129661852    -1.9692673624
   25      H       3.0243770708     1.8664256092    -0.9125363481
   26      H       5.1556396016    -1.7347046712    -0.9413383438
   27      H       6.6941942635    -0.0990682831    -2.0834912651
   28      H       5.1462476948     0.3037790240    -2.8883577309
   29      H       6.6801914248     1.9845004293    -0.9280963699
   30      H       5.1479533811     2.4416349991    -1.7340537643
   31      H       5.0667817360     1.9272199863     1.0240762022
   32      O      -2.8640708791    -1.8693006787     1.2773375316
   33      C       0.0179788365     1.6068050583    -0.9824355971
   34      C      -4.8485368782     1.1315303298     0.4856531470
   35      C      -6.1172654384     1.2805495132    -0.4419290583
   36      C      -6.2122035774    -0.1783355340    -1.0298465998
   37      C      -5.1040837106    -0.9332211864    -0.1896941245
   38      O      -5.0645531290    -0.1983008589     1.0998323905
   39      H      -3.8107715893     1.4607304227    -1.4431937375
   40      H      -3.5203390707    -0.8606092862    -1.8379102520
   41      H       0.1231905826     2.6205817052    -0.5449610602
   42      H      -4.7143533156     1.9075467014     1.2638756815
   43      H      -7.0051557294     1.5265043288     0.1626662585
   44      H      -5.9908888408     2.0513013200    -1.2188779770
   45      H      -7.2028670858    -0.6246284508    -0.8507347323
   46      H      -6.0018730668    -0.2128409574    -2.1112132688
   47      H      -5.3006809117    -2.0077366955    -0.0100554529
   48      H       0.5060257251     1.5794752410    -1.9732809443
   49      H       0.4997095411     0.8687711621    -0.3024114435
   50      H       0.2992939762    -0.4101815930     2.8164917731
   51      H      -0.3642905349     1.0642223266     1.9651004940
   52      H       1.0674866507     1.2164781784     3.0757855388
   53      H       1.3902438481    -3.5212633653     0.1796321341
   54      H       0.3701323546    -3.6458838087    -1.3259220760
   55      H      -1.0563904261    -3.3593398273     0.7470248506
   56      H      -0.1830075579    -1.8432626420     1.1567799662
 ----------------------------------------------------------------

    9   -1510.2827106164      2.41E-09 Convergence criterion met
 Total energy in the final basis set = -1510.28271062
 Final energy is   -1510.28271061645
 **  OPTIMIZATION CONVERGED  **

                    Orbital Energies (a.u.)
 --------------------------------------------------------------

 Alpha MOs
 -- Occupied --
-18.945 -18.938 -18.932 -18.931 -18.892 -18.886 -18.885 -18.883
-18.873 -18.873 -10.108 -10.107 -10.099 -10.095 -10.070 -10.069
-10.063 -10.063 -10.060 -10.059 -10.052 -10.046 -10.045 -10.041
-10.040 -10.038 -10.024 -10.023 -10.021 -10.020  -1.020  -1.016
 -1.011  -1.006  -0.974  -0.969  -0.943  -0.943  -0.936  -0.928
 -0.767  -0.765  -0.728  -0.725  -0.714  -0.706  -0.699  -0.663
 -0.657  -0.617  -0.601  -0.579  -0.551  -0.545  -0.541  -0.537
 -0.514  -0.511  -0.484  -0.476  -0.463  -0.457  -0.453  -0.449
 -0.441  -0.435  -0.433  -0.429  -0.416  -0.411  -0.406  -0.395
 -0.394  -0.382  -0.372  -0.368  -0.360  -0.358  -0.355  -0.349
 -0.345  -0.341  -0.337  -0.334  -0.332  -0.330  -0.328  -0.318
 -0.311  -0.309  -0.307  -0.304  -0.293  -0.292  -0.278  -0.277
 -0.274  -0.261  -0.254  -0.248  -0.245  -0.238  -0.232  -0.186
 -0.179  -0.175  -0.171  -0.164  -0.161  -0.154  -0.151  -0.148
 -0.138

          Ground-State Mulliken Net Atomic Charges

     Atom                 Charge (a.u.)
  ----------------------------------------
      1 O                    -0.214637
      2 C                     0.214452
      3 C                    -0.079524
      4 C                    -0.075742
      5 C                     0.200338
      6 O                    -0.169029
      7 C                    -0.051002
      8 C                    -0.054141
      9 O                    -0.168631
     10 C                     0.212315
     11 C                    -0.080833
     12 C                    -0.078707
     13 C                     0.214722
     14 O                    -0.208986
     15 O                    -0.167576
     16 O                    -0.172041
     17 O                    -0.212927
     18 C                    -0.148638
     19 C                     0.026925
     20 C                    -0.144391
     21 C                    -0.143662
     22 C                     0.025432
     23 O                    -0.185993
     24 H                     0.085116
     25 H                     0.085403
     26 H                     0.085068
     27 H                     0.079019
     28 H                     0.073759
     29 H                     0.079428
     30 H                     0.073544
     31 H                     0.089732
     32 O                    -0.208412
     33 C                    -0.144305
     34 C                     0.023070
     35 C                    -0.141237
     36 C                    -0.145998
     37 C                     0.025947
     38 O                    -0.183914
     39 H                     0.086525
     40 H                     0.088371
     41 H                     0.081745
     42 H                     0.088891
     43 H                     0.078382
     44 H                     0.072718
     45 H                     0.078366
     46 H                     0.072985
     47 H                     0.084301
     48 H                     0.084292
     49 H                     0.104628
     50 H                     0.086169
     51 H                     0.109684
     52 H                     0.098544
     53 H                     0.101458
     54 H                     0.087014
     55 H                     0.092047
     56 H                     0.089934
  ----------------------------------------
  Sum of atomic charges =    -0.000000

                    Cartesian Multipole Moments
 -----------------------------------------------------------------
    Charge (ESU x 10^10)
                -0.0000
    Dipole Moment (Debye)
         X      -0.3894      Y       0.3713      Z      -4.3925
       Tot       4.4253
    Quadrupole Moments (Debye-Ang)
        XX    -154.7100     XY       0.9826     YY    -156.7692
        XZ      -0.7283     YZ      -1.0397     ZZ    -164.4313

 Total job time:  154.74s(wall), 7385.79s(cpu)
        *  Thank you very much for using Q-Chem.  Have a nice day.  *
