 Q-Chem 5.0, Q-Chem, Inc., Pleasanton, CA (2017)
 Q-Chem 5.0.1 for Intel X86 EM64T Linux

User input:
--------------------------------------------------------------
$molecule
0  1
O -2.3802401417 1.512792353 1.7929667381
C -2.4870867913 1.3069282975 0.5640697494
C -3.7914385278 1.0633438386 -0.2743002378
C -3.8845443893 -0.3936768679 -0.9149687496
C -2.9536135941 -1.4328828748 -0.1865728974
O -1.6051168333 -1.2198202993 -0.6120148918
C -0.6852157677 -2.1685073382 0.0594389114
C 0.5442176296 -2.3709095372 -0.8758380022
O 1.2293260991 -1.0614579999 -1.0242652255
C 2.6563418722 -1.2175706038 -0.9032126837
C 3.3078697211 0.2000595447 -1.0700790126
C 3.5154122241 1.0565498717 0.2513706581
C 3.0436443785 0.4642342497 1.6277289136
O 3.2319394964 0.997445731 2.74275297
O -1.4088930656 1.3523569335 -0.3720798686
O 2.3551100446 -0.7744453397 1.4539482631
O 3.2317696971 -2.3202875143 -0.7929081118
C 1.9472996182 -1.3326010358 2.7627321414
C 4.8105561376 0.0584961864 -1.5687067414
C 5.2723391979 1.4400538134 -2.1777186094
C 5.4692097155 2.2950839768 -0.8715578304
C 5.097041617 1.2398653926 0.2425374271
O 5.582969102 -0.0436587409 -0.3093578427
H 2.6891167462 0.7658677272 -1.789214088
H 3.0183235948 2.0383945198 0.1449448734
H 4.9921225325 -0.8302032524 -2.2035245799
H 6.2187130132 1.3201425153 -2.7286731125
H 4.5183981407 1.8667215394 -2.8585151477
H 6.5142198828 2.6238012225 -0.7563674187
H 4.8138083617 3.1796847016 -0.8385895886
H 5.5323974565 1.4303989832 1.2428887814
O -3.2994132199 -2.3233850599 0.6196150974
C -0.0916159436 1.3607850287 0.3071971532
C -5.1525612397 1.1366611523 0.5342050954
C -6.2829881244 1.5210030605 -0.4976034044
C -6.3735605176 0.1932573853 -1.3396570321
C -5.3838109682 -0.7505685087 -0.5476281871
O -5.4716047734 -0.2745005599 0.8549463652
H -3.7862667537 1.8110548525 -1.0887650906
H -3.6668294232 -0.3818588141 -1.9976344669
H -0.2262730634 1.2748485896 1.4035047613
H -5.106335914 1.7450610999 1.4582467836
H -7.228496989 1.7268435107 0.0295570993
H -6.019029253 2.3988525417 -1.1089059902
H -7.393245665 -0.2230883511 -1.3345035759
H -6.0565856822 0.335008778 -2.3854683832
H -5.6146747093 -1.8321157446 -0.5982189317
H 0.4275783498 2.3125121735 0.0785461435
H 0.4926103374 0.5004077475 -0.094318451
H 1.5391898587 -2.3380210122 2.5512078488
H 1.16652638 -0.7068797638 3.2423224654
H 2.8088586993 -1.4172953002 3.4551670336
H 1.2599460937 -3.1111737147 -0.4556436423
H 0.2081737479 -2.7201478826 -1.876050412
H -1.2009562263 -3.1347288712 0.2531361448
H -0.3569013432 -1.7489089683 1.0345063239
$end

$rem
JOBTYPE                   OPT
METHOD                    B3LYP
DFT_D                     d3_op
BASIS                     STO-3G
GEOM_OPT_MAX_CYCLES       100
GEOM_OPT_TOL_GRADIENT     300
GEOM_OPT_TOL_DISPLACEMENT 1200
GEOM_OPT_TOL_ENERGY       100
SYMMETRY                  False
THRESH                    12
SCF_CONVERGENCE           8
MAX_SUB_FILE_NUM          128
MEM_STATIC                400
MEM_TOTAL                 4000
$end
--------------------------------------------------------------

   16   -1510.2844626091      5.95E-09 Convergence criterion met
 Total energy in the final basis set = -1510.28446261
   15   -1510.2718569143      4.69E-09 Convergence criterion met
 Total energy in the final basis set = -1510.27185691
   14   -1510.2849092904      7.40E-09 Convergence criterion met
 Total energy in the final basis set = -1510.28490929
   14   -1510.2850739758      2.90E-09 Convergence criterion met
 Total energy in the final basis set = -1510.28507398
   13   -1510.2864270038      9.85E-09 Convergence criterion met
 Total energy in the final basis set = -1510.28642700
   14   -1510.2867963846      9.46E-09 Convergence criterion met
 Total energy in the final basis set = -1510.28679638
   14   -1510.2879426317      5.24E-09 Convergence criterion met
 Total energy in the final basis set = -1510.28794263
   14   -1510.2888502400      4.06E-09 Convergence criterion met
   12   -1510.2987338632      8.32E-09 Convergence criterion met
 Total energy in the final basis set = -1510.29873386
   12   -1510.2987408505      5.60E-09 Convergence criterion met
 Total energy in the final basis set = -1510.29874085
   12   -1510.2987835340      3.80E-09 Convergence criterion met
 Total energy in the final basis set = -1510.29878353
   11   -1510.2987855436      5.18E-09 Convergence criterion met
 Total energy in the final basis set = -1510.29878554
   11   -1510.2987865088      2.66E-09 Convergence criterion met
 Total energy in the final basis set = -1510.29878651
   10   -1510.2987821773      9.38E-09 Convergence criterion met
 Total energy in the final basis set = -1510.29878218

             Standard Nuclear Orientation (Angstroms)
    I     Atom           X                Y                Z
 ----------------------------------------------------------------
    1      O      -1.4667828099     1.0490570568     0.7240942129
    2      C      -2.1230706536     1.1755741561    -0.3348167043
    3      C      -3.6482666870     0.8676510828    -0.5234786171
    4      C      -3.9846222585    -0.6772217491    -0.3830928424
    5      C      -2.7390134207    -1.5932435026    -0.1096461316
    6      O      -1.7286084180    -1.2865481443    -1.0786743864
    7      C      -0.5610695738    -2.1842608481    -0.9041823498
    8      C       0.4711171465    -1.8446338106    -2.0336309153
    9      O       1.3607397262    -0.7064246117    -1.7034280922
   10      C       2.5503733028    -1.1856405555    -1.0358433404
   11      C       3.6147241125    -0.0336653206    -0.9901817541
   12      C       3.3226116031     1.1741348033    -0.0069126786
   13      C       2.0437592264     1.0427651111     0.8839729796
   14      O       1.3154127895     1.9881606145     1.2630795192
   15      O      -1.6068402693     1.6776765650    -1.5624618751
   16      O       1.8467139317    -0.3226334284     1.2386181836
   17      O       2.7193498671    -2.3815183189    -0.7200253123
   18      C       0.6481828726    -0.4506574185     2.1086296650
   19      C       4.9933384792    -0.5733115653    -0.4166213733
   20      C       6.1387591751     0.4096770763    -0.8768739654
   21      C       5.8566129341     1.6511800996     0.0488954693
   22      C       4.6319473678     1.1278536216     0.8994177666
   23      O       4.8887011558    -0.3213100449     1.0390316778
   24      H       3.7279896806     0.3435152033    -2.0233650431
   25      H       3.2475001730     2.1295577157    -0.5551736060
   26      H       5.1660258328    -1.6498595761    -0.6098989347
   27      H       7.1277275008    -0.0299217315    -0.6714498955
   28      H       6.0754576795     0.6520501730    -1.9497482264
   29      H       6.7144147866     1.8713018127     0.7039281466
   30      H       5.6056409415     2.5594486602    -0.5219825639
   31      H       4.5135949959     1.6010186356     1.8936609615
   32      O      -2.6252420432    -2.4751210370     0.7673799953
   33      C      -0.1432486003     1.9043805814    -1.4617181551
   34      C      -4.5159804142     1.4584674624     0.6712471260
   35      C      -6.0383527659     1.4219911691     0.2485003540
   36      C      -6.3609291573    -0.1115828508     0.3975134482
   37      C      -4.9610896094    -0.6709750022     0.8637199651
   38      O      -4.4177195077     0.4133789258     1.7146358825
   39      H      -3.9658773459     1.2612234379    -1.5045463252
   40      H      -4.4882123177    -1.0495601929    -1.2944392598
   41      H       0.1311475214     2.3626398168    -0.4887395778
   42      H      -4.1565930898     2.4299095543     1.0626292245
   43      H      -6.6433314301     2.0312439173     0.9388112052
   44      H      -6.1933832021     1.7919082453    -0.7775654172
   45      H      -7.1250625497    -0.2903857029     1.1705001865
   46      H      -6.6980586189    -0.5696544157    -0.5460235508
   47      H      -4.9786177435    -1.6284567121     1.4198444846
   48      H       0.1189211385     2.5828340579    -2.2936055575
   49      H       0.4140140006     0.9419988762    -1.5676346521
   50      H       0.4726777037    -1.5353664859     2.2268097609
   51      H      -0.2323465206     0.0533219484     1.6432150669
   52      H       0.8397708066    -0.0022296309     3.1039720543
   53      H       1.0874400177    -2.7479903069    -2.2277648813
   54      H      -0.0756476062    -1.5522294458    -2.9536121908
   55      H      -0.8773552836    -3.2465399764    -0.9965978722
   56      H      -0.0971510619    -2.0528686060     0.0954496404
 ----------------------------------------------------------------

    9   -1510.2987819071      4.30E-09 Convergence criterion met
 Total energy in the final basis set = -1510.29878191
 Final energy is   -1510.29878190708
 **  OPTIMIZATION CONVERGED  **

                    Orbital Energies (a.u.)
 --------------------------------------------------------------

 Alpha MOs
 -- Occupied --
-18.940 -18.937 -18.932 -18.928 -18.889 -18.885 -18.883 -18.881
-18.869 -18.867 -10.108 -10.103 -10.097 -10.095 -10.080 -10.076
-10.062 -10.059 -10.058 -10.056 -10.041 -10.039 -10.038 -10.038
-10.035 -10.034 -10.022 -10.021 -10.019 -10.018  -1.020  -1.015
 -1.005  -1.002  -0.971  -0.968  -0.945  -0.939  -0.930  -0.929
 -0.766  -0.762  -0.730  -0.723  -0.713  -0.705  -0.700  -0.651
 -0.649  -0.617  -0.598  -0.584  -0.548  -0.543  -0.539  -0.536
 -0.511  -0.511  -0.487  -0.478  -0.463  -0.455  -0.452  -0.442
 -0.434  -0.432  -0.429  -0.421  -0.407  -0.405  -0.402  -0.399
 -0.396  -0.377  -0.373  -0.362  -0.360  -0.357  -0.354  -0.348
 -0.347  -0.342  -0.334  -0.333  -0.328  -0.325  -0.320  -0.310
 -0.308  -0.307  -0.305  -0.297  -0.295  -0.293  -0.284  -0.276
 -0.270  -0.260  -0.250  -0.247  -0.235  -0.235  -0.232  -0.186
 -0.181  -0.170  -0.168  -0.160  -0.158  -0.148  -0.145  -0.144
 -0.141

          Ground-State Mulliken Net Atomic Charges

     Atom                 Charge (a.u.)
  ----------------------------------------
      1 O                    -0.221722
      2 C                     0.218890
      3 C                    -0.079491
      4 C                    -0.078592
      5 C                     0.211586
      6 O                    -0.175283
      7 C                    -0.049558
      8 C                    -0.049239
      9 O                    -0.176759
     10 C                     0.220864
     11 C                    -0.079147
     12 C                    -0.079770
     13 C                     0.210679
     14 O                    -0.212512
     15 O                    -0.168925
     16 O                    -0.169473
     17 O                    -0.209122
     18 C                    -0.146063
     19 C                     0.025360
     20 C                    -0.143970
     21 C                    -0.144030
     22 C                     0.026162
     23 O                    -0.185842
     24 H                     0.084038
     25 H                     0.084539
     26 H                     0.090283
     27 H                     0.078725
     28 H                     0.072780
     29 H                     0.078783
     30 H                     0.073947
     31 H                     0.084290
     32 O                    -0.208549
     33 C                    -0.152443
     34 C                     0.025885
     35 C                    -0.144015
     36 C                    -0.144019
     37 C                     0.023874
     38 O                    -0.186626
     39 H                     0.085743
     40 H                     0.084196
     41 H                     0.097706
     42 H                     0.084828
     43 H                     0.078096
     44 H                     0.073311
     45 H                     0.078279
     46 H                     0.072467
     47 H                     0.090340
     48 H                     0.078573
     49 H                     0.100009
     50 H                     0.084273
     51 H                     0.120887
     52 H                     0.084099
     53 H                     0.097362
     54 H                     0.095372
     55 H                     0.089965
     56 H                     0.098956
  ----------------------------------------
  Sum of atomic charges =     0.000000

                    Cartesian Multipole Moments
 -----------------------------------------------------------------
    Charge (ESU x 10^10)
                -0.0000
    Dipole Moment (Debye)
         X      -0.1379      Y       0.6874      Z      -3.9164
       Tot       3.9786
    Quadrupole Moments (Debye-Ang)
        XX    -141.5926     XY       6.4009     YY    -161.7926
        XZ      -0.3768     YZ       3.2045     ZZ    -160.8422

 Total job time:  123.44s(wall), 5887.95s(cpu)
        *  Thank you very much for using Q-Chem.  Have a nice day.  *
