 Q-Chem 5.0, Q-Chem, Inc., Pleasanton, CA (2017)
 Q-Chem 5.0.1 for Intel X86 EM64T Linux

User input:
--------------------------------------------------------------
$molecule
0  1
O -3.94934 -3.66094 2.70899
C -3.26408 -4.56952 2.26188
C -3.36658 -6.02376 2.66595
C -2.15674 -6.63937 3.38786
C -1.05071 -5.68628 3.78335
O -0.29841 -5.36859 2.68857
C 0.76487 -4.45598 2.98152
C 1.90577 -4.64134 1.98647
O 1.45186 -4.33472 0.65876
C 2.29348 -3.57371 -0.084
C 1.76068 -3.28637 -1.46756
C 0.91659 -2.00876 -1.58373
C 1.02276 -1.03892 -0.42405
O 0.50015 0.0651 -0.37322
O -2.34185 -4.2813 1.30896
O 1.74148 -1.33333 0.69209
O 3.47508 -3.40528 0.20071
C 1.87789 -0.5314 1.80849
C 2.86177 -2.96432 -2.50867
C 2.33943 -3.2482 -3.91676
C 1.34032 -2.12203 -4.07888
C 1.60076 -1.33956 -2.78673
O 2.96171 -1.56239 -2.5128
H 1.23786 -4.20396 -1.82229
H -0.16092 -2.21774 -1.7511
H 3.80887 -3.52246 -2.34195
H 3.18916 -3.07131 -4.61501
H 1.93574 -4.26913 -4.08849
H 1.62569 -1.52573 -4.97379
H 0.27659 -2.43687 -4.15101
H 1.29796 -0.27605 -2.91021
O -0.81667 -5.32412 4.93211
C -2.08266 -3.01388 0.83523
C -4.47228 -6.25909 3.7168
C -4.92021 -7.72014 3.69131
C -3.72739 -8.38915 4.33556
C -2.86426 -7.16562 4.65738
O -3.80151 -6.15881 4.94645
H -3.62527 -6.58032 1.73753
H -1.68841 -7.48684 2.83868
H -1.73724 -2.35807 1.66286
H -5.35605 -5.59726 3.5845
H -5.79295 -7.81877 4.37597
H -5.19561 -8.10316 2.68512
H -4.06376 -8.87154 5.28055
H -3.19589 -9.131 3.70119
H -2.15056 -7.41788 5.47263
H -2.99312 -2.58437 0.3657
H -1.28153 -3.07766 0.07635
H 2.52217 -1.04852 2.5488
H 0.88401 -0.34597 2.26892
H 2.35343 0.43357 1.53165
H 2.75389 -4.0044 2.32725
H 2.2313 -5.70341 2.02127
H 1.22833 -4.66658 3.9736
H 0.39207 -3.40861 2.96733
$end

$opt
CONSTRAINT
tors           1           2           3           4    -114.636
tors           3           4           5           6     -77.128
tors           4           5           6           7    +179.408
tors           5           6           7           8    +153.317
tors           6           7           8           9     +62.666
tors           7           8           9          10    +135.638
tors           8           9          10          11    -180.000
tors           9          10          11          12     +90.202
tors          11          12          13          14    +174.902
ENDCONSTRAINT
$end

$rem
JOBTYPE                   OPT
METHOD                    B3LYP
DFT_D                     d3_op
BASIS                     STO-3G
GEOM_OPT_MAX_CYCLES       100
GEOM_OPT_TOL_GRADIENT     300
GEOM_OPT_TOL_DISPLACEMENT 1200
GEOM_OPT_TOL_ENERGY       100
SYMMETRY                  False
THRESH                    12
SCF_CONVERGENCE           8
MAX_SUB_FILE_NUM          128
MEM_STATIC                400
MEM_TOTAL                 4000
$end
--------------------------------------------------------------

   15   -1510.1464029624      6.36E-09 Convergence criterion met
 Total energy in the final basis set = -1510.14640296
   13   -1510.2179735815      8.34E-09 Convergence criterion met
 Total energy in the final basis set = -1510.21797358
   14   -1510.2564333280      9.77E-09 Convergence criterion met
 Total energy in the final basis set = -1510.25643333
   14   -1510.2725382684      7.61E-09 Convergence criterion met
 Total energy in the final basis set = -1510.27253827
   15   -1510.2768561658      1.35E-09 Convergence criterion met
 Total energy in the final basis set = -1510.27685617
   13   -1510.2795280040      4.65E-09 Convergence criterion met
 Total energy in the final basis set = -1510.27952800
   13   -1510.2806177845      3.87E-09 Convergence criterion met
 Total energy in the final basis set = -1510.28061778
   12   -1510.2810732825      9.64E-09 Convergence criterion met
   11   -1510.2842359945      5.65E-09 Convergence criterion met
 Total energy in the final basis set = -1510.28423599
   11   -1510.2842951837      6.25E-09 Convergence criterion met
 Total energy in the final basis set = -1510.28429518
   11   -1510.2843256446      3.46E-09 Convergence criterion met
 Total energy in the final basis set = -1510.28432564
   11   -1510.2843483379      2.85E-09 Convergence criterion met
 Total energy in the final basis set = -1510.28434834
   11   -1510.2843523488      3.41E-09 Convergence criterion met
 Total energy in the final basis set = -1510.28435235
   10   -1510.2843550437      4.72E-09 Convergence criterion met
 Total energy in the final basis set = -1510.28435504

             Standard Nuclear Orientation (Angstroms)
    I     Atom           X                Y                Z
 ----------------------------------------------------------------
    1      O      -2.3802401417     1.5127923530     1.7929667381
    2      C      -2.4870867913     1.3069282975     0.5640697494
    3      C      -3.7914385278     1.0633438386    -0.2743002378
    4      C      -3.8845443893    -0.3936768679    -0.9149687496
    5      C      -2.9536135941    -1.4328828748    -0.1865728974
    6      O      -1.6051168333    -1.2198202993    -0.6120148918
    7      C      -0.6852157677    -2.1685073382     0.0594389114
    8      C       0.5442176296    -2.3709095372    -0.8758380022
    9      O       1.2293260991    -1.0614579999    -1.0242652255
   10      C       2.6563418722    -1.2175706038    -0.9032126837
   11      C       3.3078697211     0.2000595447    -1.0700790126
   12      C       3.5154122241     1.0565498717     0.2513706581
   13      C       3.0436443785     0.4642342497     1.6277289136
   14      O       3.2319394964     0.9974457310     2.7427529700
   15      O      -1.4088930656     1.3523569335    -0.3720798686
   16      O       2.3551100446    -0.7744453397     1.4539482631
   17      O       3.2317696971    -2.3202875143    -0.7929081118
   18      C       1.9472996182    -1.3326010358     2.7627321414
   19      C       4.8105561376     0.0584961864    -1.5687067414
   20      C       5.2723391979     1.4400538134    -2.1777186094
   21      C       5.4692097155     2.2950839768    -0.8715578304
   22      C       5.0970416170     1.2398653926     0.2425374271
   23      O       5.5829691020    -0.0436587409    -0.3093578427
   24      H       2.6891167462     0.7658677272    -1.7892140880
   25      H       3.0183235948     2.0383945198     0.1449448734
   26      H       4.9921225325    -0.8302032524    -2.2035245799
   27      H       6.2187130132     1.3201425153    -2.7286731125
   28      H       4.5183981407     1.8667215394    -2.8585151477
   29      H       6.5142198828     2.6238012225    -0.7563674187
   30      H       4.8138083617     3.1796847016    -0.8385895886
   31      H       5.5323974565     1.4303989832     1.2428887814
   32      O      -3.2994132199    -2.3233850599     0.6196150974
   33      C      -0.0916159436     1.3607850287     0.3071971532
   34      C      -5.1525612397     1.1366611523     0.5342050954
   35      C      -6.2829881244     1.5210030605    -0.4976034044
   36      C      -6.3735605176     0.1932573853    -1.3396570321
   37      C      -5.3838109682    -0.7505685087    -0.5476281871
   38      O      -5.4716047734    -0.2745005599     0.8549463652
   39      H      -3.7862667537     1.8110548525    -1.0887650906
   40      H      -3.6668294232    -0.3818588141    -1.9976344669
   41      H      -0.2262730634     1.2748485896     1.4035047613
   42      H      -5.1063359140     1.7450610999     1.4582467836
   43      H      -7.2284969890     1.7268435107     0.0295570993
   44      H      -6.0190292530     2.3988525417    -1.1089059902
   45      H      -7.3932456650    -0.2230883511    -1.3345035759
   46      H      -6.0565856822     0.3350087780    -2.3854683832
   47      H      -5.6146747093    -1.8321157446    -0.5982189317
   48      H       0.4275783498     2.3125121735     0.0785461435
   49      H       0.4926103374     0.5004077475    -0.0943184510
   50      H       1.5391898587    -2.3380210122     2.5512078488
   51      H       1.1665263800    -0.7068797638     3.2423224654
   52      H       2.8088586993    -1.4172953002     3.4551670336
   53      H       1.2599460937    -3.1111737147    -0.4556436423
   54      H       0.2081737479    -2.7201478826    -1.8760504120
   55      H      -1.2009562263    -3.1347288712     0.2531361448
   56      H      -0.3569013432    -1.7489089683     1.0345063239
 ----------------------------------------------------------------

   10   -1510.2843554991      2.98E-09 Convergence criterion met
 Total energy in the final basis set = -1510.28435550
 Final energy is   -1510.28435549912
 **  OPTIMIZATION CONVERGED  **

                    Orbital Energies (a.u.)
 --------------------------------------------------------------

 Alpha MOs
 -- Occupied --
-18.950 -18.937 -18.934 -18.924 -18.892 -18.883 -18.882 -18.879
-18.876 -18.871 -10.110 -10.107 -10.098 -10.095 -10.077 -10.075
-10.074 -10.064 -10.063 -10.056 -10.056 -10.046 -10.043 -10.042
-10.038 -10.034 -10.024 -10.023 -10.019 -10.018  -1.024  -1.016
 -1.010  -1.002  -0.975  -0.966  -0.946  -0.943  -0.934  -0.929
 -0.769  -0.761  -0.731  -0.724  -0.715  -0.706  -0.700  -0.672
 -0.653  -0.620  -0.601  -0.580  -0.551  -0.544  -0.541  -0.535
 -0.518  -0.508  -0.493  -0.478  -0.464  -0.456  -0.455  -0.448
 -0.441  -0.433  -0.428  -0.421  -0.419  -0.410  -0.407  -0.404
 -0.395  -0.387  -0.380  -0.367  -0.365  -0.360  -0.355  -0.350
 -0.342  -0.340  -0.336  -0.336  -0.331  -0.329  -0.328  -0.317
 -0.311  -0.308  -0.306  -0.303  -0.302  -0.293  -0.279  -0.276
 -0.272  -0.255  -0.252  -0.248  -0.239  -0.239  -0.230  -0.191
 -0.181  -0.178  -0.165  -0.159  -0.158  -0.155  -0.149  -0.149
 -0.140

          Ground-State Mulliken Net Atomic Charges

     Atom                 Charge (a.u.)
  ----------------------------------------
      1 O                    -0.216218
      2 C                     0.207004
      3 C                    -0.078807
      4 C                    -0.075727
      5 C                     0.206402
      6 O                    -0.169117
      7 C                    -0.050138
      8 C                    -0.050345
      9 O                    -0.173033
     10 C                     0.223109
     11 C                    -0.081336
     12 C                    -0.078608
     13 C                     0.211710
     14 O                    -0.211809
     15 O                    -0.169112
     16 O                    -0.169797
     17 O                    -0.213212
     18 C                    -0.127047
     19 C                     0.025910
     20 C                    -0.144280
     21 C                    -0.143739
     22 C                     0.025321
     23 O                    -0.187736
     24 H                     0.087114
     25 H                     0.086473
     26 H                     0.087881
     27 H                     0.079163
     28 H                     0.073907
     29 H                     0.079483
     30 H                     0.074214
     31 H                     0.088229
     32 O                    -0.210289
     33 C                    -0.147234
     34 C                     0.022546
     35 C                    -0.142121
     36 C                    -0.145501
     37 C                     0.024944
     38 O                    -0.187267
     39 H                     0.084567
     40 H                     0.086879
     41 H                     0.089145
     42 H                     0.089046
     43 H                     0.077810
     44 H                     0.072489
     45 H                     0.077878
     46 H                     0.072454
     47 H                     0.086421
     48 H                     0.073528
     49 H                     0.105662
     50 H                     0.092394
     51 H                     0.092253
     52 H                     0.096635
     53 H                     0.102026
     54 H                     0.087298
     55 H                     0.096348
     56 H                     0.086229
  ----------------------------------------
  Sum of atomic charges =     0.000000

                    Cartesian Multipole Moments
 -----------------------------------------------------------------
    Charge (ESU x 10^10)
                 0.0000
    Dipole Moment (Debye)
         X       0.1446      Y       1.1613      Z      -3.1933
       Tot       3.4010
    Quadrupole Moments (Debye-Ang)
        XX    -165.5989     XY       2.7302     YY    -157.6613
        XZ       6.8940     YZ      -4.0304     ZZ    -161.1039

 Total job time:  79.96s(wall), 3809.27s(cpu)
        *  Thank you very much for using Q-Chem.  Have a nice day.  *
