 Q-Chem 5.0, Q-Chem, Inc., Pleasanton, CA (2017)
 Q-Chem 5.0.1 for Intel X86 EM64T Linux

User input:
--------------------------------------------------------------
$molecule
0  1
O -3.94934 -3.66094 2.70899
C -3.26408 -4.56952 2.26188
C -3.36658 -6.02376 2.66595
C -2.27333 -6.57303 3.59705
C -1.29943 -5.56331 4.16282
O -0.38374 -5.21763 3.21023
C 0.5678 -4.25116 3.66823
C 1.55471 -3.91654 2.5546
O 0.86004 -3.32041 1.44783
C 0.52164 -2.01668 1.60575
C -0.20498 -1.44843 0.41002
C -1.49129 -0.67742 0.74055
C -1.67098 -0.28372 2.19293
O -2.51331 0.49395 2.61751
O -2.811 -4.47558 0.98231
O -1.23017 -1.11731 3.17691
O 1.07389 -1.29299 2.43067
C -1.46488 -0.93617 4.53212
C 0.60953 -0.36555 -0.32229
C 0.11891 -0.23711 -1.76357
C -1.23447 0.40555 -1.54252
C -1.18693 0.62773 -0.02586
O 0.17613 0.84178 0.24811
H -0.38662 -2.27913 -0.30567
H -2.43903 -1.12246 0.39639
H 1.70567 -0.55279 -0.30169
H 0.78465 0.4996 -2.26806
H 0.10554 -1.17988 -2.35172
H -1.25293 1.37723 -2.08433
H -2.10963 -0.21372 -1.83654
H -1.87123 1.45784 0.25838
O -1.2625 -5.19586 5.33287
C -3.28311 -3.62501 0.00474
C -4.62328 -6.29024 3.52383
C -5.00885 -7.76758 3.45468
C -3.90924 -8.38246 4.29023
C -3.16287 -7.12093 4.73566
O -4.17323 -6.1503 4.84682
H -3.4567 -6.63226 1.73596
H -1.67584 -7.39792 3.14792
H -2.43788 -3.11317 -0.4798
H -5.49564 -5.66415 3.23377
H -5.97386 -7.8864 3.99779
H -5.11295 -8.17814 2.42732
H -4.37435 -8.88175 5.16948
H -3.24693 -9.09714 3.75552
H -2.58727 -7.33632 5.66295
H -4.02759 -2.89646 0.39041
H -3.77205 -4.2326 -0.78412
H -0.9829 -1.74076 5.11812
H -2.55572 -0.96267 4.74111
H -1.04229 0.03641 4.86377
H 2.38741 -3.2717 2.9151
H 2.01192 -4.8694 2.21281
H 1.14867 -4.67552 4.51831
H 0.06477 -3.32772 4.0032
$end

$opt
CONSTRAINT
tors           1           2           3           4    -104.211
tors           3           4           5           6     -77.128
tors           4           5           6           7    +179.402
tors           5           6           7           8    +179.956
tors           6           7           8           9     +62.666
tors           7           8           9          10     +77.613
tors           8           9          10          11    -180.000
tors           9          10          11          12    +131.418
tors          11          12          13          14    +168.474
ENDCONSTRAINT
$end

$rem
JOBTYPE                   OPT
METHOD                    B3LYP
DFT_D                     d3_op
BASIS                     STO-3G
GEOM_OPT_MAX_CYCLES       100
GEOM_OPT_TOL_GRADIENT     300
GEOM_OPT_TOL_DISPLACEMENT 1200
GEOM_OPT_TOL_ENERGY       100
SYMMETRY                  False
THRESH                    12
SCF_CONVERGENCE           8
MAX_SUB_FILE_NUM          128
MEM_STATIC                400
MEM_TOTAL                 4000
$end
--------------------------------------------------------------

   15   -1510.1200847010      6.52E-09 Convergence criterion met
 Total energy in the final basis set = -1510.12008470
   14   -1510.1929148126      3.12E-09 Convergence criterion met
 Total energy in the final basis set = -1510.19291481
   15   -1510.2298906748      1.86E-09 Convergence criterion met
 Total energy in the final basis set = -1510.22989067
   15   -1510.2523160483      4.50E-09 Convergence criterion met
 Total energy in the final basis set = -1510.25231605
   14   -1510.2629291472      6.10E-09 Convergence criterion met
 Total energy in the final basis set = -1510.26292915
   14   -1510.2709381400      4.21E-09 Convergence criterion met
 Total energy in the final basis set = -1510.27093814
   13   -1510.2754251412      6.94E-09 Convergence criterion met
 Total energy in the final basis set = -1510.27542514
   13   -1510.2780758307      4.45E-09 Convergence criterion met
   12   -1510.2851507443      3.36E-09 Convergence criterion met
 Total energy in the final basis set = -1510.28515074
   12   -1510.2853610628      4.20E-09 Convergence criterion met
 Total energy in the final basis set = -1510.28536106
   12   -1510.2855091675      3.74E-09 Convergence criterion met
 Total energy in the final basis set = -1510.28550917
   11   -1510.2855409302      8.16E-09 Convergence criterion met
 Total energy in the final basis set = -1510.28554093
   11   -1510.2855419176      5.16E-09 Convergence criterion met
 Total energy in the final basis set = -1510.28554192
    9   -1510.2855449727      6.05E-09 Convergence criterion met
 Total energy in the final basis set = -1510.28554497

             Standard Nuclear Orientation (Angstroms)
    I     Atom           X                Y                Z
 ----------------------------------------------------------------
    1      O      -1.0732705959     1.6883301462     0.5446630542
    2      C      -1.8039386112     1.4220471076    -0.4331908935
    3      C      -3.3347417398     1.1152651547    -0.4670685000
    4      C      -3.6715706760    -0.4229324387    -0.6639987374
    5      C      -2.5565092028    -1.4526194490    -0.2362655277
    6      O      -1.5023479529    -1.5350933265    -1.2047313558
    7      C      -0.4927347638    -2.5154259254    -0.7122643931
    8      C       0.6695252772    -2.6252596961    -1.7526827273
    9      O       1.3869126404    -1.3345860391    -1.9152067862
   10      C       2.2751987980    -1.1691611132    -0.7756554624
   11      C       3.0515689447     0.1804773938    -0.9074132299
   12      C       3.0386390651     1.0746311456     0.4016350816
   13      C       2.0223393439     0.7433194203     1.5590516791
   14      O       2.0743135308     1.2514389403     2.7009793818
   15      O      -1.3755195374     1.3458909497    -1.7932763956
   16      O       0.9576591395    -0.1015760915     1.1194657821
   17      O       2.4760113629    -2.0732442412     0.0615383275
   18      C       0.0277283230    -0.3602085966     2.2499258158
   19      C       4.6074075618    -0.1559432958    -0.9963525518
   20      C       5.4005902240     1.1532947128    -1.3882544865
   21      C       5.4172126803     1.9248980913    -0.0158860719
   22      C       4.5518924086     0.9559740482     0.8791185486
   23      O       4.9687108381    -0.3882110120     0.4192776676
   24      H       2.6948992333     0.7322491848    -1.7913335948
   25      H       2.8279005753     2.1227077311     0.1159706624
   26      H       4.8442346058    -1.0483982021    -1.6077324249
   27      H       6.4184324557     0.9007137372    -1.7251831833
   28      H       4.8947607886     1.7176257471    -2.1882524452
   29      H       6.4397037759     2.0066428110     0.3863219973
   30      H       4.9810824184     2.9339928411    -0.0849271248
   31      H       4.6874208119     1.0605396409     1.9732405322
   32      O      -2.5465226437    -2.1108883846     0.8292942559
   33      C       0.0997397000     1.3846558423    -1.8880551233
   34      C      -4.1571944809     1.4595042339     0.8446122022
   35      C      -5.6426016829     1.7379941715     0.3919589951
   36      C      -6.0918647288     0.2884475075    -0.0283628116
   37      C      -4.8368999120    -0.5695627734     0.4052015025
   38      O      -4.2720564411     0.1686990954     1.5616726471
   39      H      -3.7408541870     1.6710285035    -1.3316363354
   40      H      -3.9875262094    -0.6302568427    -1.7023863746
   41      H       0.4830322507     0.3439676327    -2.0070186706
   42      H      -3.6920084488     2.2270091682     1.4930413207
   43      H      -6.2384786759     2.1133022454     1.2393606723
   44      H      -5.7039067348     2.4633403359    -0.4351152281
   45      H      -6.9893624435    -0.0348159763     0.5218347447
   46      H      -6.2914409175     0.2047337518    -1.1088643351
   47      H      -5.0533203630    -1.6167944923     0.6907435214
   48      H       0.5244361499     1.8333914548    -0.9693084022
   49      H       0.3645781316     1.9943743941    -2.7722043852
   50      H      -0.8308651168    -0.9205228783     1.8328452033
   51      H      -0.3311700237     0.5879249060     2.6952874419
   52      H       0.5217856196    -0.9672045268     3.0355603843
   53      H       1.3713632873    -3.4149246644    -1.4092283802
   54      H       0.2720856591    -2.8791873621    -2.7558488626
   55      H      -0.9596903294    -3.5154581355    -0.5755842549
   56      H      -0.0764274751    -2.1953888723     0.2643168835
 ----------------------------------------------------------------

    9   -1510.2855442490      9.57E-09 Convergence criterion met
 Total energy in the final basis set = -1510.28554425
 Final energy is   -1510.28554424902
 **  OPTIMIZATION CONVERGED  **

                    Orbital Energies (a.u.)
 --------------------------------------------------------------

 Alpha MOs
 -- Occupied --
-18.941 -18.938 -18.932 -18.925 -18.890 -18.885 -18.879 -18.877
-18.872 -18.867 -10.104 -10.101 -10.096 -10.096 -10.079 -10.073
-10.063 -10.059 -10.058 -10.057 -10.050 -10.041 -10.040 -10.040
-10.038 -10.036 -10.023 -10.021 -10.020 -10.019  -1.019  -1.013
 -1.006  -1.003  -0.973  -0.968  -0.943  -0.935  -0.932  -0.928
 -0.765  -0.763  -0.729  -0.723  -0.713  -0.705  -0.700  -0.653
 -0.653  -0.619  -0.598  -0.581  -0.548  -0.543  -0.539  -0.537
 -0.513  -0.510  -0.485  -0.469  -0.460  -0.458  -0.452  -0.448
 -0.442  -0.433  -0.430  -0.416  -0.411  -0.407  -0.403  -0.400
 -0.395  -0.376  -0.370  -0.363  -0.361  -0.357  -0.355  -0.346
 -0.344  -0.341  -0.337  -0.332  -0.331  -0.329  -0.325  -0.314
 -0.310  -0.306  -0.305  -0.297  -0.294  -0.290  -0.277  -0.275
 -0.271  -0.265  -0.252  -0.244  -0.243  -0.235  -0.233  -0.187
 -0.181  -0.170  -0.163  -0.159  -0.157  -0.149  -0.148  -0.144
 -0.142

          Ground-State Mulliken Net Atomic Charges

     Atom                 Charge (a.u.)
  ----------------------------------------
      1 O                    -0.216649
      2 C                     0.209177
      3 C                    -0.080002
      4 C                    -0.076302
      5 C                     0.205260
      6 O                    -0.168124
      7 C                    -0.052654
      8 C                    -0.049289
      9 O                    -0.169977
     10 C                     0.217037
     11 C                    -0.080470
     12 C                    -0.078891
     13 C                     0.212773
     14 O                    -0.214422
     15 O                    -0.172475
     16 O                    -0.170838
     17 O                    -0.207874
     18 C                    -0.130445
     19 C                     0.026595
     20 C                    -0.144823
     21 C                    -0.142849
     22 C                     0.025531
     23 O                    -0.185977
     24 H                     0.086665
     25 H                     0.084600
     26 H                     0.082288
     27 H                     0.078712
     28 H                     0.073348
     29 H                     0.078938
     30 H                     0.074401
     31 H                     0.090780
     32 O                    -0.212632
     33 C                    -0.149479
     34 C                     0.022760
     35 C                    -0.141971
     36 C                    -0.145854
     37 C                     0.025375
     38 O                    -0.187686
     39 H                     0.086209
     40 H                     0.086277
     41 H                     0.105518
     42 H                     0.087562
     43 H                     0.078032
     44 H                     0.072892
     45 H                     0.078294
     46 H                     0.072777
     47 H                     0.087110
     48 H                     0.087821
     49 H                     0.076745
     50 H                     0.095840
     51 H                     0.101588
     52 H                     0.086890
     53 H                     0.099125
     54 H                     0.092304
     55 H                     0.088883
     56 H                     0.101579
  ----------------------------------------
  Sum of atomic charges =    -0.000000

                    Cartesian Multipole Moments
 -----------------------------------------------------------------
    Charge (ESU x 10^10)
                -0.0000
    Dipole Moment (Debye)
         X      -0.8815      Y       0.7395      Z      -4.0528
       Tot       4.2129
    Quadrupole Moments (Debye-Ang)
        XX    -148.9917     XY       3.8147     YY    -155.1662
        XZ      -2.6792     YZ       1.7800     ZZ    -165.7979

 Total job time:  92.79s(wall), 4426.94s(cpu)
        *  Thank you very much for using Q-Chem.  Have a nice day.  *
