 Q-Chem 5.0, Q-Chem, Inc., Pleasanton, CA (2017)
 Q-Chem 5.0.1 for Intel X86 EM64T Linux

User input:
--------------------------------------------------------------
$molecule
0  1
O -1.9025478826 1.1397956336 1.9633114603
C -1.7971178663 1.1105303945 0.7116993762
C -3.0379103842 1.0688066379 -0.2539547177
C -3.3890593857 -0.3173049089 -0.9465662606
C -2.636912197 -1.5995280794 -0.4335810643
O -1.3738128107 -1.7854555426 -1.1067962973
C -0.664742645 -2.9303495423 -0.466846615
C 0.7268282195 -3.1964384433 -1.1503649054
O 1.5893178825 -2.0463012302 -1.4901037511
C 1.9775540471 -1.3263988671 -0.2926798069
C 2.8790465138 -0.1476088067 -0.8037803963
C 3.0737447904 1.2025775902 0.010407668
C 2.3776411749 1.5029770256 1.3955606215
O 2.6139907252 2.5493361196 2.0459809729
O -0.4940691078 1.2600793902 0.149119088
O 1.4852831879 0.4863324984 1.7992737579
O 1.7338402557 -1.7554553351 0.8515585184
C 0.7929780543 0.8493825327 3.0634235628
C 4.3938679802 -0.6643718687 -0.8788928288
C 5.1668613972 0.2040326787 -1.9475833874
C 5.3535891957 1.5513909225 -1.1578582002
C 4.6552385564 1.1996111681 0.213702284
O 4.9725408915 -0.2330190771 0.4092988719
H 2.5231219369 0.0810893065 -1.8233559986
H 2.7916178446 2.0487564703 -0.6437225741
H 4.4943878008 -1.7601065897 -1.0050652107
H 6.135439675 -0.2612696044 -2.1904834224
H 4.5907660482 0.3272470326 -2.8787726623
H 6.4191978534 1.7807537714 -0.998269864
H 4.8788792179 2.4104179666 -1.658395907
H 4.9897307405 1.7998545051 1.0821148993
O -3.0540540494 -2.3929498839 0.4365524775
C -0.4063956702 0.9643724533 -1.3002501681
C -4.3876906197 1.3599567631 0.5399676342
C -5.4364813062 1.927156493 -0.4925933678
C -5.769599736 0.6274070185 -1.3161046859
C -4.9194140767 -0.4560414982 -0.5404602252
O -4.919849821 0.0181524485 0.8606291566
H -2.8927813596 1.8363907124 -1.0337541757
H -3.2495657139 -0.2453242042 -2.0407768309
H -0.6477290963 -0.1091888099 -1.4835439319
H -4.2439205138 1.9497087253 1.4660216757
H -6.3253648186 2.3076152544 0.0353587908
H -5.0207457404 2.7360278926 -1.1141524902
H -6.8417581505 0.3799681875 -1.2694787318
H -5.4718834371 0.7059228302 -2.3740661666
H -5.3040038168 -1.4925367316 -0.5970720629
H 0.6429048487 1.1671747152 -1.5727853896
H -1.0588704955 1.6190481687 -1.9105184521
H 0.9119294504 0.0022085369 3.7647098424
H -0.2856184516 1.0098129851 2.8164281367
H 1.2461873426 1.7675036162 3.485511917
H 1.266158435 -3.9026675825 -0.4795554568
H 0.5614050801 -3.7013200499 -2.124048377
H -1.2734185766 -3.8568898229 -0.5495835594
H -0.5108744062 -2.7102838357 0.6111646546
$end

$rem
JOBTYPE                   OPT
METHOD                    B3LYP
DFT_D                     d3_op
BASIS                     STO-3G
GEOM_OPT_MAX_CYCLES       100
GEOM_OPT_TOL_GRADIENT     300
GEOM_OPT_TOL_DISPLACEMENT 1200
GEOM_OPT_TOL_ENERGY       100
SYMMETRY                  False
THRESH                    12
SCF_CONVERGENCE           8
MAX_SUB_FILE_NUM          128
MEM_STATIC                400
MEM_TOTAL                 4000
$end
--------------------------------------------------------------

   16   -1510.2671176990      7.19E-09 Convergence criterion met
 Total energy in the final basis set = -1510.26711770
   15   -1510.2600303510      7.20E-09 Convergence criterion met
 Total energy in the final basis set = -1510.26003035
   13   -1510.2638024943      5.93E-09 Convergence criterion met
 Total energy in the final basis set = -1510.26380249
   14   -1510.2681200554      9.72E-09 Convergence criterion met
 Total energy in the final basis set = -1510.26812006
   15   -1510.1939969565      6.76E-09 Convergence criterion met
 Total energy in the final basis set = -1510.19399696
   15   -1510.2633266136      6.57E-09 Convergence criterion met
 Total energy in the final basis set = -1510.26332661
   15   -1510.2719386762      4.39E-09 Convergence criterion met
 Total energy in the final basis set = -1510.27193868
   14   -1510.2753205077      5.63E-09 Convergence criterion met
   13   -1510.2861843347      2.98E-09 Convergence criterion met
 Total energy in the final basis set = -1510.28618433
   11   -1510.2862019068      9.07E-09 Convergence criterion met
 Total energy in the final basis set = -1510.28620191
   11   -1510.2861885777      6.59E-09 Convergence criterion met
 Total energy in the final basis set = -1510.28618858
   11   -1510.2861861042      3.33E-09 Convergence criterion met
 Total energy in the final basis set = -1510.28618610
   11   -1510.2861869749      2.06E-09 Convergence criterion met
 Total energy in the final basis set = -1510.28618697
    9   -1510.2861858817      7.43E-09 Convergence criterion met
 Total energy in the final basis set = -1510.28618588

             Standard Nuclear Orientation (Angstroms)
    I     Atom           X                Y                Z
 ----------------------------------------------------------------
    1      O      -1.8075696819     2.4435909296     0.4575357203
    2      C      -1.7845076383     1.5886314387    -0.4611229310
    3      C      -3.0815903785     0.9172557401    -1.0582055010
    4      C      -3.4491699691    -0.4933332085    -0.4153830372
    5      C      -2.4754459404    -0.9397180510     0.7291492741
    6      O      -1.5374770616    -1.8814448577     0.1763442641
    7      C      -0.5971888674    -2.3471087427     1.2285518106
    8      C       0.5499316481    -3.1396579153     0.5226233259
    9      O       1.3392440470    -2.2605489027    -0.3679206420
   10      C       2.3947087630    -1.6154164762     0.3703938544
   11      C       3.1884099481    -0.7267128666    -0.6408140366
   12      C       3.1624684768     0.8304634575    -0.3421848404
   13      C       2.4228221534     1.2922389390     0.9663051323
   14      O       2.8448899568     2.1515342330     1.7719479596
   15      O      -0.5061790956     1.2639603108    -1.0140212001
   16      O       1.1615350981     0.6338249517     1.0697193769
   17      O       2.6336193730    -1.8298624348     1.5774565123
   18      C       0.3519000975     1.2419378084     2.1598523322
   19      C       4.7544657941    -1.0104528737    -0.5740725280
   20      C       5.4044995650    -0.4717239838    -1.9089591282
   21      C       5.3600005754     1.0821915588    -1.6599945396
   22      C       4.7107876587     1.1424964827    -0.2229552731
   23      O       5.2391102736    -0.0658105966     0.4543825800
   24      H       2.7878318227    -0.9369535974    -1.6475910649
   25      H       2.6983360650     1.3726245912    -1.1876949036
   26      H       5.0213590878    -2.0502931680    -0.3027831317
   27      H       6.4397674555    -0.8359353956    -2.0050834119
   28      H       4.8375100319    -0.7784546845    -2.8024872287
   29      H       6.3713620980     1.5183909977    -1.6463188670
   30      H       4.7548794986     1.6159306771    -2.4101529993
   31      H       4.9300143429     2.0491167566     0.3744260946
   32      O      -2.4744452065    -0.5829995972     1.9253475954
   33      C      -0.4661927111     0.0326357077    -1.8363944730
   34      C      -4.3696879339     1.7632474994    -0.6698154468
   35      C      -5.5455229685     1.3295580413    -1.6303955794
   36      C      -5.9062778145    -0.0860304469    -1.0446269129
   37      C      -4.8946912637    -0.1836645579     0.1651122239
   38      O      -4.7728732909     1.2106068778     0.6423498154
   39      H      -2.9841122919     0.8272195040    -2.1537065859
   40      H      -3.4670356066    -1.2856227053    -1.1849266175
   41      H      -0.7807374797    -0.8562315693    -1.2409328648
   42      H      -4.1881756412     2.8522390018    -0.5886903637
   43      H      -6.3914661327     2.0296025236    -1.5425805505
   44      H      -5.2292331615     1.2868953323    -2.6848281447
   45      H      -6.9456221650    -0.1220743831    -0.6815558442
   46      H      -5.7575511484    -0.8989271837    -1.7731050488
   47      H      -5.2053737056    -0.8502829658     0.9927101063
   48      H       0.5938946467    -0.0862071603    -2.1238771868
   49      H      -1.0771364218     0.1190055697    -2.7576747334
   50      H      -0.1343048618     0.4241674127     2.7239249731
   51      H      -0.4286059409     1.8887280493     1.6956958735
   52      H       1.0077963776     1.8365235320     2.8246482963
   53      H       1.2020786559    -3.5841413979     1.3055689738
   54      H       0.1265631390    -3.9384831491    -0.1192386909
   55      H      -1.1271203899    -3.0052939000     1.9517829131
   56      H      -0.1723367158    -1.4856180381     1.7834230183
 ----------------------------------------------------------------

    9   -1510.2861855726      5.30E-09 Convergence criterion met
 Total energy in the final basis set = -1510.28618557
 Final energy is   -1510.28618557260
 **  OPTIMIZATION CONVERGED  **

                    Orbital Energies (a.u.)
 --------------------------------------------------------------

 Alpha MOs
 -- Occupied --
-18.949 -18.936 -18.933 -18.922 -18.894 -18.893 -18.885 -18.879
-18.875 -18.864 -10.111 -10.104 -10.100 -10.090 -10.081 -10.079
-10.067 -10.064 -10.059 -10.056 -10.053 -10.049 -10.045 -10.037
-10.034 -10.031 -10.026 -10.025 -10.019 -10.018  -1.026  -1.012
 -1.008  -0.998  -0.976  -0.968  -0.951  -0.938  -0.936  -0.924
 -0.771  -0.761  -0.733  -0.724  -0.715  -0.708  -0.699  -0.660
 -0.645  -0.624  -0.603  -0.583  -0.556  -0.545  -0.540  -0.535
 -0.519  -0.507  -0.489  -0.470  -0.465  -0.463  -0.455  -0.449
 -0.443  -0.436  -0.430  -0.423  -0.416  -0.409  -0.402  -0.400
 -0.398  -0.389  -0.374  -0.369  -0.365  -0.362  -0.354  -0.349
 -0.345  -0.339  -0.337  -0.336  -0.328  -0.323  -0.322  -0.315
 -0.313  -0.308  -0.307  -0.301  -0.294  -0.289  -0.284  -0.279
 -0.270  -0.267  -0.252  -0.245  -0.239  -0.236  -0.231  -0.194
 -0.179  -0.175  -0.167  -0.159  -0.156  -0.149  -0.147  -0.144
 -0.141

          Ground-State Mulliken Net Atomic Charges

     Atom                 Charge (a.u.)
  ----------------------------------------
      1 O                    -0.201160
      2 C                     0.209367
      3 C                    -0.083607
      4 C                    -0.080271
      5 C                     0.207319
      6 O                    -0.174677
      7 C                    -0.050263
      8 C                    -0.050221
      9 O                    -0.174186
     10 C                     0.213587
     11 C                    -0.079950
     12 C                    -0.077613
     13 C                     0.214981
     14 O                    -0.214293
     15 O                    -0.165369
     16 O                    -0.175358
     17 O                    -0.212538
     18 C                    -0.149074
     19 C                     0.026053
     20 C                    -0.143723
     21 C                    -0.144553
     22 C                     0.023982
     23 O                    -0.186831
     24 H                     0.081787
     25 H                     0.085484
     26 H                     0.082419
     27 H                     0.077788
     28 H                     0.071911
     29 H                     0.078304
     30 H                     0.072800
     31 H                     0.092984
     32 O                    -0.198194
     33 C                    -0.141546
     34 C                     0.026986
     35 C                    -0.144097
     36 C                    -0.144380
     37 C                     0.026826
     38 O                    -0.181919
     39 H                     0.079876
     40 H                     0.084882
     41 H                     0.107125
     42 H                     0.091224
     43 H                     0.080021
     44 H                     0.072513
     45 H                     0.079760
     46 H                     0.072813
     47 H                     0.086176
     48 H                     0.088317
     49 H                     0.072503
     50 H                     0.081578
     51 H                     0.106631
     52 H                     0.097133
     53 H                     0.098857
     54 H                     0.090211
     55 H                     0.088398
     56 H                     0.103226
  ----------------------------------------
  Sum of atomic charges =     0.000000

                    Cartesian Multipole Moments
 -----------------------------------------------------------------
    Charge (ESU x 10^10)
                -0.0000
    Dipole Moment (Debye)
         X      -2.3453      Y      -3.3582      Z      -5.4974
       Tot       6.8556
    Quadrupole Moments (Debye-Ang)
        XX    -158.1890     XY       3.4931     YY    -158.9539
        XZ      -2.1291     YZ      -6.8971     ZZ    -161.3854

 Total job time:  117.12s(wall), 5591.50s(cpu)
        *  Thank you very much for using Q-Chem.  Have a nice day.  *
