 Q-Chem 5.0, Q-Chem, Inc., Pleasanton, CA (2017)
 Q-Chem 5.0.1 for Intel X86 EM64T Linux

User input:
--------------------------------------------------------------
$molecule
0  1
O -3.94934 -3.66094 2.70899
C -3.26408 -4.56952 2.26188
C -3.36658 -6.02376 2.66595
C -2.27333 -6.57303 3.59705
C -1.29943 -5.56331 4.16282
O -0.26707 -5.37421 3.28882
C 0.62877 -4.33307 3.69225
C 1.75204 -4.18143 2.67176
O 1.21616 -4.24652 1.3408
C 0.3389 -3.2644 1.01674
C -0.18801 -3.38781 -0.39315
C -1.55434 -2.72932 -0.63353
C -2.01806 -1.76029 0.43542
O -3.03806 -1.08802 0.3884
O -2.81855 -4.46249 0.9704
O -1.67191 -1.94723 1.73798
O 0.60202 -2.14345 1.44761
C -2.04636 -1.15237 2.80962
C 0.70493 -2.65703 -1.40928
C 0.46126 -3.2124 -2.81169
C -0.91191 -2.64653 -3.09869
C -1.14142 -1.82414 -1.82446
O 0.14546 -1.37461 -1.47973
H -0.17842 -4.46797 -0.64305
H -2.42569 -3.27266 -1.02388
H 1.78635 -2.70757 -1.15383
H 1.19507 -2.73137 -3.49732
H 0.54671 -4.31731 -2.89506
H -0.83289 -1.96801 -3.97733
H -1.71181 -3.39847 -3.27206
H -1.88543 -1.02135 -2.02984
O -1.33385 -5.10835 5.30206
C -2.53058 -5.543 0.10829
C -4.6066 -6.2251 3.58783
C -5.07134 -7.68343 3.58006
C -3.94532 -8.33607 4.34484
C -3.14703 -7.09515 4.75989
O -4.11194 -6.08491 4.89301
H -3.59304 -6.73005 1.85234
H -1.68349 -7.41016 3.16021
H -1.74635 -6.19641 0.54892
H -5.47014 -5.57512 3.32395
H -5.99454 -7.72753 4.20222
H -5.28822 -8.12449 2.58346
H -4.3764 -8.85286 5.23096
H -3.31894 -9.04262 3.75832
H -2.54918 -7.32276 5.67047
H -2.17598 -5.27245 -0.89519
H -3.45714 -6.10817 -0.12615
H -1.60031 -1.55899 3.73951
H -3.15059 -1.13891 2.92445
H -1.67522 -0.11633 2.65893
H 2.35231 -3.26225 2.85182
H 2.43114 -5.05319 2.78212
H 1.07527 -4.52787 4.69345
H 0.06232 -3.37725 3.73846
$end

$opt
CONSTRAINT
tors           1           2           3           4    -104.211
tors           3           4           5           6     -86.527
tors           4           5           6           7    +174.128
tors           5           6           7           8    +179.956
tors           6           7           8           9     +43.040
tors           7           8           9          10     +62.568
tors           8           9          10          11    -180.000
tors           9          10          11          12    +155.383
tors          11          12          13          14    +175.901
ENDCONSTRAINT
$end

$rem
JOBTYPE                   OPT
METHOD                    B3LYP
DFT_D                     d3_op
BASIS                     STO-3G
GEOM_OPT_MAX_CYCLES       100
GEOM_OPT_TOL_GRADIENT     300
GEOM_OPT_TOL_DISPLACEMENT 1200
GEOM_OPT_TOL_ENERGY       100
SYMMETRY                  False
THRESH                    12
SCF_CONVERGENCE           8
MAX_SUB_FILE_NUM          128
MEM_STATIC                400
MEM_TOTAL                 4000
$end
--------------------------------------------------------------

   16   -1510.0674350475      3.21E-09 Convergence criterion met
 Total energy in the final basis set = -1510.06743505
   15   -1510.1415662215      4.54E-09 Convergence criterion met
 Total energy in the final basis set = -1510.14156622
   14   -1510.1913445342      9.20E-09 Convergence criterion met
 Total energy in the final basis set = -1510.19134453
   14   -1510.2191902335      8.24E-09 Convergence criterion met
 Total energy in the final basis set = -1510.21919023
   15   -1510.2350574064      2.70E-09 Convergence criterion met
 Total energy in the final basis set = -1510.23505741
   14   -1510.2452205462      3.94E-09 Convergence criterion met
 Total energy in the final basis set = -1510.24522055
   13   -1510.2529263410      8.31E-09 Convergence criterion met
 Total energy in the final basis set = -1510.25292634
   13   -1510.2575730201      9.65E-09 Convergence criterion met
   12   -1510.2672878493      2.41E-09 Convergence criterion met
 Total energy in the final basis set = -1510.26728785
   11   -1510.2673109640      6.59E-09 Convergence criterion met
 Total energy in the final basis set = -1510.26731096
   10   -1510.2673208475      8.32E-09 Convergence criterion met
 Total energy in the final basis set = -1510.26732085
   10   -1510.2673327106      9.05E-09 Convergence criterion met
 Total energy in the final basis set = -1510.26733271
    9   -1510.2673387557      9.60E-09 Convergence criterion met
 Total energy in the final basis set = -1510.26733876
    9   -1510.2673410621      6.24E-09 Convergence criterion met
 Total energy in the final basis set = -1510.26734106

             Standard Nuclear Orientation (Angstroms)
    I     Atom           X                Y                Z
 ----------------------------------------------------------------
    1      O      -1.9025478826     1.1397956336     1.9633114603
    2      C      -1.7971178663     1.1105303945     0.7116993762
    3      C      -3.0379103842     1.0688066379    -0.2539547177
    4      C      -3.3890593857    -0.3173049089    -0.9465662606
    5      C      -2.6369121970    -1.5995280794    -0.4335810643
    6      O      -1.3738128107    -1.7854555426    -1.1067962973
    7      C      -0.6647426450    -2.9303495423    -0.4668466150
    8      C       0.7268282195    -3.1964384433    -1.1503649054
    9      O       1.5893178825    -2.0463012302    -1.4901037511
   10      C       1.9775540471    -1.3263988671    -0.2926798069
   11      C       2.8790465138    -0.1476088067    -0.8037803963
   12      C       3.0737447904     1.2025775902     0.0104076680
   13      C       2.3776411749     1.5029770256     1.3955606215
   14      O       2.6139907252     2.5493361196     2.0459809729
   15      O      -0.4940691078     1.2600793902     0.1491190880
   16      O       1.4852831879     0.4863324984     1.7992737579
   17      O       1.7338402557    -1.7554553351     0.8515585184
   18      C       0.7929780543     0.8493825327     3.0634235628
   19      C       4.3938679802    -0.6643718687    -0.8788928288
   20      C       5.1668613972     0.2040326787    -1.9475833874
   21      C       5.3535891957     1.5513909225    -1.1578582002
   22      C       4.6552385564     1.1996111681     0.2137022840
   23      O       4.9725408915    -0.2330190771     0.4092988719
   24      H       2.5231219369     0.0810893065    -1.8233559986
   25      H       2.7916178446     2.0487564703    -0.6437225741
   26      H       4.4943878008    -1.7601065897    -1.0050652107
   27      H       6.1354396750    -0.2612696044    -2.1904834224
   28      H       4.5907660482     0.3272470326    -2.8787726623
   29      H       6.4191978534     1.7807537714    -0.9982698640
   30      H       4.8788792179     2.4104179666    -1.6583959070
   31      H       4.9897307405     1.7998545051     1.0821148993
   32      O      -3.0540540494    -2.3929498839     0.4365524775
   33      C      -0.4063956702     0.9643724533    -1.3002501681
   34      C      -4.3876906197     1.3599567631     0.5399676342
   35      C      -5.4364813062     1.9271564930    -0.4925933678
   36      C      -5.7695997360     0.6274070185    -1.3161046859
   37      C      -4.9194140767    -0.4560414982    -0.5404602252
   38      O      -4.9198498210     0.0181524485     0.8606291566
   39      H      -2.8927813596     1.8363907124    -1.0337541757
   40      H      -3.2495657139    -0.2453242042    -2.0407768309
   41      H      -0.6477290963    -0.1091888099    -1.4835439319
   42      H      -4.2439205138     1.9497087253     1.4660216757
   43      H      -6.3253648186     2.3076152544     0.0353587908
   44      H      -5.0207457404     2.7360278926    -1.1141524902
   45      H      -6.8417581505     0.3799681875    -1.2694787318
   46      H      -5.4718834371     0.7059228302    -2.3740661666
   47      H      -5.3040038168    -1.4925367316    -0.5970720629
   48      H       0.6429048487     1.1671747152    -1.5727853896
   49      H      -1.0588704955     1.6190481687    -1.9105184521
   50      H       0.9119294504     0.0022085369     3.7647098424
   51      H      -0.2856184516     1.0098129851     2.8164281367
   52      H       1.2461873426     1.7675036162     3.4855119170
   53      H       1.2661584350    -3.9026675825    -0.4795554568
   54      H       0.5614050801    -3.7013200499    -2.1240483770
   55      H      -1.2734185766    -3.8568898229    -0.5495835594
   56      H      -0.5108744062    -2.7102838357     0.6111646546
 ----------------------------------------------------------------

    9   -1510.2673416903      5.61E-09 Convergence criterion met
 Total energy in the final basis set = -1510.26734169
 Final energy is   -1510.26734169034
 **  OPTIMIZATION CONVERGED  **

                    Orbital Energies (a.u.)
 --------------------------------------------------------------

 Alpha MOs
 -- Occupied --
-18.952 -18.944 -18.931 -18.917 -18.894 -18.893 -18.888 -18.887
-18.883 -18.846 -10.112 -10.111 -10.099 -10.083 -10.081 -10.080
-10.066 -10.064 -10.060 -10.059 -10.055 -10.052 -10.048 -10.037
-10.032 -10.027 -10.025 -10.020 -10.018 -10.017  -1.026  -1.014
 -1.011  -0.990  -0.977  -0.970  -0.950  -0.944  -0.936  -0.913
 -0.772  -0.760  -0.733  -0.724  -0.714  -0.709  -0.700  -0.666
 -0.636  -0.625  -0.605  -0.582  -0.555  -0.546  -0.539  -0.534
 -0.520  -0.507  -0.489  -0.471  -0.466  -0.460  -0.456  -0.448
 -0.438  -0.436  -0.429  -0.425  -0.421  -0.409  -0.400  -0.399
 -0.396  -0.381  -0.372  -0.367  -0.367  -0.359  -0.357  -0.347
 -0.344  -0.340  -0.336  -0.331  -0.328  -0.323  -0.319  -0.314
 -0.313  -0.308  -0.307  -0.301  -0.293  -0.291  -0.287  -0.282
 -0.273  -0.262  -0.253  -0.248  -0.239  -0.233  -0.224  -0.196
 -0.178  -0.177  -0.169  -0.161  -0.151  -0.149  -0.143  -0.140
 -0.135

          Ground-State Mulliken Net Atomic Charges

     Atom                 Charge (a.u.)
  ----------------------------------------
      1 O                    -0.197736
      2 C                     0.214103
      3 C                    -0.084326
      4 C                    -0.079848
      5 C                     0.206946
      6 O                    -0.174425
      7 C                    -0.051959
      8 C                    -0.049822
      9 O                    -0.175955
     10 C                     0.212489
     11 C                    -0.079370
     12 C                    -0.078731
     13 C                     0.211065
     14 O                    -0.230299
     15 O                    -0.161501
     16 O                    -0.159335
     17 O                    -0.194035
     18 C                    -0.152055
     19 C                     0.026676
     20 C                    -0.143917
     21 C                    -0.144310
     22 C                     0.025545
     23 O                    -0.188725
     24 H                     0.081523
     25 H                     0.079804
     26 H                     0.081602
     27 H                     0.077728
     28 H                     0.072571
     29 H                     0.078095
     30 H                     0.073216
     31 H                     0.089317
     32 O                    -0.197218
     33 C                    -0.145494
     34 C                     0.026164
     35 C                    -0.143631
     36 C                    -0.145389
     37 C                     0.027245
     38 O                    -0.183122
     39 H                     0.080948
     40 H                     0.083268
     41 H                     0.109869
     42 H                     0.093090
     43 H                     0.080389
     44 H                     0.072479
     45 H                     0.080094
     46 H                     0.072269
     47 H                     0.088078
     48 H                     0.088019
     49 H                     0.074312
     50 H                     0.078461
     51 H                     0.110352
     52 H                     0.090242
     53 H                     0.090701
     54 H                     0.087553
     55 H                     0.092976
     56 H                     0.104013
  ----------------------------------------
  Sum of atomic charges =     0.000000

                    Cartesian Multipole Moments
 -----------------------------------------------------------------
    Charge (ESU x 10^10)
                -0.0000
    Dipole Moment (Debye)
         X      -1.4731      Y      -0.0413      Z      -6.2367
       Tot       6.4085
    Quadrupole Moments (Debye-Ang)
        XX    -158.6054     XY      -6.0618     YY    -155.9339
        XZ       2.3356     YZ      -1.6844     ZZ    -163.5337

 Total job time:  101.08s(wall), 4816.82s(cpu)
        *  Thank you very much for using Q-Chem.  Have a nice day.  *
