 Q-Chem 5.0, Q-Chem, Inc., Pleasanton, CA (2017)
 Q-Chem 5.0.1 for Intel X86 EM64T Linux

User input:
--------------------------------------------------------------
$molecule
0  1
O -3.94934 -3.66094 2.70899
C -3.26408 -4.56952 2.26188
C -3.36658 -6.02376 2.66595
C -2.44656 -6.50438 3.80015
C -1.65437 -5.43804 4.52364
O -0.62343 -5.01129 3.73594
C 0.1675 -3.98777 4.3492
C 1.39769 -3.69281 3.49729
O 1.15292 -2.54916 2.66362
C 1.23495 -1.34645 3.28484
C 1.01306 -0.18358 2.34721
C 0.01142 0.86816 2.84605
C -0.34033 0.79959 4.31855
O -1.00077 1.62779 4.92885
O -2.20921 -4.25534 1.4648
O -0.29673 -0.38308 4.98792
O 1.85425 -1.20243 4.33681
C -0.70467 -0.59723 6.29298
C 2.27103 0.68269 2.14615
C 2.16482 1.44701 0.82765
C 1.07877 2.44653 1.16904
C 0.87412 2.13206 2.6559
O 2.14263 1.71036 3.09549
H 0.70256 -0.59292 1.35774
H -0.93822 0.90299 2.26859
H 3.21612 0.09744 2.17969
H 3.12443 1.99628 0.69376
H 1.9712 0.82553 -0.07299
H 1.49126 3.47109 1.03421
H 0.13269 2.33621 0.59595
H 0.45044 3.01759 3.17965
O -1.85097 -5.07201 5.67824
C -1.8821 -2.97199 1.07818
C -4.74603 -6.3308 3.29498
C -5.0579 -7.82202 3.17758
C -4.09644 -8.38848 4.19735
C -3.50051 -7.09427 4.76113
O -4.55168 -6.16701 4.67619
H -3.28704 -6.62457 1.73234
H -1.72804 -7.29169 3.48012
H -1.66258 -2.34743 1.97089
H -5.57486 -5.7404 2.84543
H -6.09687 -7.97169 3.54992
H -4.97114 -8.24581 2.15401
H -4.68556 -8.91717 4.97961
H -3.31345 -9.0641 3.79001
H -3.09392 -7.2814 5.77959
H -2.71716 -2.52113 0.5008
H -0.97809 -3.00424 0.43617
H -0.52692 -1.6574 6.56446
H -1.78916 -0.38088 6.39822
H -0.12166 0.04753 6.98464
H 2.28976 -3.5087 4.13867
H 1.66201 -4.58331 2.88787
H 0.56948 -4.42172 5.29435
H -0.41266 -3.07719 4.60851
$end

$opt
CONSTRAINT
tors           1           2           3           4     -92.643
tors           3           4           5           6     -74.646
tors           4           5           6           7    +179.402
tors           5           6           7           8    +172.585
tors           6           7           8           9     +97.099
tors           7           8           9          10     +77.613
tors           8           9          10          11    +178.098
tors           9          10          11          12    +131.418
tors          11          12          13          14    +171.774
ENDCONSTRAINT
$end

$rem
JOBTYPE                   OPT
METHOD                    B3LYP
DFT_D                     d3_op
BASIS                     STO-3G
GEOM_OPT_MAX_CYCLES       100
GEOM_OPT_TOL_GRADIENT     300
GEOM_OPT_TOL_DISPLACEMENT 1200
GEOM_OPT_TOL_ENERGY       100
SYMMETRY                  False
THRESH                    12
SCF_CONVERGENCE           8
MAX_SUB_FILE_NUM          128
MEM_STATIC                400
MEM_TOTAL                 4000
$end
--------------------------------------------------------------

   15   -1510.1274841278      7.00E-09 Convergence criterion met
 Total energy in the final basis set = -1510.12748413
   14   -1510.2011921060      7.56E-09 Convergence criterion met
 Total energy in the final basis set = -1510.20119211
   14   -1510.2413523768      4.27E-09 Convergence criterion met
 Total energy in the final basis set = -1510.24135238
   15   -1510.2600673202      1.77E-09 Convergence criterion met
 Total energy in the final basis set = -1510.26006732
   14   -1510.2699604472      6.00E-09 Convergence criterion met
 Total energy in the final basis set = -1510.26996045
   14   -1510.2741919203      3.36E-09 Convergence criterion met
 Total energy in the final basis set = -1510.27419192
   14   -1510.2767395009      2.38E-09 Convergence criterion met
 Total energy in the final basis set = -1510.27673950
   13   -1510.2785908173      9.02E-09 Convergence criterion met
   12   -1510.2888281292      7.10E-09 Convergence criterion met
 Total energy in the final basis set = -1510.28882813
   12   -1510.2889028320      6.11E-09 Convergence criterion met
 Total energy in the final basis set = -1510.28890283
   11   -1510.2889190900      3.82E-09 Convergence criterion met
 Total energy in the final basis set = -1510.28891909
   10   -1510.2889272113      6.34E-09 Convergence criterion met
 Total energy in the final basis set = -1510.28892721
   10   -1510.2889371026      4.93E-09 Convergence criterion met
 Total energy in the final basis set = -1510.28893710
   10   -1510.2889390917      2.08E-09 Convergence criterion met
 Total energy in the final basis set = -1510.28893909

             Standard Nuclear Orientation (Angstroms)
    I     Atom           X                Y                Z
 ----------------------------------------------------------------
    1      O      -2.0084410498     0.4405870615     1.8557849680
    2      C      -2.4406805508     0.9704404324     0.8039967072
    3      C      -3.8858270860     0.8263009661     0.1973786723
    4      C      -4.0008735487    -0.3615723324    -0.8657275733
    5      C      -2.6512774658    -1.1510093426    -0.9551793698
    6      O      -1.7291115297    -0.3354687109    -1.6815249321
    7      C      -0.4261312788    -1.0257523224    -1.7862105703
    8      C       0.5021864755    -0.1992940861    -2.7448321934
    9      O       1.3920255875     0.6710984596    -1.9411290406
   10      C       2.4698457737    -0.0860464789    -1.3826722029
   11      C       3.3832778465     0.9135902956    -0.5944087892
   12      C       3.7392062849     0.4111903428     0.8590335272
   13      C       2.7286573264    -0.5581618815     1.5692665233
   14      O       2.9455186264    -1.1481336650     2.6504854799
   15      O      -1.6828453087     1.8546832798    -0.0169599016
   16      O       1.4329840552    -0.5159581223     0.9393830432
   17      O       2.6538558967    -1.3050740396    -1.5832643977
   18      C       0.4450341148    -1.3002430265     1.7330589172
   19      C       4.8282430365     0.8306814452    -1.2577468078
   20      C       5.8049955839     1.8659333037    -0.5687958393
   21      C       6.1838124811     1.1036356809     0.7557603786
   22      C       5.2192610098    -0.1413568896     0.6590766050
   23      O       5.2959759496    -0.4918006727    -0.7776435718
   24      H       2.9358047332     1.9216611524    -0.6060972573
   25      H       3.7843040359     1.2912054539     1.5297716273
   26      H       4.8215537422     0.8583986863    -2.3647609154
   27      H       6.6873233100     2.0493227171    -1.2020809623
   28      H       5.3058800392     2.8289025118    -0.3739384767
   29      H       7.2347418323     0.7725863664     0.7407151673
   30      H       6.0130530690     1.7055739233     1.6627263539
   31      H       5.4811933334    -1.0093990831     1.2947439564
   32      O      -2.3829989388    -2.2780780645    -0.4874548227
   33      C      -0.3077376489     2.0290840690     0.5178636069
   34      C      -4.9431873300     0.3518831833     1.2809545092
   35      C      -6.3896265424     0.6302433018     0.7109762553
   36      C      -6.5158086109    -0.5095982096    -0.3678902894
   37      C      -5.1294835313    -1.2465478128    -0.1993352925
   38      O      -4.8379585833    -1.1248382082     1.2485119443
   39      H      -4.1656265534     1.7903840072    -0.2632621907
   40      H      -4.2753216033     0.0189838567    -1.8655016669
   41      H       0.2949530357     1.0928156296     0.4781998332
   42      H      -4.7503168660     0.7290628201     2.3037790978
   43      H      -7.1427860479     0.5177941195     1.5069807644
   44      H      -6.4806448779     1.6393636698     0.2781732191
   45      H      -7.3476190379    -1.1940979029    -0.1377807257
   46      H      -6.6544445076    -0.1157227814    -1.3874534278
   47      H      -5.1095020617    -2.3102831693    -0.5058976203
   48      H      -0.3317270389     2.3935270045     1.5649704123
   49      H       0.1634390835     2.7909693778    -0.1291771300
   50      H      -0.4692329271    -0.6725963481     1.8517498394
   51      H       0.8893357350    -1.5523493279     2.7152957347
   52      H       0.1957454064    -2.2334629917     1.1908967225
   53      H       1.0965995890    -0.8900774195    -3.3797498903
   54      H      -0.1044130463     0.4757895143    -3.3815045314
   55      H      -0.5701498266    -2.0575148491    -2.1743381551
   56      H       0.0620467187    -1.1032182245    -0.7923210711
 ----------------------------------------------------------------

    9   -1510.2889385709      9.00E-09 Convergence criterion met
 Total energy in the final basis set = -1510.28893857
 Final energy is   -1510.28893857094
 **  OPTIMIZATION CONVERGED  **

                    Orbital Energies (a.u.)
 --------------------------------------------------------------

 Alpha MOs
 -- Occupied --
-18.939 -18.938 -18.933 -18.930 -18.890 -18.887 -18.881 -18.879
-18.877 -18.869 -10.105 -10.104 -10.099 -10.098 -10.074 -10.068
-10.063 -10.062 -10.060 -10.059 -10.054 -10.042 -10.040 -10.040
-10.040 -10.039 -10.023 -10.022 -10.021 -10.020  -1.018  -1.014
 -1.011  -1.007  -0.973  -0.969  -0.940  -0.938  -0.937  -0.932
 -0.767  -0.764  -0.730  -0.724  -0.712  -0.706  -0.698  -0.661
 -0.652  -0.619  -0.598  -0.582  -0.549  -0.546  -0.539  -0.538
 -0.513  -0.512  -0.481  -0.475  -0.464  -0.461  -0.457  -0.453
 -0.437  -0.430  -0.424  -0.419  -0.415  -0.407  -0.407  -0.397
 -0.391  -0.379  -0.376  -0.367  -0.360  -0.359  -0.354  -0.351
 -0.346  -0.342  -0.337  -0.332  -0.331  -0.330  -0.326  -0.316
 -0.311  -0.308  -0.306  -0.300  -0.292  -0.290  -0.282  -0.277
 -0.273  -0.261  -0.252  -0.246  -0.244  -0.235  -0.234  -0.185
 -0.180  -0.173  -0.171  -0.161  -0.160  -0.153  -0.151  -0.144
 -0.142

          Ground-State Mulliken Net Atomic Charges

     Atom                 Charge (a.u.)
  ----------------------------------------
      1 O                    -0.216519
      2 C                     0.210576
      3 C                    -0.077553
      4 C                    -0.077818
      5 C                     0.205493
      6 O                    -0.174083
      7 C                    -0.052882
      8 C                    -0.048832
      9 O                    -0.175761
     10 C                     0.213249
     11 C                    -0.079066
     12 C                    -0.079011
     13 C                     0.213070
     14 O                    -0.209183
     15 O                    -0.162584
     16 O                    -0.178238
     17 O                    -0.214360
     18 C                    -0.153421
     19 C                     0.025638
     20 C                    -0.145549
     21 C                    -0.141501
     22 C                     0.026112
     23 O                    -0.184434
     24 H                     0.085949
     25 H                     0.084991
     26 H                     0.082413
     27 H                     0.078819
     28 H                     0.073280
     29 H                     0.079191
     30 H                     0.074049
     31 H                     0.090607
     32 O                    -0.208793
     33 C                    -0.138843
     34 C                     0.024951
     35 C                    -0.143612
     36 C                    -0.144286
     37 C                     0.024942
     38 O                    -0.185525
     39 H                     0.085887
     40 H                     0.086299
     41 H                     0.104028
     42 H                     0.086675
     43 H                     0.078499
     44 H                     0.073005
     45 H                     0.078530
     46 H                     0.072934
     47 H                     0.088360
     48 H                     0.082843
     49 H                     0.088179
     50 H                     0.109069
     51 H                     0.099385
     52 H                     0.086919
     53 H                     0.093990
     54 H                     0.096287
     55 H                     0.089411
     56 H                     0.098222
  ----------------------------------------
  Sum of atomic charges =    -0.000000

                    Cartesian Multipole Moments
 -----------------------------------------------------------------
    Charge (ESU x 10^10)
                -0.0000
    Dipole Moment (Debye)
         X      -0.9444      Y       4.1338      Z      -1.9479
       Tot       4.6663
    Quadrupole Moments (Debye-Ang)
        XX    -146.6651     XY       6.2111     YY    -163.0843
        XZ       6.4528     YZ       4.8844     ZZ    -161.1875

 Total job time:  92.60s(wall), 4417.64s(cpu)
        *  Thank you very much for using Q-Chem.  Have a nice day.  *
