 Q-Chem 5.0, Q-Chem, Inc., Pleasanton, CA (2017)
 Q-Chem 5.0.1 for Intel X86 EM64T Linux

User input:
--------------------------------------------------------------
$molecule
0  1
O -2.0084410498 0.4405870615 1.855784968
C -2.4406805508 0.9704404324 0.8039967072
C -3.885827086 0.8263009661 0.1973786723
C -4.0008735487 -0.3615723324 -0.8657275733
C -2.6512774658 -1.1510093426 -0.9551793698
O -1.7291115297 -0.3354687109 -1.6815249321
C -0.4261312788 -1.0257523224 -1.7862105703
C 0.5021864755 -0.1992940861 -2.7448321934
O 1.3920255875 0.6710984596 -1.9411290406
C 2.4698457737 -0.0860464789 -1.3826722029
C 3.3832778465 0.9135902956 -0.5944087892
C 3.7392062849 0.4111903428 0.8590335272
C 2.7286573264 -0.5581618815 1.5692665233
O 2.9455186264 -1.148133665 2.6504854799
O -1.6828453087 1.8546832798 -0.0169599016
O 1.4329840552 -0.5159581223 0.9393830432
O 2.6538558967 -1.3050740396 -1.5832643977
C 0.4450341148 -1.3002430265 1.7330589172
C 4.8282430365 0.8306814452 -1.2577468078
C 5.8049955839 1.8659333037 -0.5687958393
C 6.1838124811 1.1036356809 0.7557603786
C 5.2192610098 -0.1413568896 0.659076605
O 5.2959759496 -0.4918006727 -0.7776435718
H 2.9358047332 1.9216611524 -0.6060972573
H 3.7843040359 1.2912054539 1.5297716273
H 4.8215537422 0.8583986863 -2.3647609154
H 6.68732331 2.0493227171 -1.2020809623
H 5.3058800392 2.8289025118 -0.3739384767
H 7.2347418323 0.7725863664 0.7407151673
H 6.013053069 1.7055739233 1.6627263539
H 5.4811933334 -1.0093990831 1.2947439564
O -2.3829989388 -2.2780780645 -0.4874548227
C -0.3077376489 2.029084069 0.5178636069
C -4.94318733 0.3518831833 1.2809545092
C -6.3896265424 0.6302433018 0.7109762553
C -6.5158086109 -0.5095982096 -0.3678902894
C -5.1294835313 -1.2465478128 -0.1993352925
O -4.8379585833 -1.1248382082 1.2485119443
H -4.1656265534 1.7903840072 -0.2632621907
H -4.2753216033 0.0189838567 -1.8655016669
H 0.2949530357 1.0928156296 0.4781998332
H -4.750316866 0.7290628201 2.3037790978
H -7.1427860479 0.5177941195 1.5069807644
H -6.4806448779 1.6393636698 0.2781732191
H -7.3476190379 -1.1940979029 -0.1377807257
H -6.6544445076 -0.1157227814 -1.3874534278
H -5.1095020617 -2.3102831693 -0.5058976203
H -0.3317270389 2.3935270045 1.5649704123
H 0.1634390835 2.7909693778 -0.12917713
H -0.4692329271 -0.6725963481 1.8517498394
H 0.889335735 -1.5523493279 2.7152957347
H 0.1957454064 -2.2334629917 1.1908967225
H 1.096599589 -0.8900774195 -3.3797498903
H -0.1044130463 0.4757895143 -3.3815045314
H -0.5701498266 -2.0575148491 -2.1743381551
H 0.0620467187 -1.1032182245 -0.7923210711
$end

$rem
JOBTYPE                   OPT
METHOD                    B3LYP
DFT_D                     d3_op
BASIS                     STO-3G
GEOM_OPT_MAX_CYCLES       100
GEOM_OPT_TOL_GRADIENT     300
GEOM_OPT_TOL_DISPLACEMENT 1200
GEOM_OPT_TOL_ENERGY       100
SYMMETRY                  False
THRESH                    12
SCF_CONVERGENCE           8
MAX_SUB_FILE_NUM          128
MEM_STATIC                400
MEM_TOTAL                 4000
$end
--------------------------------------------------------------

   16   -1510.2888382049      5.81E-09 Convergence criterion met
 Total energy in the final basis set = -1510.28883820
   15   -1509.9673111470      5.40E-09 Convergence criterion met
 Total energy in the final basis set = -1509.96731115
   15   -1510.2829941923      8.66E-09 Convergence criterion met
 Total energy in the final basis set = -1510.28299419
   14   -1510.2824666590      5.54E-09 Convergence criterion met
 Total energy in the final basis set = -1510.28246666
   14   -1510.2842626511      7.27E-09 Convergence criterion met
 Total energy in the final basis set = -1510.28426265
   14   -1510.2845085530      8.41E-09 Convergence criterion met
 Total energy in the final basis set = -1510.28450855
   15   -1510.2861969337      2.15E-09 Convergence criterion met
 Total energy in the final basis set = -1510.28619693
   14   -1510.2877547055      4.23E-09 Convergence criterion met
   13   -1510.2971869280      4.01E-09 Convergence criterion met
 Total energy in the final basis set = -1510.29718693
   13   -1510.2975252689      4.20E-09 Convergence criterion met
 Total energy in the final basis set = -1510.29752527
   13   -1510.2974020278      4.75E-09 Convergence criterion met
 Total energy in the final basis set = -1510.29740203
   12   -1510.2975716672      4.95E-09 Convergence criterion met
 Total energy in the final basis set = -1510.29757167
   11   -1510.2975706962      4.01E-09 Convergence criterion met
 Total energy in the final basis set = -1510.29757070
    9   -1510.2975740835      6.04E-09 Convergence criterion met
 Total energy in the final basis set = -1510.29757408

             Standard Nuclear Orientation (Angstroms)
    I     Atom           X                Y                Z
 ----------------------------------------------------------------
    1      O      -1.7017865249    -2.0714884902     0.4774398639
    2      C      -2.0919954526    -1.0756571748     1.1249181037
    3      C      -3.5388166126    -0.4723729999     1.1823605274
    4      C      -3.7309750148     0.7750794384     0.2103963028
    5      C      -2.4807179857     1.0285631786    -0.6991310279
    6      O      -1.6876420284     2.0744441827    -0.1350285058
    7      C      -0.5326699433     2.3860901002    -1.0169856244
    8      C       0.6080202706     3.0265470448    -0.1539639434
    9      O       1.4010734254     2.0303931395     0.6034575482
   10      C       2.3877751226     1.4252887081    -0.2500143194
   11      C       3.2799634166     0.4886147331     0.6320352577
   12      C       3.3008305535    -1.0313068936     0.1794177809
   13      C       2.4261203566    -1.3872913977    -1.0751711516
   14      O       2.7838479762    -2.0552188100    -2.0671903340
   15      O      -1.2578341518    -0.2642943050     1.9497503411
   16      O       1.1025249745    -0.8639000389    -0.8999229111
   17      O       2.5150105511     1.6851642105    -1.4657057437
   18      C       0.2167248286    -1.2945040954    -2.0116379063
   19      C       4.8204231646     0.8577736143     0.4711924364
   20      C       5.6174432165     0.1915999441     1.6615181478
   21      C       5.6369069344    -1.3157456828     1.2087559552
   22      C       4.8370107710    -1.2352031664    -0.1490323863
   23      O       5.2380406568     0.0757271354    -0.7126839054
   24      H       2.9449305945     0.5876271336     1.6786613105
   25      H       2.9734604299    -1.6820670434     1.0117966430
   26      H       5.0189360656     1.9356231970     0.3135434831
   27      H       6.6351865966     0.6088536578     1.7229471603
   28      H       5.1163010519     0.3399593370     2.6314546668
   29      H       6.6642638303    -1.6708793643     1.0303160708
   30      H       5.1528677465    -1.9856091358     1.9373120978
   31      H       5.0290101727    -2.0462557371    -0.8782521064
   32      O      -2.1957671722     0.4208628323    -1.7578772890
   33      C       0.1456538450    -0.7373533732     1.8752285212
   34      C      -4.6329374980    -1.4701913174     0.6142671422
   35      C      -6.0465125450    -0.9834558829     1.1212415612
   36      C      -6.2608283964     0.2947861565     0.2271397048
   37      C      -4.9561046574     0.2712534578    -0.6634809014
   38      O      -4.6685924052    -1.1701607017    -0.8357127412
   39      H      -3.7524332846    -0.1784073956     2.2254295645
   40      H      -3.9534818895     1.6956177334     0.7780417781
   41      H       0.4916832955    -0.8097978203     0.8147519888
   42      H      -4.4026329982    -2.5403987389     0.7794757051
   43      H      -6.8124155416    -1.7489680953     0.9187886111
   44      H      -6.0483582958    -0.7557159837     2.1990636617
   45      H      -7.1586384534     0.2012725379    -0.4041553710
   46      H      -6.3414263128     1.2197950981     0.8203371110
   47      H      -5.0469030905     0.7657569692    -1.6499531114
   48      H       0.2589902168    -1.7237504435     2.3698701697
   49      H       0.7409457222     0.0177610743     2.4186743761
   50      H      -0.7136150343    -0.6894212407    -1.9292609765
   51      H      -0.0265656974    -2.3716699246    -1.9184779850
   52      H       0.7054251210    -1.1178632351    -2.9895970008
   53      H       1.2686474880     3.6083717712    -0.8326531484
   54      H       0.1657128157     3.7025270101     0.6057734962
   55      H      -0.8530714462     3.1138681140    -1.7953749715
   56      H      -0.1667537201     1.4726972248    -1.5284415620
 ----------------------------------------------------------------

    9   -1510.2975746244      9.46E-09 Convergence criterion met
 Total energy in the final basis set = -1510.29757462
 Final energy is   -1510.29757462437
 **  OPTIMIZATION CONVERGED  **

                    Orbital Energies (a.u.)
 --------------------------------------------------------------

 Alpha MOs
 -- Occupied --
-18.943 -18.940 -18.936 -18.925 -18.889 -18.887 -18.884 -18.881
-18.876 -18.868 -10.108 -10.103 -10.101 -10.092 -10.079 -10.076
-10.062 -10.061 -10.058 -10.058 -10.044 -10.041 -10.041 -10.040
-10.038 -10.036 -10.022 -10.021 -10.021 -10.020  -1.021  -1.015
 -1.010  -1.003  -0.971  -0.970  -0.945  -0.939  -0.937  -0.928
 -0.766  -0.764  -0.730  -0.724  -0.715  -0.706  -0.700  -0.655
 -0.650  -0.621  -0.599  -0.582  -0.549  -0.544  -0.539  -0.537
 -0.513  -0.512  -0.481  -0.476  -0.461  -0.456  -0.455  -0.453
 -0.435  -0.430  -0.430  -0.420  -0.416  -0.406  -0.402  -0.398
 -0.396  -0.382  -0.371  -0.367  -0.366  -0.358  -0.354  -0.350
 -0.346  -0.341  -0.333  -0.333  -0.331  -0.329  -0.326  -0.312
 -0.311  -0.307  -0.305  -0.298  -0.296  -0.288  -0.280  -0.275
 -0.273  -0.262  -0.254  -0.251  -0.239  -0.235  -0.234  -0.188
 -0.180  -0.176  -0.167  -0.162  -0.159  -0.152  -0.146  -0.145
 -0.143

          Ground-State Mulliken Net Atomic Charges

     Atom                 Charge (a.u.)
  ----------------------------------------
      1 O                    -0.213573
      2 C                     0.203049
      3 C                    -0.078651
      4 C                    -0.077335
      5 C                     0.212925
      6 O                    -0.166580
      7 C                    -0.052146
      8 C                    -0.048096
      9 O                    -0.170450
     10 C                     0.209727
     11 C                    -0.079748
     12 C                    -0.079439
     13 C                     0.216775
     14 O                    -0.203521
     15 O                    -0.172609
     16 O                    -0.175796
     17 O                    -0.214049
     18 C                    -0.142242
     19 C                     0.026151
     20 C                    -0.143913
     21 C                    -0.144100
     22 C                     0.024318
     23 O                    -0.185981
     24 H                     0.085211
     25 H                     0.085205
     26 H                     0.083052
     27 H                     0.078584
     28 H                     0.073300
     29 H                     0.079082
     30 H                     0.073245
     31 H                     0.092659
     32 O                    -0.212943
     33 C                    -0.148469
     34 C                     0.024857
     35 C                    -0.143550
     36 C                    -0.144413
     37 C                     0.026243
     38 O                    -0.184590
     39 H                     0.085351
     40 H                     0.086877
     41 H                     0.110766
     42 H                     0.088143
     43 H                     0.078234
     44 H                     0.073166
     45 H                     0.078398
     46 H                     0.073114
     47 H                     0.084435
     48 H                     0.073877
     49 H                     0.081769
     50 H                     0.112801
     51 H                     0.090303
     52 H                     0.090497
     53 H                     0.094121
     54 H                     0.094842
     55 H                     0.086226
     56 H                     0.104885
  ----------------------------------------
  Sum of atomic charges =    -0.000000

                    Cartesian Multipole Moments
 -----------------------------------------------------------------
    Charge (ESU x 10^10)
                -0.0000
    Dipole Moment (Debye)
         X      -1.1541      Y       2.2195      Z       3.8331
       Tot       4.5772
    Quadrupole Moments (Debye-Ang)
        XX    -150.5442     XY      -5.6652     YY    -156.2506
        XZ       7.2550     YZ      -6.2521     ZZ    -164.6633

 Total job time:  96.20s(wall), 4589.58s(cpu)
        *  Thank you very much for using Q-Chem.  Have a nice day.  *
