 Q-Chem 5.0, Q-Chem, Inc., Pleasanton, CA (2017)
 Q-Chem 5.0.1 for Intel X86 EM64T Linux

User input:
--------------------------------------------------------------
$molecule
0  1
O -3.94934 -3.66094 2.70899
C -3.26408 -4.56952 2.26188
C -3.36658 -6.02376 2.66595
C -2.43309 -6.50895 3.78713
C -1.62715 -5.44631 4.5008
O -0.60538 -5.02267 3.69959
C 0.19764 -4.00273 4.30303
C 1.41728 -3.71156 3.43479
O 1.26006 -2.44314 2.77961
C 1.32231 -1.35696 3.58923
C 1.16989 -0.05485 2.83959
C 0.15535 0.92593 3.44543
C -0.281 0.63136 4.86654
O -0.70984 1.45518 5.66151
O -2.21161 -4.25674 1.46119
O -0.7277 -0.63575 5.09484
O 1.71117 -1.40621 4.75241
C -1.35305 -1.04809 6.25903
C 2.44844 0.80555 2.85885
C 2.44141 1.75919 1.66577
C 1.33473 2.71044 2.07343
C 1.03474 2.19235 3.48594
O 2.2677 1.6876 3.9381
H 0.92322 -0.29228 1.77845
H -0.76361 1.04299 2.8303
H 3.38343 0.20345 2.8682
H 3.41011 2.30849 1.68968
H 2.31598 1.2864 0.66797
H 1.75292 3.74102 2.10365
H 0.4253 2.68389 1.43468
H 0.58785 3.00353 4.1018
O -1.80654 -5.08138 5.65853
C -1.88082 -2.97392 1.07657
C -4.73845 -6.32663 3.31355
C -5.05721 -7.81659 3.19894
C -4.08407 -8.38751 4.20501
C -3.47591 -7.09601 4.76184
O -4.52476 -6.1649 4.69213
H -3.30164 -6.6238 1.73073
H -1.72187 -7.29852 3.45652
H -1.65185 -2.35354 1.96992
H -5.57142 -5.73309 2.87594
H -6.09156 -7.96296 3.58521
H -4.98586 -8.23962 2.17387
H -4.66441 -8.91484 4.99472
H -3.30914 -9.06554 3.78644
H -3.05616 -7.28565 5.77448
H -2.71732 -2.51747 0.50556
H -0.9811 -3.00897 0.42874
H -1.62337 -2.11966 6.18383
H -2.28677 -0.46833 6.42098
H -0.67113 -0.91207 7.12546
H 2.34621 -3.68607 4.05038
H 1.56756 -4.52405 2.6921
H 0.60154 -4.42079 5.2545
H -0.39091 -3.09991 4.54369
$end

$opt
CONSTRAINT
tors           1           2           3           4     -93.451
tors           3           4           5           6     -74.646
tors           4           5           6           7    +179.402
tors           5           6           7           8    +172.585
tors           6           7           8           9    +107.004
tors           7           8           9          10     +69.536
tors           8           9          10          11    +179.184
tors           9          10          11          12    +131.418
tors          11          12          13          14    +155.247
ENDCONSTRAINT
$end

$rem
JOBTYPE                   OPT
METHOD                    B3LYP
DFT_D                     d3_op
BASIS                     STO-3G
GEOM_OPT_MAX_CYCLES       100
GEOM_OPT_TOL_GRADIENT     300
GEOM_OPT_TOL_DISPLACEMENT 1200
GEOM_OPT_TOL_ENERGY       100
SYMMETRY                  False
THRESH                    12
SCF_CONVERGENCE           8
MAX_SUB_FILE_NUM          128
MEM_STATIC                400
MEM_TOTAL                 4000
$end
--------------------------------------------------------------

   15   -1510.1437605436      7.24E-09 Convergence criterion met
 Total energy in the final basis set = -1510.14376054
   14   -1510.2141677615      5.55E-09 Convergence criterion met
 Total energy in the final basis set = -1510.21416776
   14   -1510.2523109565      3.89E-09 Convergence criterion met
 Total energy in the final basis set = -1510.25231096
   14   -1510.2695244306      5.92E-09 Convergence criterion met
 Total energy in the final basis set = -1510.26952443
   14   -1510.2756969913      6.50E-09 Convergence criterion met
 Total energy in the final basis set = -1510.27569699
   14   -1510.2788680766      3.00E-09 Convergence criterion met
 Total energy in the final basis set = -1510.27886808
   13   -1510.2809492981      7.45E-09 Convergence criterion met
 Total energy in the final basis set = -1510.28094930
   13   -1510.2826484446      8.04E-09 Convergence criterion met
   11   -1510.2894961177      5.15E-09 Convergence criterion met
 Total energy in the final basis set = -1510.28949612
   11   -1510.2895117285      4.96E-09 Convergence criterion met
 Total energy in the final basis set = -1510.28951173
   10   -1510.2895188164      7.84E-09 Convergence criterion met
 Total energy in the final basis set = -1510.28951882
    9   -1510.2895222689      8.15E-09 Convergence criterion met
 Total energy in the final basis set = -1510.28952227
   11   -1510.2895243038      1.74E-09 Convergence criterion met
 Total energy in the final basis set = -1510.28952430
    9   -1510.2895257376      7.31E-09 Convergence criterion met
 Total energy in the final basis set = -1510.28952574

             Standard Nuclear Orientation (Angstroms)
    I     Atom           X                Y                Z
 ----------------------------------------------------------------
    1      O       2.1245069512     0.0369305711     1.9639262784
    2      C       2.5428558936    -0.7559041260     1.0863512480
    3      C       3.9638856055    -0.7473008919     0.4085171549
    4      C       3.9958831896     0.0817942341    -0.9595210399
    5      C       2.5978514864     0.7351573000    -1.2209978657
    6      O       1.7250259430    -0.3145410311    -1.6437291245
    7      C       0.3720212964     0.2221894207    -1.8985770934
    8      C      -0.5023429840    -0.9168433859    -2.5404590290
    9      O      -1.4809090608    -1.4115713798    -1.5429532161
   10      C      -2.4748539842    -0.4188216980    -1.2804906948
   11      C      -3.4788177706    -1.0162080449    -0.2407744914
   12      C      -3.7559811712    -0.0220487130     0.9556311875
   13      C      -2.6998180646     1.1153526075     1.2091119838
   14      O      -2.9353042977     2.2047384361     1.7737798436
   15      O       1.7905577821    -1.8570510794     0.5811450454
   16      O      -1.3706213476     0.6628905909     0.8806304054
   17      O      -2.5296258170     0.6943071517    -1.8454484902
   18      C      -0.3591066118     1.6604947474     1.3296285732
   19      C      -4.9233484619    -1.0422543458    -0.9086738117
   20      C      -5.9493161408    -1.7470307602     0.0665975007
   21      C      -6.2342002509    -0.5956465975     1.1025768322
   22      C      -5.2146949499     0.5023028613     0.6079853216
   23      O      -5.3051729105     0.3887535156    -0.8662633528
   24      H      -3.1261703917    -2.0063448945     0.0943673630
   25      H      -3.7919640051    -0.5964476059     1.9015973227
   26      H      -4.9357876500    -1.4148870678    -1.9515113417
   27      H      -6.8608951335    -2.0405342363    -0.4773356596
   28      H      -5.5164625288    -2.6439051707     0.5386180917
   29      H      -7.2676413073    -0.2237953891     1.0139739005
   30      H      -6.0550451581    -0.9013477984     2.1456543650
   31      H      -5.4156741600     1.5395665858     0.9396000899
   32      O       2.2592419634     1.9302995446    -1.0879367125
   33      C       0.4368433688    -1.9020796056     1.1921929937
   34      C       5.0181083352     0.0674066486     1.2672180386
   35      C       6.4645409566    -0.3001978128     0.7513953869
   36      C       6.5067833217     0.4766071593    -0.6169727602
   37      C       5.0891228391     1.1719780441    -0.6196086051
   38      O       4.8345577476     1.4649607614     0.8108663548
   39      H       4.2760109584    -1.7932502632     0.2395803580
   40      H       4.2681474322    -0.5627197113    -1.8140319728
   41      H      -0.1956150266    -1.0290633889     0.9131118688
   42      H       4.8669470491    -0.0024946008     2.3617405768
   43      H       7.2268852186     0.0762692617     1.4519257791
   44      H       6.6015235621    -1.3867353790     0.6301886037
   45      H       7.3088187663     1.2316052514    -0.6304987655
   46      H       6.6384325933    -0.1944020385    -1.4809411769
   47      H       5.0081742165     2.0976283119    -1.2215979476
   48      H       0.5003298409    -1.9553186848     2.2979914036
   49      H      -0.0299665472    -2.8250920307     0.8028537718
   50      H       0.5486756454     1.0887303885     1.6309879463
   51      H      -0.7571997069     2.2505062895     2.1768167195
   52      H      -0.1076680448     2.3509661068     0.4996811366
   53      H      -1.0186425013    -0.5409148649    -3.4491565445
   54      H       0.1336041008    -1.7863616751    -2.8019281988
   55      H       0.4253147157     1.1070652076    -2.5683671368
   56      H      -0.1046029885     0.5436560962    -0.9483877400
 ----------------------------------------------------------------

    9   -1510.2895263450      5.66E-09 Convergence criterion met
 Total energy in the final basis set = -1510.28952634
 Final energy is   -1510.28952634497
 **  OPTIMIZATION CONVERGED  **

                    Orbital Energies (a.u.)
 --------------------------------------------------------------

 Alpha MOs
 -- Occupied --
-18.939 -18.936 -18.933 -18.932 -18.889 -18.887 -18.880 -18.879
-18.877 -18.871 -10.104 -10.103 -10.099 -10.099 -10.075 -10.067
-10.063 -10.060 -10.060 -10.059 -10.055 -10.042 -10.041 -10.040
-10.039 -10.039 -10.023 -10.021 -10.021 -10.020  -1.019  -1.014
 -1.010  -1.007  -0.972  -0.969  -0.941  -0.937  -0.937  -0.934
 -0.766  -0.764  -0.729  -0.724  -0.712  -0.706  -0.697  -0.661
 -0.652  -0.620  -0.598  -0.583  -0.550  -0.546  -0.539  -0.538
 -0.513  -0.511  -0.480  -0.475  -0.464  -0.461  -0.457  -0.454
 -0.436  -0.430  -0.423  -0.417  -0.416  -0.407  -0.404  -0.398
 -0.390  -0.379  -0.376  -0.366  -0.361  -0.359  -0.354  -0.352
 -0.347  -0.342  -0.338  -0.332  -0.331  -0.329  -0.327  -0.314
 -0.311  -0.307  -0.306  -0.297  -0.292  -0.288  -0.282  -0.278
 -0.272  -0.261  -0.252  -0.249  -0.246  -0.235  -0.234  -0.186
 -0.180  -0.175  -0.170  -0.160  -0.159  -0.153  -0.150  -0.144
 -0.143

          Ground-State Mulliken Net Atomic Charges

     Atom                 Charge (a.u.)
  ----------------------------------------
      1 O                    -0.216247
      2 C                     0.209862
      3 C                    -0.077470
      4 C                    -0.077700
      5 C                     0.205508
      6 O                    -0.174825
      7 C                    -0.053873
      8 C                    -0.048559
      9 O                    -0.174759
     10 C                     0.211367
     11 C                    -0.079335
     12 C                    -0.078518
     13 C                     0.213701
     14 O                    -0.207347
     15 O                    -0.162986
     16 O                    -0.180684
     17 O                    -0.214083
     18 C                    -0.149535
     19 C                     0.025819
     20 C                    -0.145112
     21 C                    -0.142250
     22 C                     0.025177
     23 O                    -0.185234
     24 H                     0.086099
     25 H                     0.084203
     26 H                     0.082350
     27 H                     0.078684
     28 H                     0.073251
     29 H                     0.079050
     30 H                     0.073495
     31 H                     0.092039
     32 O                    -0.208745
     33 C                    -0.138124
     34 C                     0.024859
     35 C                    -0.143613
     36 C                    -0.144148
     37 C                     0.024726
     38 O                    -0.185401
     39 H                     0.085906
     40 H                     0.086331
     41 H                     0.103156
     42 H                     0.086852
     43 H                     0.078551
     44 H                     0.073054
     45 H                     0.078543
     46 H                     0.072917
     47 H                     0.088391
     48 H                     0.083988
     49 H                     0.089212
     50 H                     0.108416
     51 H                     0.095188
     52 H                     0.089235
     53 H                     0.091555
     54 H                     0.097668
     55 H                     0.090962
     56 H                     0.098434
  ----------------------------------------
  Sum of atomic charges =     0.000000

                    Cartesian Multipole Moments
 -----------------------------------------------------------------
    Charge (ESU x 10^10)
                 0.0000
    Dipole Moment (Debye)
         X       0.9725      Y      -4.6677      Z      -0.3701
       Tot       4.7823
    Quadrupole Moments (Debye-Ang)
        XX    -145.4273     XY       4.6692     YY    -167.0590
        XZ      -9.1336     YZ      -2.6670     ZZ    -157.1642

 Total job time:  78.32s(wall), 3732.05s(cpu)
        *  Thank you very much for using Q-Chem.  Have a nice day.  *
