 Q-Chem 5.0, Q-Chem, Inc., Pleasanton, CA (2017)
 Q-Chem 5.0.1 for Intel X86 EM64T Linux

User input:
--------------------------------------------------------------
$molecule
0  1
O 2.1245069512 0.0369305711 1.9639262784
C 2.5428558936 -0.755904126 1.086351248
C 3.9638856055 -0.7473008919 0.4085171549
C 3.9958831896 0.0817942341 -0.9595210399
C 2.5978514864 0.7351573 -1.2209978657
O 1.725025943 -0.3145410311 -1.6437291245
C 0.3720212964 0.2221894207 -1.8985770934
C -0.502342984 -0.9168433859 -2.540459029
O -1.4809090608 -1.4115713798 -1.5429532161
C -2.4748539842 -0.418821698 -1.2804906948
C -3.4788177706 -1.0162080449 -0.2407744914
C -3.7559811712 -0.022048713 0.9556311875
C -2.6998180646 1.1153526075 1.2091119838
O -2.9353042977 2.2047384361 1.7737798436
O 1.7905577821 -1.8570510794 0.5811450454
O -1.3706213476 0.6628905909 0.8806304054
O -2.529625817 0.6943071517 -1.8454484902
C -0.3591066118 1.6604947474 1.3296285732
C -4.9233484619 -1.0422543458 -0.9086738117
C -5.9493161408 -1.7470307602 0.0665975007
C -6.2342002509 -0.5956465975 1.1025768322
C -5.2146949499 0.5023028613 0.6079853216
O -5.3051729105 0.3887535156 -0.8662633528
H -3.1261703917 -2.0063448945 0.094367363
H -3.7919640051 -0.5964476059 1.9015973227
H -4.93578765 -1.4148870678 -1.9515113417
H -6.8608951335 -2.0405342363 -0.4773356596
H -5.5164625288 -2.6439051707 0.5386180917
H -7.2676413073 -0.2237953891 1.0139739005
H -6.0550451581 -0.9013477984 2.145654365
H -5.41567416 1.5395665858 0.9396000899
O 2.2592419634 1.9302995446 -1.0879367125
C 0.4368433688 -1.9020796056 1.1921929937
C 5.0181083352 0.0674066486 1.2672180386
C 6.4645409566 -0.3001978128 0.7513953869
C 6.5067833217 0.4766071593 -0.6169727602
C 5.0891228391 1.1719780441 -0.6196086051
O 4.8345577476 1.4649607614 0.8108663548
H 4.2760109584 -1.7932502632 0.239580358
H 4.2681474322 -0.5627197113 -1.8140319728
H -0.1956150266 -1.0290633889 0.9131118688
H 4.8669470491 -0.0024946008 2.3617405768
H 7.2268852186 0.0762692617 1.4519257791
H 6.6015235621 -1.386735379 0.6301886037
H 7.3088187663 1.2316052514 -0.6304987655
H 6.6384325933 -0.1944020385 -1.4809411769
H 5.0081742165 2.0976283119 -1.2215979476
H 0.5003298409 -1.9553186848 2.2979914036
H -0.0299665472 -2.8250920307 0.8028537718
H 0.5486756454 1.0887303885 1.6309879463
H -0.7571997069 2.2505062895 2.1768167195
H -0.1076680448 2.3509661068 0.4996811366
H -1.0186425013 -0.5409148649 -3.4491565445
H 0.1336041008 -1.7863616751 -2.8019281988
H 0.4253147157 1.1070652076 -2.5683671368
H -0.1046029885 0.5436560962 -0.94838774
$end

$rem
JOBTYPE                   OPT
METHOD                    B3LYP
DFT_D                     d3_op
BASIS                     STO-3G
GEOM_OPT_MAX_CYCLES       100
GEOM_OPT_TOL_GRADIENT     300
GEOM_OPT_TOL_DISPLACEMENT 1200
GEOM_OPT_TOL_ENERGY       100
SYMMETRY                  False
THRESH                    12
SCF_CONVERGENCE           8
MAX_SUB_FILE_NUM          128
MEM_STATIC                400
MEM_TOTAL                 4000
$end
--------------------------------------------------------------

   16   -1510.2896380109      5.95E-09 Convergence criterion met
 Total energy in the final basis set = -1510.28963801
   16   -1510.0002723639      3.29E-09 Convergence criterion met
 Total energy in the final basis set = -1510.00027236
   15   -1510.2856374534      8.00E-09 Convergence criterion met
 Total energy in the final basis set = -1510.28563745
   15   -1510.2848433294      3.46E-09 Convergence criterion met
 Total energy in the final basis set = -1510.28484333
   14   -1510.2864764228      8.16E-09 Convergence criterion met
 Total energy in the final basis set = -1510.28647642
   15   -1510.2836424014      2.34E-09 Convergence criterion met
 Total energy in the final basis set = -1510.28364240
   14   -1510.2875349456      8.60E-09 Convergence criterion met
 Total energy in the final basis set = -1510.28753495
   15   -1510.2876747526      2.48E-09 Convergence criterion met
   12   -1510.2987642091      8.04E-09 Convergence criterion met
 Total energy in the final basis set = -1510.29876421
   12   -1510.2988236811      6.47E-09 Convergence criterion met
 Total energy in the final basis set = -1510.29882368
   12   -1510.2988299371      5.97E-09 Convergence criterion met
 Total energy in the final basis set = -1510.29882994
   12   -1510.2988559553      2.21E-09 Convergence criterion met
 Total energy in the final basis set = -1510.29885596
   11   -1510.2988573341      2.91E-09 Convergence criterion met
 Total energy in the final basis set = -1510.29885733
   11   -1510.2988602350      2.01E-09 Convergence criterion met
 Total energy in the final basis set = -1510.29886024

             Standard Nuclear Orientation (Angstroms)
    I     Atom           X                Y                Z
 ----------------------------------------------------------------
    1      O       2.2645874138    -2.3518915374    -1.7607367201
    2      C       2.3727630286    -1.1212593999    -1.5692503569
    3      C       3.7017119925    -0.3023301584    -1.4189228833
    4      C       3.6896727085     0.7578916646    -0.2396348994
    5      C       2.3854971414     0.7253275095     0.6305976252
    6      O       1.7441240576     1.9989075710     0.5157135566
    7      C       0.5527679408     2.0878287956     1.3941830505
    8      C      -0.5845769855     2.8716054228     0.6497209054
    9      O      -1.3602498828     2.0174516784    -0.2805980272
   10      C      -2.4004643576     1.3336884893     0.4350034291
   11      C      -3.2511032221     0.5157352291    -0.5929213235
   12      C      -3.4685499804    -0.9994841866    -0.1763748494
   13      C      -2.7279668633    -1.4250430603     1.1413668439
   14      O      -3.2172157719    -1.9783907514     2.1467710120
   15      O       1.2802974997    -0.2047484007    -1.4932734244
   16      O      -1.3384983796    -1.1046665763     0.9971119446
   17      O      -2.5909543271     1.4406243764     1.6662219653
   18      C      -0.5571790397    -1.5177256268     2.1864623121
   19      C      -4.7597625387     1.0256297541    -0.6076217586
   20      C      -5.4786091178     0.4220674584    -1.8795663371
   21      C      -5.7076796280    -1.0675467684    -1.4237767039
   22      C      -5.0416752162    -1.0507008133     0.0053423428
   23      O      -5.3717819705     0.2975150695     0.5248153775
   24      H      -2.7778301346     0.6039320362    -1.5855064135
   25      H      -3.1315829464    -1.6720839991    -0.9870748734
   26      H      -4.8757860341     2.1188916963    -0.4749339879
   27      H      -6.4326809794     0.9406881149    -2.0645333378
   28      H      -4.8529853075     0.4989497874    -2.7832363577
   29      H      -6.7806202047    -1.3044731674    -1.3454861526
   30      H      -5.2324703143    -1.7979515612    -2.0979027428
   31      H      -5.3837338464    -1.8316649658     0.7122556260
   32      O       1.9989172172    -0.2094816764     1.3688569678
   33      C      -0.0178514532    -0.9147533779    -1.6109447453
   34      C       4.9104841563    -1.2331677871    -0.9908983474
   35      C       6.2578677861    -0.4767432351    -1.3084057379
   36      C       6.2603947889     0.6179733084    -0.1757463903
   37      C       4.9370858293     0.2534554146     0.6074757881
   38      O       4.8488820862    -1.2185528559     0.4896689884
   39      H       3.9020853371     0.2000933072    -2.3836594232
   40      H       3.8251646898     1.7860654066    -0.6173823903
   41      H      -0.5077783880    -0.9742052899    -0.6079503066
   42      H       4.8294929758    -2.2696240510    -1.3729653925
   43      H       7.1161873938    -1.1600263114    -1.2094229386
   44      H       6.2649562735    -0.0433936776    -2.3213212523
   45      H       7.1374064935     0.5166105646     0.4828734578
   46      H       6.2347216506     1.6443658183    -0.5756241292
   47      H       4.9203215160     0.5572480909     1.6721559846
   48      H       0.1512515258    -1.9340804471    -2.0101447885
   49      H      -0.6497469337    -0.3302795692    -2.3054586241
   50      H       0.4710502405    -1.1325982367     2.0052639302
   51      H      -0.5470337096    -2.6211902673     2.2913175979
   52      H      -0.9826335808    -1.0754268618     3.1090889550
   53      H      -1.2620423308     3.3144038154     1.4112904667
   54      H      -0.1382824950     3.6753465042     0.0296360000
   55      H       0.8294807267     2.6426480634     2.3177247171
   56      H       0.2089412770     1.0737600149     1.6826031332
 ----------------------------------------------------------------

    9   -1510.2988611511      7.58E-09 Convergence criterion met
 Total energy in the final basis set = -1510.29886115
 Final energy is   -1510.29886115107
 **  OPTIMIZATION CONVERGED  **

                    Orbital Energies (a.u.)
 --------------------------------------------------------------

 Alpha MOs
 -- Occupied --
-18.940 -18.937 -18.936 -18.929 -18.889 -18.887 -18.882 -18.877
-18.875 -18.873 -10.107 -10.104 -10.101 -10.097 -10.076 -10.073
-10.063 -10.061 -10.059 -10.057 -10.048 -10.041 -10.040 -10.039
-10.037 -10.036 -10.023 -10.021 -10.021 -10.020  -1.018  -1.014
 -1.010  -1.005  -0.972  -0.970  -0.943  -0.939  -0.936  -0.932
 -0.766  -0.764  -0.730  -0.724  -0.715  -0.706  -0.699  -0.657
 -0.651  -0.621  -0.599  -0.581  -0.548  -0.545  -0.539  -0.538
 -0.512  -0.512  -0.481  -0.477  -0.463  -0.459  -0.455  -0.453
 -0.436  -0.431  -0.427  -0.422  -0.412  -0.409  -0.404  -0.400
 -0.395  -0.383  -0.372  -0.371  -0.366  -0.356  -0.353  -0.349
 -0.346  -0.343  -0.333  -0.333  -0.330  -0.328  -0.323  -0.312
 -0.311  -0.306  -0.304  -0.301  -0.295  -0.289  -0.286  -0.277
 -0.271  -0.256  -0.251  -0.249  -0.243  -0.236  -0.234  -0.187
 -0.183  -0.171  -0.168  -0.161  -0.158  -0.152  -0.152  -0.145
 -0.144

          Ground-State Mulliken Net Atomic Charges

     Atom                 Charge (a.u.)
  ----------------------------------------
      1 O                    -0.213407
      2 C                     0.212366
      3 C                    -0.078350
      4 C                    -0.077883
      5 C                     0.222917
      6 O                    -0.169862
      7 C                    -0.053164
      8 C                    -0.049376
      9 O                    -0.169565
     10 C                     0.209386
     11 C                    -0.079163
     12 C                    -0.079527
     13 C                     0.218073
     14 O                    -0.202592
     15 O                    -0.173549
     16 O                    -0.177464
     17 O                    -0.215603
     18 C                    -0.143802
     19 C                     0.026030
     20 C                    -0.143975
     21 C                    -0.143856
     22 C                     0.024634
     23 O                    -0.185954
     24 H                     0.085921
     25 H                     0.084871
     26 H                     0.082764
     27 H                     0.078651
     28 H                     0.073537
     29 H                     0.079100
     30 H                     0.073512
     31 H                     0.091824
     32 O                    -0.221789
     33 C                    -0.154073
     34 C                     0.023931
     35 C                    -0.143704
     36 C                    -0.144188
     37 C                     0.025803
     38 O                    -0.186769
     39 H                     0.084756
     40 H                     0.086652
     41 H                     0.109849
     42 H                     0.091369
     43 H                     0.078501
     44 H                     0.073128
     45 H                     0.078262
     46 H                     0.073330
     47 H                     0.082564
     48 H                     0.090155
     49 H                     0.075868
     50 H                     0.118270
     51 H                     0.085288
     52 H                     0.088753
     53 H                     0.095101
     54 H                     0.094136
     55 H                     0.084612
     56 H                     0.103699
  ----------------------------------------
  Sum of atomic charges =     0.000000

                    Cartesian Multipole Moments
 -----------------------------------------------------------------
    Charge (ESU x 10^10)
                 0.0000
    Dipole Moment (Debye)
         X       1.1743      Y       2.5909      Z      -2.8895
       Tot       4.0547
    Quadrupole Moments (Debye-Ang)
        XX    -154.2875     XY       8.5875     YY    -159.9331
        XZ       9.8849     YZ       3.2735     ZZ    -161.1200

 Total job time:  176.87s(wall), 8446.21s(cpu)
        *  Thank you very much for using Q-Chem.  Have a nice day.  *
