 Q-Chem 5.0, Q-Chem, Inc., Pleasanton, CA (2017)
 Q-Chem 5.0.1 for Intel X86 EM64T Linux

User input:
--------------------------------------------------------------
$molecule
0  1
O -3.94934 -3.66094 2.70899
C -3.26408 -4.56952 2.26188
C -3.36658 -6.02376 2.66595
C -2.37395 -6.53034 3.72515
C -1.50697 -5.48515 4.39149
O -0.43388 -5.19731 3.59711
C 0.42983 -4.20203 4.1563
C 1.78165 -4.22253 3.45039
O 1.90532 -3.07431 2.59648
C 1.94115 -1.87654 3.23147
C 2.09155 -0.71164 2.28224
C 1.09186 0.43365 2.49949
C 0.34556 0.41805 3.81839
O -0.23611 1.37179 4.31498
O -2.20987 -4.25785 1.46301
O -0.20703 -0.76954 4.19706
O 2.11846 -1.76305 4.44116
C -1.09693 -0.91375 5.25313
C 3.4281 0.03663 2.44975
C 3.76608 0.77796 1.15761
C 2.71608 1.87032 1.17741
C 2.08092 1.61522 2.5501
O 3.13356 1.09546 3.32593
H 2.03554 -1.10409 1.24016
H 0.33698 0.52052 1.68756
H 4.26902 -0.62763 2.74709
H 4.76688 1.24342 1.30718
H 3.78722 0.15773 0.23581
H 3.23463 2.85441 1.15308
H 1.95773 1.81621 0.36642
H 1.61137 2.54797 2.93327
O -1.66765 -5.06201 5.53223
C -1.8659 -2.97434 1.09265
C -4.70389 -6.30811 3.38769
C -5.04785 -7.7941 3.29446
C -4.03463 -8.37424 4.25395
C -3.37252 -7.09006 4.76337
O -4.4094 -6.14325 4.75005
H -3.35784 -6.61754 1.72469
H -1.70928 -7.34915 3.36902
H -1.62725 -2.36774 1.99284
H -5.55202 -5.70494 2.99473
H -6.06425 -7.92909 3.72929
H -5.02847 -8.21748 2.26721
H -4.58289 -8.87672 5.08196
H -3.30003 -9.07693 3.80459
H -2.89875 -7.28157 5.75172
H -2.69847 -2.50159 0.52927
H -0.96779 -3.01161 0.44261
H -1.41623 -1.96836 5.35535
H -2.0087 -0.30443 5.07504
H -0.61404 -0.5967 6.2022
H 2.61285 -4.193 4.19319
H 1.91519 -5.16526 2.87795
H 0.67285 -4.51411 5.19953
H -0.05217 -3.21869 4.19985
$end

$opt
CONSTRAINT
tors           1           2           3           4     -97.151
tors           3           4           5           6     -82.194
tors           4           5           6           7    +179.402
tors           5           6           7           8    +163.422
tors           6           7           8           9    +107.004
tors           7           8           9          10     +65.524
tors           8           9          10          11    +179.184
tors           9          10          11          12    +130.600
tors          11          12          13          14    +161.717
ENDCONSTRAINT
$end

$rem
JOBTYPE                   OPT
METHOD                    B3LYP
DFT_D                     d3_op
BASIS                     STO-3G
GEOM_OPT_MAX_CYCLES       100
GEOM_OPT_TOL_GRADIENT     300
GEOM_OPT_TOL_DISPLACEMENT 1200
GEOM_OPT_TOL_ENERGY       100
SYMMETRY                  False
THRESH                    12
SCF_CONVERGENCE           8
MAX_SUB_FILE_NUM          128
MEM_STATIC                400
MEM_TOTAL                 4000
$end
--------------------------------------------------------------

   15   -1510.1357434359      6.77E-09 Convergence criterion met
 Total energy in the final basis set = -1510.13574344
   14   -1510.2076181060      5.30E-09 Convergence criterion met
 Total energy in the final basis set = -1510.20761811
   14   -1510.2470810199      9.23E-09 Convergence criterion met
 Total energy in the final basis set = -1510.24708102
   14   -1510.2658842838      6.47E-09 Convergence criterion met
 Total energy in the final basis set = -1510.26588428
   13   -1510.2737217657      9.95E-09 Convergence criterion met
 Total energy in the final basis set = -1510.27372177
   13   -1510.2770666450      8.15E-09 Convergence criterion met
 Total energy in the final basis set = -1510.27706665
   14   -1510.2795635527      4.22E-09 Convergence criterion met
 Total energy in the final basis set = -1510.27956355
   13   -1510.2807837224      5.27E-09 Convergence criterion met
   12   -1510.2876932779      6.17E-09 Convergence criterion met
 Total energy in the final basis set = -1510.28769328
   12   -1510.2877588691      7.42E-09 Convergence criterion met
 Total energy in the final basis set = -1510.28775887
   11   -1510.2877790044      3.61E-09 Convergence criterion met
 Total energy in the final basis set = -1510.28777900
   10   -1510.2877994704      8.81E-09 Convergence criterion met
 Total energy in the final basis set = -1510.28779947
   10   -1510.2878083999      9.08E-09 Convergence criterion met
 Total energy in the final basis set = -1510.28780840
   10   -1510.2878131687      3.94E-09 Convergence criterion met
 Total energy in the final basis set = -1510.28781317

             Standard Nuclear Orientation (Angstroms)
    I     Atom           X                Y                Z
 ----------------------------------------------------------------
    1      O       2.1592392808    -1.9878506434    -0.1341494438
    2      C       2.5720657975    -1.0567812052    -0.8661603017
    3      C       3.9826455431    -0.3633831732    -0.8185338543
    4      C       3.9731808073     0.9978383543     0.0176660882
    5      C       2.6204032334     1.1266870547     0.7980805082
    6      O       1.6544475562     1.6432769596    -0.1175682100
    7      C       0.3389393550     1.7803441121     0.5465986031
    8      C      -0.5619846887     2.7260147951    -0.3297297444
    9      O      -1.6017469380     1.9165184252    -1.0123481444
   10      C      -2.5024667829     1.3472635550    -0.0560858599
   11      C      -3.5720715280     0.5326184842    -0.8546691635
   12      C      -3.7848703306    -0.9334633786    -0.2973392352
   13      C      -2.7057537095    -1.5492817600     0.6674476374
   14      O      -2.9205960796    -2.5321873240     1.4107866094
   15      O       1.8159583582    -0.4681799225    -1.9224052416
   16      O      -1.3954099187    -0.9799629097     0.4755785827
   17      O      -2.4676004831     1.5731434068     1.1722933096
   18      C      -0.4158319207    -1.6495538516     1.3791026292
   19      C      -5.0079540887     1.1492081193    -0.5530262387
   20      C      -6.0827963561     0.4700230317    -1.4932518053
   21      C      -6.2964208893    -0.9123944179    -0.7706118026
   22      C      -5.2199581539    -0.8132945346     0.3780110899
   23      O      -5.3074547528     0.6057174794     0.7917948052
   24      H      -3.3116407159     0.5415627765    -1.9267015004
   25      H      -3.8418815281    -1.6364811232    -1.1509208452
   26      H      -5.0328334274     2.2561630703    -0.5362963957
   27      H      -7.0090737757     1.0654290463    -1.5139965532
   28      H      -5.7129871734     0.3565525361    -2.5249314612
   29      H      -7.3077438412    -0.9879193285    -0.3399220663
   30      H      -6.1275995646    -1.7754993218    -1.4341811195
   31      H      -5.3697895706    -1.4898499446     1.2419617791
   32      O       2.3850824695     0.8397353244     1.9910871148
   33      C       0.4662556170    -1.0795489368    -2.0266264583
   34      C       5.0688854068    -1.1990549686    -0.0219368329
   35      C       6.4906970338    -0.6750108996    -0.4645408595
   36      C       6.5250970175     0.7303810157     0.2440861813
   37      C       5.1551631770     0.7166293003     1.0306998571
   38      O       4.9502691357    -0.7119010713     1.3716269692
   39      H       4.2995029176    -0.1707536982    -1.8591751506
   40      H       4.1281770187     1.8794423323    -0.6282976192
   41      H      -0.1926189208    -0.8275764173    -1.1643408066
   42      H       4.9238171501    -2.2959706007    -0.0616052375
   43      H       7.2795418317    -1.3395234169    -0.0773643547
   44      H       6.5918235612    -0.6056356211    -1.5595002451
   45      H       7.3724932915     0.8114759168     0.9430414494
   46      H       6.5794766912     1.5645784749    -0.4739282856
   47      H       5.1233193814     1.3371371576     1.9468485408
   48      H       0.5333209283    -2.1832431666    -2.1090574858
   49      H       0.0271585011    -0.6659973922    -2.9528070268
   50      H       0.5221224148    -1.8253915415     0.8028480905
   51      H      -0.8481575276    -2.6025091425     1.7395969008
   52      H      -0.2085209200    -0.9914392746     2.2457938281
   53      H      -1.0240561111     3.5158793142     0.3000662906
   54      H       0.0390144346     3.1921187086    -1.1359094172
   55      H       0.4662529910     2.1808197186     1.5746440149
   56      H      -0.1515347704     0.7869472412     0.6259240014
 ----------------------------------------------------------------

   10   -1510.2878135816      6.19E-09 Convergence criterion met
 Total energy in the final basis set = -1510.28781358
 Final energy is   -1510.28781358159
 **  OPTIMIZATION CONVERGED  **

                    Orbital Energies (a.u.)
 --------------------------------------------------------------

 Alpha MOs
 -- Occupied --
-18.940 -18.939 -18.931 -18.931 -18.890 -18.887 -18.882 -18.881
-18.875 -18.870 -10.105 -10.105 -10.098 -10.097 -10.074 -10.064
-10.063 -10.061 -10.060 -10.059 -10.057 -10.042 -10.040 -10.039
-10.039 -10.039 -10.023 -10.021 -10.021 -10.020  -1.018  -1.014
 -1.011  -1.007  -0.972  -0.969  -0.940  -0.939  -0.937  -0.932
 -0.766  -0.764  -0.729  -0.724  -0.712  -0.706  -0.697  -0.663
 -0.651  -0.619  -0.598  -0.583  -0.549  -0.546  -0.539  -0.538
 -0.513  -0.511  -0.480  -0.474  -0.464  -0.461  -0.457  -0.453
 -0.436  -0.431  -0.425  -0.418  -0.415  -0.408  -0.406  -0.397
 -0.389  -0.379  -0.375  -0.367  -0.360  -0.359  -0.355  -0.352
 -0.347  -0.341  -0.338  -0.332  -0.331  -0.330  -0.327  -0.315
 -0.310  -0.307  -0.306  -0.299  -0.293  -0.289  -0.282  -0.277
 -0.272  -0.261  -0.251  -0.247  -0.246  -0.236  -0.233  -0.185
 -0.181  -0.173  -0.170  -0.161  -0.160  -0.152  -0.150  -0.144
 -0.143

          Ground-State Mulliken Net Atomic Charges

     Atom                 Charge (a.u.)
  ----------------------------------------
      1 O                    -0.214954
      2 C                     0.210829
      3 C                    -0.077941
      4 C                    -0.077277
      5 C                     0.204833
      6 O                    -0.175809
      7 C                    -0.056308
      8 C                    -0.049117
      9 O                    -0.174705
     10 C                     0.211711
     11 C                    -0.080150
     12 C                    -0.078604
     13 C                     0.213581
     14 O                    -0.209162
     15 O                    -0.163278
     16 O                    -0.178637
     17 O                    -0.213696
     18 C                    -0.153444
     19 C                     0.026232
     20 C                    -0.145013
     21 C                    -0.142540
     22 C                     0.025603
     23 O                    -0.185287
     24 H                     0.086277
     25 H                     0.084534
     26 H                     0.082901
     27 H                     0.078823
     28 H                     0.073493
     29 H                     0.079242
     30 H                     0.073709
     31 H                     0.091576
     32 O                    -0.208103
     33 C                    -0.138661
     34 C                     0.024498
     35 C                    -0.142927
     36 C                    -0.144760
     37 C                     0.025308
     38 O                    -0.184726
     39 H                     0.085568
     40 H                     0.087033
     41 H                     0.102312
     42 H                     0.087674
     43 H                     0.078567
     44 H                     0.072926
     45 H                     0.078500
     46 H                     0.072958
     47 H                     0.087271
     48 H                     0.084977
     49 H                     0.088409
     50 H                     0.108745
     51 H                     0.098694
     52 H                     0.087767
     53 H                     0.090469
     54 H                     0.097193
     55 H                     0.093574
     56 H                     0.099314
  ----------------------------------------
  Sum of atomic charges =     0.000000

                    Cartesian Multipole Moments
 -----------------------------------------------------------------
    Charge (ESU x 10^10)
                 0.0000
    Dipole Moment (Debye)
         X       0.6536      Y       1.3370      Z      -4.6687
       Tot       4.9002
    Quadrupole Moments (Debye-Ang)
        XX    -144.8968     XY       5.3619     YY    -158.0772
        XZ       4.1540     YZ       4.2441     ZZ    -166.2858

 Total job time:  72.62s(wall), 3461.88s(cpu)
        *  Thank you very much for using Q-Chem.  Have a nice day.  *
