 Q-Chem 5.0, Q-Chem, Inc., Pleasanton, CA (2017)
 Q-Chem 5.0.1 for Intel X86 EM64T Linux

User input:
--------------------------------------------------------------
$molecule
0  1
O 2.1592392808 -1.9878506434 -0.1341494438
C 2.5720657975 -1.0567812052 -0.8661603017
C 3.9826455431 -0.3633831732 -0.8185338543
C 3.9731808073 0.9978383543 0.0176660882
C 2.6204032334 1.1266870547 0.7980805082
O 1.6544475562 1.6432769596 -0.11756821
C 0.338939355 1.7803441121 0.5465986031
C -0.5619846887 2.7260147951 -0.3297297444
O -1.601746938 1.9165184252 -1.0123481444
C -2.5024667829 1.347263555 -0.0560858599
C -3.572071528 0.5326184842 -0.8546691635
C -3.7848703306 -0.9334633786 -0.2973392352
C -2.7057537095 -1.54928176 0.6674476374
O -2.9205960796 -2.532187324 1.4107866094
O 1.8159583582 -0.4681799225 -1.9224052416
O -1.3954099187 -0.9799629097 0.4755785827
O -2.4676004831 1.5731434068 1.1722933096
C -0.4158319207 -1.6495538516 1.3791026292
C -5.0079540887 1.1492081193 -0.5530262387
C -6.0827963561 0.4700230317 -1.4932518053
C -6.2964208893 -0.9123944179 -0.7706118026
C -5.2199581539 -0.8132945346 0.3780110899
O -5.3074547528 0.6057174794 0.7917948052
H -3.3116407159 0.5415627765 -1.9267015004
H -3.8418815281 -1.6364811232 -1.1509208452
H -5.0328334274 2.2561630703 -0.5362963957
H -7.0090737757 1.0654290463 -1.5139965532
H -5.7129871734 0.3565525361 -2.5249314612
H -7.3077438412 -0.9879193285 -0.3399220663
H -6.1275995646 -1.7754993218 -1.4341811195
H -5.3697895706 -1.4898499446 1.2419617791
O 2.3850824695 0.8397353244 1.9910871148
C 0.466255617 -1.0795489368 -2.0266264583
C 5.0688854068 -1.1990549686 -0.0219368329
C 6.4906970338 -0.6750108996 -0.4645408595
C 6.5250970175 0.7303810157 0.2440861813
C 5.155163177 0.7166293003 1.0306998571
O 4.9502691357 -0.7119010713 1.3716269692
H 4.2995029176 -0.1707536982 -1.8591751506
H 4.1281770187 1.8794423323 -0.6282976192
H -0.1926189208 -0.8275764173 -1.1643408066
H 4.9238171501 -2.2959706007 -0.0616052375
H 7.2795418317 -1.3395234169 -0.0773643547
H 6.5918235612 -0.6056356211 -1.5595002451
H 7.3724932915 0.8114759168 0.9430414494
H 6.5794766912 1.5645784749 -0.4739282856
H 5.1233193814 1.3371371576 1.9468485408
H 0.5333209283 -2.1832431666 -2.1090574858
H 0.0271585011 -0.6659973922 -2.9528070268
H 0.5221224148 -1.8253915415 0.8028480905
H -0.8481575276 -2.6025091425 1.7395969008
H -0.20852092 -0.9914392746 2.2457938281
H -1.0240561111 3.5158793142 0.3000662906
H 0.0390144346 3.1921187086 -1.1359094172
H 0.466252991 2.1808197186 1.5746440149
H -0.1515347704 0.7869472412 0.6259240014
$end

$rem
JOBTYPE                   OPT
METHOD                    B3LYP
DFT_D                     d3_op
BASIS                     STO-3G
GEOM_OPT_MAX_CYCLES       100
GEOM_OPT_TOL_GRADIENT     300
GEOM_OPT_TOL_DISPLACEMENT 1200
GEOM_OPT_TOL_ENERGY       100
SYMMETRY                  False
THRESH                    12
SCF_CONVERGENCE           8
MAX_SUB_FILE_NUM          128
MEM_STATIC                400
MEM_TOTAL                 4000
$end
--------------------------------------------------------------

   16   -1510.2876692996      6.04E-09 Convergence criterion met
 Total energy in the final basis set = -1510.28766930
   15   -1510.2264970764      5.15E-09 Convergence criterion met
 Total energy in the final basis set = -1510.22649708
   15   -1510.2785957846      3.16E-09 Convergence criterion met
 Total energy in the final basis set = -1510.27859578
   15   -1510.2826431956      8.18E-09 Convergence criterion met
 Total energy in the final basis set = -1510.28264320
   15   -1510.2829478938      2.56E-09 Convergence criterion met
 Total energy in the final basis set = -1510.28294789
   15   -1510.2897419193      1.65E-09 Convergence criterion met
 Total energy in the final basis set = -1510.28974192
   15   -1510.2854893592      2.70E-09 Convergence criterion met
 Total energy in the final basis set = -1510.28548936
   15   -1510.2904972493      2.07E-09 Convergence criterion met
   11   -1510.2975507531      7.98E-09 Convergence criterion met
 Total energy in the final basis set = -1510.29755075
   11   -1510.2975540709      7.99E-09 Convergence criterion met
 Total energy in the final basis set = -1510.29755407
   10   -1510.2975538752      8.55E-09 Convergence criterion met
 Total energy in the final basis set = -1510.29755388
    9   -1510.2975521863      9.43E-09 Convergence criterion met
 Total energy in the final basis set = -1510.29755219
   11   -1510.2975499967      2.38E-09 Convergence criterion met
 Total energy in the final basis set = -1510.29755000
   11   -1510.2975478246      1.29E-09 Convergence criterion met
 Total energy in the final basis set = -1510.29754782

             Standard Nuclear Orientation (Angstroms)
    I     Atom           X                Y                Z
 ----------------------------------------------------------------
    1      O      -1.7144626454    -2.0470246684     0.4616512571
    2      C      -2.0969473065    -1.0501037082     1.1120585250
    3      C      -3.5381076259    -0.4332275960     1.1675369914
    4      C      -3.7169311377     0.8167751357     0.1962268010
    5      C      -2.4609970182     1.0626052802    -0.7075111666
    6      O      -1.6604047230     2.0984656752    -0.1355843036
    7      C      -0.4985667972     2.4029803441    -1.0109928387
    8      C       0.6449114393     3.0276329566    -0.1400200910
    9      O       1.4251890789     2.0200772087     0.6154711401
   10      C       2.4085859710     1.4088498647    -0.2373940359
   11      C       3.2888820597     0.4600081201     0.6436237945
   12      C       3.2984048565    -1.0576096157     0.1826859563
   13      C       2.4248291249    -1.3988396717    -1.0767737742
   14      O       2.7805231209    -2.0627636455    -2.0722097306
   15      O      -1.2575577142    -0.2504284460     1.9429093805
   16      O       1.1047585714    -0.8665303458    -0.9019140440
   17      O       2.5423181539     1.6725305054    -1.4515589758
   18      C       0.2190534197    -1.2822614153    -2.0193606876
   19      C       4.8332104278     0.8163560694     0.4913694080
   20      C       5.6193610177     0.1364233298     1.6810206307
   21      C       5.6276024061    -1.3683794114     1.2195961574
   22      C       4.8340615504    -1.2728811410    -0.1410865779
   23      O       5.2488323145     0.0376633398    -0.6954164040
   24      H       2.9502936378     0.5563675790     1.6893237742
   25      H       2.9624704528    -1.7100257636     1.0103374472
   26      H       5.0419385391     1.8932982460     0.3408865007
   27      H       6.6403986446     0.5445108241     1.7490087503
   28      H       5.1155289071     0.2835591950     2.6497675316
   29      H       6.6525898394    -1.7314409683     1.0434588581
   30      H       5.1346045999    -2.0381817600     1.9421764153
   31      H       5.0220410905    -2.0812915774    -0.8742643674
   32      O      -2.1772927957     0.4566312795    -1.7675784809
   33      C       0.1412053145    -0.7375727077     1.8711886125
   34      C      -4.6399756674    -1.4204662330     0.5961217214
   35      C      -6.0506293109    -0.9198621820     1.0981403245
   36      C      -6.2507311212     0.3589216340     0.2017432136
   37      C      -4.9425045645     0.3235639207    -0.6831859298
   38      O      -4.6674195614    -1.1204406452    -0.8540736628
   39      H      -3.7508965524    -0.1383750705     2.2105188633
   40      H      -3.9350134599     1.7380692358     0.7643974268
   41      H       0.4899072643    -0.8096537693     0.8115663267
   42      H      -4.4208005569    -2.4928506214     0.7623915287
   43      H      -6.8229994862    -1.6785898625     0.8946978357
   44      H      -6.0534634999    -0.6905043644     2.1756138951
   45      H      -7.1465324485     0.2719521415    -0.4333158059
   46      H      -6.3262847559     1.2853362713     0.7934024808
   47      H      -5.0244663695     0.8187682150    -1.6700670618
   48      H       0.2428245593    -1.7269577255     2.3624022838
   49      H       0.7423830261     0.0093123702     2.4194678558
   50      H      -0.0356159242    -2.3573442981    -1.9326964052
   51      H       0.7136098183    -1.1057323709    -2.9943773671
   52      H      -0.7055156489    -0.6682609072    -1.9378482714
   53      H       1.3139114948     3.6064466773    -0.8130377380
   54      H       0.2061665336     3.7040058775     0.6214680682
   55      H      -0.8083797404     3.1380118591    -1.7868481682
   56      H      -0.1399026219     1.4885489815    -1.5257587110
 ----------------------------------------------------------------

    9   -1510.2975469073      4.93E-09 Convergence criterion met
 Total energy in the final basis set = -1510.29754691
 Final energy is   -1510.29754690727
 **  OPTIMIZATION CONVERGED  **

                    Orbital Energies (a.u.)
 --------------------------------------------------------------

 Alpha MOs
 -- Occupied --
-18.943 -18.940 -18.936 -18.925 -18.889 -18.887 -18.884 -18.881
-18.876 -18.868 -10.108 -10.103 -10.101 -10.092 -10.079 -10.076
-10.062 -10.061 -10.058 -10.058 -10.044 -10.041 -10.041 -10.040
-10.038 -10.036 -10.022 -10.021 -10.021 -10.020  -1.021  -1.015
 -1.010  -1.003  -0.971  -0.970  -0.945  -0.939  -0.937  -0.928
 -0.766  -0.764  -0.730  -0.724  -0.715  -0.706  -0.700  -0.655
 -0.650  -0.621  -0.599  -0.582  -0.549  -0.544  -0.539  -0.537
 -0.513  -0.512  -0.481  -0.476  -0.461  -0.456  -0.455  -0.453
 -0.435  -0.430  -0.430  -0.420  -0.416  -0.406  -0.402  -0.398
 -0.396  -0.382  -0.371  -0.367  -0.365  -0.358  -0.354  -0.350
 -0.346  -0.341  -0.333  -0.333  -0.331  -0.329  -0.326  -0.312
 -0.311  -0.307  -0.305  -0.298  -0.296  -0.288  -0.280  -0.275
 -0.273  -0.262  -0.254  -0.251  -0.239  -0.235  -0.234  -0.188
 -0.180  -0.176  -0.167  -0.162  -0.159  -0.152  -0.146  -0.145
 -0.143

          Ground-State Mulliken Net Atomic Charges

     Atom                 Charge (a.u.)
  ----------------------------------------
      1 O                    -0.213555
      2 C                     0.203038
      3 C                    -0.078641
      4 C                    -0.077350
      5 C                     0.212924
      6 O                    -0.166611
      7 C                    -0.052142
      8 C                    -0.048075
      9 O                    -0.170450
     10 C                     0.209727
     11 C                    -0.079742
     12 C                    -0.079445
     13 C                     0.216765
     14 O                    -0.203539
     15 O                    -0.172584
     16 O                    -0.175806
     17 O                    -0.214040
     18 C                    -0.142219
     19 C                     0.026151
     20 C                    -0.143917
     21 C                    -0.144097
     22 C                     0.024337
     23 O                    -0.185971
     24 H                     0.085216
     25 H                     0.085197
     26 H                     0.083030
     27 H                     0.078589
     28 H                     0.073305
     29 H                     0.079076
     30 H                     0.073245
     31 H                     0.092649
     32 O                    -0.212956
     33 C                    -0.148449
     34 C                     0.024870
     35 C                    -0.143569
     36 C                    -0.144407
     37 C                     0.026240
     38 O                    -0.184578
     39 H                     0.085361
     40 H                     0.086854
     41 H                     0.110790
     42 H                     0.088109
     43 H                     0.078224
     44 H                     0.073162
     45 H                     0.078404
     46 H                     0.073112
     47 H                     0.084468
     48 H                     0.073876
     49 H                     0.081766
     50 H                     0.090271
     51 H                     0.090535
     52 H                     0.112777
     53 H                     0.094102
     54 H                     0.094858
     55 H                     0.086227
     56 H                     0.104887
  ----------------------------------------
  Sum of atomic charges =    -0.000000

                    Cartesian Multipole Moments
 -----------------------------------------------------------------
    Charge (ESU x 10^10)
                -0.0000
    Dipole Moment (Debye)
         X      -1.1468      Y       2.2149      Z       3.8372
       Tot       4.5766
    Quadrupole Moments (Debye-Ang)
        XX    -150.7234     XY      -5.7441     YY    -156.0523
        XZ       7.2719     YZ      -6.2782     ZZ    -164.6759

 Total job time:  193.01s(wall), 9216.12s(cpu)
        *  Thank you very much for using Q-Chem.  Have a nice day.  *
