 Q-Chem 5.0, Q-Chem, Inc., Pleasanton, CA (2017)
 Q-Chem 5.0.1 for Intel X86 EM64T Linux

User input:
--------------------------------------------------------------
$molecule
0  1
O -3.94934 -3.66094 2.70899
C -3.26408 -4.56952 2.26188
C -3.36658 -6.02376 2.66595
C -2.43309 -6.50895 3.78713
C -1.62715 -5.44631 4.5008
O -0.60538 -5.02267 3.69959
C 0.20061 -4.00622 4.30496
C 1.40821 -3.69961 3.4253
O 1.18305 -2.48618 2.6906
C 1.17588 -1.3495 3.43023
C 0.9543 -0.10817 2.59916
C 0.14977 1.00049 3.29334
C -0.00221 0.86517 4.79511
O -0.20567 1.78624 5.57279
O -2.21338 -4.25667 1.45888
O -0.50528 -0.33583 5.2023
O 1.71857 -1.29634 4.53008
C -0.87714 -0.68833 6.48799
C 2.2636 0.64567 2.28844
C 2.07956 1.49063 1.02951
C 1.13594 2.55835 1.54431
C 1.09423 2.19117 3.03334
O 2.35835 1.62947 3.28752
H 0.49418 -0.4185 1.63229
H -0.86673 1.13796 2.86391
H 3.14255 -0.02671 2.17772
H 3.06602 1.96084 0.81381
H 1.73102 0.9463 0.12558
H 1.61213 3.55147 1.3869
H 0.11677 2.54642 1.10053
H 0.83083 3.08601 3.63905
O -1.80541 -5.08225 5.65901
C -1.88866 -2.97434 1.06744
C -4.73842 -6.32669 3.31363
C -5.05718 -7.81666 3.19889
C -4.08393 -8.38768 4.2048
C -3.47581 -7.09622 4.7618
O -4.5247 -6.16513 4.69222
H -3.30185 -6.62382 1.73072
H -1.72178 -7.29835 3.45632
H -1.66435 -2.34779 1.95748
H -5.57143 -5.73313 2.87612
H -6.09149 -7.96305 3.58527
H -4.98596 -8.23961 2.17378
H -4.66417 -8.91521 4.99443
H -3.30895 -9.06555 3.78605
H -3.05601 -7.28597 5.77439
H -2.72696 -2.52525 0.49329
H -0.98813 -3.00815 0.42064
H -0.28891 -1.57457 6.80359
H -1.95381 -0.9553 6.49514
H -0.70267 0.12365 7.22537
H 2.32597 -3.57811 4.0457
H 1.61837 -4.55129 2.74361
H 0.62518 -4.45395 5.23368
H -0.37815 -3.10492 4.60332
$end

$opt
CONSTRAINT
tors           1           2           3           4     -93.451
tors           3           4           5           6     -74.646
tors           4           5           6           7    +179.618
tors           5           6           7           8    +173.479
tors           6           7           8           9    +101.626
tors           7           8           9          10     +69.536
tors           8           9          10          11    +179.184
tors           9          10          11          12    +145.731
tors          11          12          13          14    +155.247
ENDCONSTRAINT
$end

$rem
JOBTYPE                   OPT
METHOD                    B3LYP
DFT_D                     d3_op
BASIS                     STO-3G
GEOM_OPT_MAX_CYCLES       100
GEOM_OPT_TOL_GRADIENT     300
GEOM_OPT_TOL_DISPLACEMENT 1200
GEOM_OPT_TOL_ENERGY       100
SYMMETRY                  False
THRESH                    12
SCF_CONVERGENCE           8
MAX_SUB_FILE_NUM          128
MEM_STATIC                400
MEM_TOTAL                 4000
$end
--------------------------------------------------------------

   15   -1510.1355285884      6.99E-09 Convergence criterion met
 Total energy in the final basis set = -1510.13552859
   14   -1510.2060861896      7.62E-09 Convergence criterion met
 Total energy in the final basis set = -1510.20608619
   14   -1510.2448974885      8.52E-09 Convergence criterion met
 Total energy in the final basis set = -1510.24489749
   14   -1510.2635162773      7.23E-09 Convergence criterion met
 Total energy in the final basis set = -1510.26351628
   13   -1510.2713190112      9.96E-09 Convergence criterion met
 Total energy in the final basis set = -1510.27131901
    3   -1510.2713190112      5.66E-10 Convergence criterion met
 Total energy in the final basis set = -1510.27131901
   13   -1510.2750721816      7.68E-09 Convergence criterion met
 Total energy in the final basis set = -1510.27507218
    2   -1510.2750721816      7.73E-09 Convergence criterion met
   10   -1510.2873655630      8.81E-09 Convergence criterion met
 Total energy in the final basis set = -1510.28736556
   11   -1510.2873731859      2.64E-09 Convergence criterion met
 Total energy in the final basis set = -1510.28737319
   10   -1510.2873761908      6.17E-09 Convergence criterion met
 Total energy in the final basis set = -1510.28737619
    9   -1510.2873779701      5.61E-09 Convergence criterion met
 Total energy in the final basis set = -1510.28737797
    9   -1510.2873863775      5.87E-09 Convergence criterion met
 Total energy in the final basis set = -1510.28738638
    9   -1510.2873787233      3.52E-09 Convergence criterion met
 Total energy in the final basis set = -1510.28737872

             Standard Nuclear Orientation (Angstroms)
    I     Atom           X                Y                Z
 ----------------------------------------------------------------
    1      O      -2.0788470228     0.1663783348     1.9349817169
    2      C      -2.5205065931     0.8371382367     0.9720095662
    3      C      -3.9584206702     0.7466551585     0.3316090037
    4      C      -4.0199019340    -0.2540526796    -0.9161743529
    5      C      -2.6238353626    -0.9321689422    -1.1108869382
    6      O      -1.7560704817     0.0501554065    -1.6834595278
    7      C      -0.4138773241    -0.5332414305    -1.8825796298
    8      C       0.4838323215     0.4954828377    -2.6631700546
    9      O       1.3977583347     1.1854563864    -1.7202043848
   10      C       2.3872425239     0.2799538105    -1.2319201847
   11      C       3.3351038108     1.0607043118    -0.2607310918
   12      C       3.8147585004     0.1141465820     0.9048015554
   13      C       2.8149722662    -1.0458878513     1.2617922924
   14      O       3.0936683335    -2.1388901244     1.7960737038
   15      O      -1.7851948394     1.8672602019     0.3140940100
   16      O       1.4653898102    -0.5696084021     1.0718273987
   17      O       2.4914387110    -0.9129579718    -1.5908480962
   18      C       0.4801220708    -1.5439827232     1.6089869058
   19      C       4.7168753584     1.2495220840    -1.0276416508
   20      C       5.7515650336     2.0116345255    -0.1047395068
   21      C       6.2403989924     0.8517579966     0.8426377317
   22      C       5.2630052756    -0.3072012592     0.4066656625
   23      O       5.2187989825    -0.1451567540    -1.0660501166
   24      H       2.8691348519     1.9998257745     0.0811490759
   25      H       3.9119714609     0.7040580565     1.8367120295
   26      H       4.6167802947     1.6539731333    -2.0537421329
   27      H       6.5770110352     2.4232326637    -0.7064844699
   28      H       5.2737167223     2.8359344529     0.4490678267
   29      H       7.2842845018     0.5724686193     0.6272400038
   30      H       6.1515360723     1.1029134819     1.9115716019
   31      H       5.5683215305    -1.3354194549     0.6825148501
   32      O      -2.2815655375    -2.0989711371    -0.8244542514
   33      C      -0.4208154625     1.9913193581     0.8877075102
   34      C      -4.9990671097     0.0562538900     1.3074102160
   35      C      -6.4535625043     0.3545027390     0.7684658299
   36      C      -6.5230865736    -0.6101274828    -0.4733725426
   37      C      -5.1005305672    -1.2926170567    -0.4107813247
   38      O      -4.8199748755    -1.3899025193     1.0413280630
   39      H      -4.2706063189     1.7639718928     0.0350170136
   40      H      -4.3143218713     0.2703702613    -1.8422457637
   41      H       0.1860728531     1.0661140303     0.7724654437
   42      H      -4.8328777858     0.2727961997     2.3803581665
   43      H      -7.2059741364     0.0883789427     1.5278753846
   44      H      -6.5874702545     1.4131201505     0.4942174223
   45      H      -7.3172244175    -1.3641878923    -0.3552583175
   46      H      -6.6843249998    -0.0726176743    -1.4216563461
   47      H      -5.0245637352    -2.2909073481    -0.8836777267
   48      H      -0.4628284587     2.2555860831     1.9640445457
   49      H       0.0612511778     2.8101827250     0.3233078389
   50      H       0.3143428292    -2.3757328330     0.8942225872
   51      H      -0.4671892215    -0.9781310984     1.7588532465
   52      H       0.8285794524    -1.9697083180     2.5699474378
   53      H       1.0575287558    -0.0283195417    -3.4569533639
   54      H      -0.1454607792     1.2889114174    -3.1140144740
   55      H      -0.4915998634    -1.4876950458    -2.4472000809
   56      H       0.0583711404    -0.7635331522    -0.9046579020
 ----------------------------------------------------------------

    8   -1510.2873786491      8.44E-09 Convergence criterion met
 Total energy in the final basis set = -1510.28737865
 Final energy is   -1510.28737864913
 **  OPTIMIZATION CONVERGED  **

                    Orbital Energies (a.u.)
 --------------------------------------------------------------

 Alpha MOs
 -- Occupied --
-18.938 -18.934 -18.934 -18.930 -18.888 -18.887 -18.878 -18.878
-18.878 -18.871 -10.103 -10.100 -10.099 -10.099 -10.077 -10.069
-10.063 -10.060 -10.060 -10.059 -10.056 -10.045 -10.040 -10.039
-10.039 -10.038 -10.023 -10.021 -10.021 -10.020  -1.019  -1.014
 -1.010  -1.006  -0.971  -0.969  -0.941  -0.937  -0.936  -0.933
 -0.766  -0.764  -0.730  -0.724  -0.712  -0.705  -0.698  -0.661
 -0.652  -0.620  -0.597  -0.583  -0.550  -0.547  -0.539  -0.538
 -0.512  -0.510  -0.481  -0.475  -0.463  -0.460  -0.458  -0.454
 -0.437  -0.430  -0.424  -0.416  -0.414  -0.408  -0.402  -0.399
 -0.392  -0.378  -0.377  -0.366  -0.361  -0.358  -0.355  -0.351
 -0.348  -0.342  -0.338  -0.332  -0.331  -0.329  -0.326  -0.314
 -0.311  -0.307  -0.306  -0.293  -0.292  -0.289  -0.283  -0.278
 -0.272  -0.261  -0.253  -0.249  -0.245  -0.234  -0.234  -0.186
 -0.180  -0.173  -0.170  -0.160  -0.156  -0.152  -0.150  -0.144
 -0.142

          Ground-State Mulliken Net Atomic Charges

     Atom                 Charge (a.u.)
  ----------------------------------------
      1 O                    -0.216225
      2 C                     0.208836
      3 C                    -0.077296
      4 C                    -0.077984
      5 C                     0.205485
      6 O                    -0.174202
      7 C                    -0.051469
      8 C                    -0.048286
      9 O                    -0.174806
     10 C                     0.213275
     11 C                    -0.078114
     12 C                    -0.078581
     13 C                     0.214473
     14 O                    -0.206920
     15 O                    -0.163338
     16 O                    -0.182642
     17 O                    -0.214983
     18 C                    -0.144133
     19 C                     0.024572
     20 C                    -0.145224
     21 C                    -0.141580
     22 C                     0.025392
     23 O                    -0.186552
     24 H                     0.086420
     25 H                     0.083480
     26 H                     0.081913
     27 H                     0.078587
     28 H                     0.073286
     29 H                     0.078906
     30 H                     0.073675
     31 H                     0.091880
     32 O                    -0.208116
     33 C                    -0.136830
     34 C                     0.024828
     35 C                    -0.143725
     36 C                    -0.144108
     37 C                     0.024813
     38 O                    -0.185411
     39 H                     0.085783
     40 H                     0.086447
     41 H                     0.102241
     42 H                     0.086629
     43 H                     0.078475
     44 H                     0.073067
     45 H                     0.078608
     46 H                     0.072986
     47 H                     0.088324
     48 H                     0.083535
     49 H                     0.089915
     50 H                     0.088615
     51 H                     0.107549
     52 H                     0.090451
     53 H                     0.093073
     54 H                     0.097940
     55 H                     0.090840
     56 H                     0.096221
  ----------------------------------------
  Sum of atomic charges =    -0.000000

                    Cartesian Multipole Moments
 -----------------------------------------------------------------
    Charge (ESU x 10^10)
                -0.0000
    Dipole Moment (Debye)
         X      -1.0995      Y       4.4695      Z      -0.8718
       Tot       4.6846
    Quadrupole Moments (Debye-Ang)
        XX    -146.0144     XY       5.7242     YY    -166.2461
        XZ       9.0995     YZ       4.1593     ZZ    -157.4884

 Total job time:  93.28s(wall), 4448.76s(cpu)
        *  Thank you very much for using Q-Chem.  Have a nice day.  *
