 Q-Chem 5.0, Q-Chem, Inc., Pleasanton, CA (2017)
 Q-Chem 5.0.1 for Intel X86 EM64T Linux

User input:
--------------------------------------------------------------
$molecule
0  1
O -2.0788470228 0.1663783348 1.9349817169
C -2.5205065931 0.8371382367 0.9720095662
C -3.9584206702 0.7466551585 0.3316090037
C -4.019901934 -0.2540526796 -0.9161743529
C -2.6238353626 -0.9321689422 -1.1108869382
O -1.7560704817 0.0501554065 -1.6834595278
C -0.4138773241 -0.5332414305 -1.8825796298
C 0.4838323215 0.4954828377 -2.6631700546
O 1.3977583347 1.1854563864 -1.7202043848
C 2.3872425239 0.2799538105 -1.2319201847
C 3.3351038108 1.0607043118 -0.2607310918
C 3.8147585004 0.114146582 0.9048015554
C 2.8149722662 -1.0458878513 1.2617922924
O 3.0936683335 -2.1388901244 1.7960737038
O -1.7851948394 1.8672602019 0.31409401
O 1.4653898102 -0.5696084021 1.0718273987
O 2.491438711 -0.9129579718 -1.5908480962
C 0.4801220708 -1.5439827232 1.6089869058
C 4.7168753584 1.249522084 -1.0276416508
C 5.7515650336 2.0116345255 -0.1047395068
C 6.2403989924 0.8517579966 0.8426377317
C 5.2630052756 -0.3072012592 0.4066656625
O 5.2187989825 -0.145156754 -1.0660501166
H 2.8691348519 1.9998257745 0.0811490759
H 3.9119714609 0.7040580565 1.8367120295
H 4.6167802947 1.6539731333 -2.0537421329
H 6.5770110352 2.4232326637 -0.7064844699
H 5.2737167223 2.8359344529 0.4490678267
H 7.2842845018 0.5724686193 0.6272400038
H 6.1515360723 1.1029134819 1.9115716019
H 5.5683215305 -1.3354194549 0.6825148501
O -2.2815655375 -2.0989711371 -0.8244542514
C -0.4208154625 1.9913193581 0.8877075102
C -4.9990671097 0.05625389 1.307410216
C -6.4535625043 0.354502739 0.7684658299
C -6.5230865736 -0.6101274828 -0.4733725426
C -5.1005305672 -1.2926170567 -0.4107813247
O -4.8199748755 -1.3899025193 1.041328063
H -4.2706063189 1.7639718928 0.0350170136
H -4.3143218713 0.2703702613 -1.8422457637
H 0.1860728531 1.0661140303 0.7724654437
H -4.8328777858 0.2727961997 2.3803581665
H -7.2059741364 0.0883789427 1.5278753846
H -6.5874702545 1.4131201505 0.4942174223
H -7.3172244175 -1.3641878923 -0.3552583175
H -6.6843249998 -0.0726176743 -1.4216563461
H -5.0245637352 -2.2909073481 -0.8836777267
H -0.4628284587 2.2555860831 1.9640445457
H 0.0612511778 2.810182725 0.3233078389
H 0.3143428292 -2.375732833 0.8942225872
H -0.4671892215 -0.9781310984 1.7588532465
H 0.8285794524 -1.969708318 2.5699474378
H 1.0575287558 -0.0283195417 -3.4569533639
H -0.1454607792 1.2889114174 -3.114014474
H -0.4915998634 -1.4876950458 -2.4472000809
H 0.0583711404 -0.7635331522 -0.904657902
$end

$rem
JOBTYPE                   OPT
METHOD                    B3LYP
DFT_D                     d3_op
BASIS                     STO-3G
GEOM_OPT_MAX_CYCLES       100
GEOM_OPT_TOL_GRADIENT     300
GEOM_OPT_TOL_DISPLACEMENT 1200
GEOM_OPT_TOL_ENERGY       100
SYMMETRY                  False
THRESH                    12
SCF_CONVERGENCE           8
MAX_SUB_FILE_NUM          128
MEM_STATIC                400
MEM_TOTAL                 4000
$end
--------------------------------------------------------------

   16   -1510.2871592901      7.18E-09 Convergence criterion met
 Total energy in the final basis set = -1510.28715929
   16   -1509.9342270785      2.92E-09 Convergence criterion met
 Total energy in the final basis set = -1509.93422708
   15   -1510.2841242337      8.43E-09 Convergence criterion met
 Total energy in the final basis set = -1510.28412423
   14   -1510.2848255709      6.71E-09 Convergence criterion met
 Total energy in the final basis set = -1510.28482557
   14   -1510.2855017486      7.80E-09 Convergence criterion met
 Total energy in the final basis set = -1510.28550175
   15   -1510.2841076299      2.21E-09 Convergence criterion met
 Total energy in the final basis set = -1510.28410763
   14   -1510.2879756575      5.18E-09 Convergence criterion met
 Total energy in the final basis set = -1510.28797566
   14   -1510.2899430374      1.91E-09 Convergence criterion met
    9   -1510.2986733050      7.85E-09 Convergence criterion met
 Total energy in the final basis set = -1510.29867331
   11   -1510.2986700087      2.15E-09 Convergence criterion met
 Total energy in the final basis set = -1510.29867001
   11   -1510.2986645724      7.21E-09 Convergence criterion met
 Total energy in the final basis set = -1510.29866457
   12   -1510.2986409409      4.27E-09 Convergence criterion met
 Total energy in the final basis set = -1510.29864094
   12   -1510.2986225967      4.92E-09 Convergence criterion met
 Total energy in the final basis set = -1510.29862260
   11   -1510.2986339948      6.82E-09 Convergence criterion met
 Total energy in the final basis set = -1510.29863399

             Standard Nuclear Orientation (Angstroms)
    I     Atom           X                Y                Z
 ----------------------------------------------------------------
    1      O       2.2416443453    -2.4176330292    -1.3934075279
    2      C       2.3280599853    -1.1737565024    -1.4730733673
    3      C       3.6304926642    -0.3003491008    -1.3909877525
    4      C       3.5940775978     0.7941224153    -0.2440826010
    5      C       2.3264102084     0.6782637416     0.6654400788
    6      O       1.7534497766     1.9789968471     0.8185096898
    7      C       0.5886835059     1.9480151802     1.7363521183
    8      C      -0.5825519536     2.8016327112     1.1354657852
    9      O      -1.3152417957     2.0984771528     0.0559548737
   10      C      -2.3288537064     1.2540598905     0.6207434045
   11      C      -3.1477062919     0.6068803251    -0.5453674810
   12      C      -3.4345183863    -0.9371755241    -0.3253005453
   13      C      -2.7460486146    -1.5363088602     0.9523401449
   14      O      -3.2823881209    -2.1397842758     1.9031548440
   15      O       1.2335934857    -0.2875604401    -1.7144319141
   16      O      -1.3366622469    -1.3020779317     0.8378936535
   17      O      -2.5258286128     1.1218246427     1.8487590811
   18      C      -0.5964347842    -1.8325775997     2.0055916177
   19      C      -4.6359951155     1.1730452750    -0.5590324275
   20      C      -5.3223840776     0.7457498736    -1.9173585098
   21      C      -5.6248354337    -0.7746111263    -1.6429705721
   22      C      -5.0133165343    -0.9474663576    -0.1984471100
   23      O      -5.3175670495     0.3451722737     0.4596130754
   24      H      -2.6228798201     0.8018863106    -1.4962997777
   25      H      -3.0946456197    -1.5195198684    -1.2012405892
   26      H      -4.7205729428     2.2479788045    -0.3069542417
   27      H      -6.2482721792     1.3203525010    -2.0792098954
   28      H      -4.6565925595     0.8969231568    -2.7820783032
   29      H      -6.7082262282    -0.9737704336    -1.6288839036
   30      H      -5.1514914322    -1.4435333714    -2.3792755326
   31      H      -5.4100999039    -1.7894884822     0.4013338918
   32      O       1.8947817529    -0.3627124083     1.2112483264
   33      C      -0.0452458169    -1.0365334016    -1.7856283801
   34      C       4.8887861301    -1.1602477202    -0.9616586838
   35      C       6.1910039800    -0.3589011362    -1.3483013774
   36      C       6.1720221373     0.7831849849    -0.2636278718
   37      C       4.8945277176     0.3868901299     0.5785967709
   38      O       4.8720670670    -1.0905578547     0.5189312424
   39      H       3.7835753073     0.1812076668    -2.3742637545
   40      H       3.6513436546     1.8213179286    -0.6438122473
   41      H      -0.5028512031    -1.1347152624    -0.7695102566
   42      H       4.8454095559    -2.2145290719    -1.2977603164
   43      H       7.0821734916    -0.9979092618    -1.2429295669
   44      H       6.1530326458     0.0297165698    -2.3785163964
   45      H       7.0730836103     0.7561570247     0.3693390687
   46      H       6.0809349061     1.7885883321    -0.7053031397
   47      H       4.8987836722     0.7329045909     1.6306023574
   48      H       0.1158323062    -2.0443125806    -2.2159327426
   49      H      -0.7131371368    -0.4486129948    -2.4418989964
   50      H      -1.0336884155    -1.4575033059     2.9521711572
   51      H       0.4408118428    -1.4569248877     1.8776975179
   52      H      -0.6116280020    -2.9410087589     2.0180915854
   53      H      -1.2781891967     3.0653544668     1.9613097986
   54      H      -0.1745299223     3.7255202697     0.6772918049
   55      H       0.8939101547     2.3900942932     2.7101083988
   56      H       0.2709675418     0.8979260692     1.9047024445
 ----------------------------------------------------------------

   11   -1510.2986336352      4.12E-09 Convergence criterion met
 Total energy in the final basis set = -1510.29863364
 Final energy is   -1510.29863363522
 **  OPTIMIZATION CONVERGED  **

                    Orbital Energies (a.u.)
 --------------------------------------------------------------

 Alpha MOs
 -- Occupied --
-18.941 -18.938 -18.937 -18.923 -18.889 -18.888 -18.882 -18.881
-18.876 -18.868 -10.108 -10.102 -10.102 -10.093 -10.078 -10.074
-10.063 -10.062 -10.059 -10.057 -10.048 -10.041 -10.040 -10.039
-10.037 -10.035 -10.023 -10.022 -10.021 -10.020  -1.020  -1.015
 -1.009  -1.001  -0.972  -0.970  -0.945  -0.938  -0.937  -0.928
 -0.766  -0.763  -0.730  -0.724  -0.715  -0.706  -0.699  -0.657
 -0.650  -0.621  -0.599  -0.581  -0.548  -0.545  -0.539  -0.537
 -0.513  -0.511  -0.482  -0.478  -0.462  -0.457  -0.455  -0.453
 -0.435  -0.431  -0.427  -0.423  -0.412  -0.407  -0.405  -0.400
 -0.395  -0.383  -0.372  -0.369  -0.362  -0.357  -0.353  -0.351
 -0.346  -0.343  -0.334  -0.333  -0.330  -0.328  -0.324  -0.312
 -0.310  -0.306  -0.304  -0.302  -0.293  -0.287  -0.283  -0.276
 -0.271  -0.258  -0.252  -0.249  -0.241  -0.236  -0.234  -0.189
 -0.181  -0.173  -0.166  -0.162  -0.158  -0.151  -0.148  -0.145
 -0.144

          Ground-State Mulliken Net Atomic Charges

     Atom                 Charge (a.u.)
  ----------------------------------------
      1 O                    -0.212868
      2 C                     0.211605
      3 C                    -0.078756
      4 C                    -0.077407
      5 C                     0.220554
      6 O                    -0.169790
      7 C                    -0.054265
      8 C                    -0.049505
      9 O                    -0.169200
     10 C                     0.210224
     11 C                    -0.078652
     12 C                    -0.079715
     13 C                     0.218513
     14 O                    -0.202952
     15 O                    -0.177031
     16 O                    -0.177309
     17 O                    -0.215263
     18 C                    -0.141654
     19 C                     0.025885
     20 C                    -0.143974
     21 C                    -0.143716
     22 C                     0.024654
     23 O                    -0.186187
     24 H                     0.086816
     25 H                     0.084728
     26 H                     0.082543
     27 H                     0.078633
     28 H                     0.073619
     29 H                     0.078923
     30 H                     0.073347
     31 H                     0.091689
     32 O                    -0.217396
     33 C                    -0.151377
     34 C                     0.024333
     35 C                    -0.143638
     36 C                    -0.144031
     37 C                     0.025684
     38 O                    -0.186580
     39 H                     0.084076
     40 H                     0.087569
     41 H                     0.109355
     42 H                     0.091180
     43 H                     0.078337
     44 H                     0.073237
     45 H                     0.078240
     46 H                     0.073579
     47 H                     0.081625
     48 H                     0.085571
     49 H                     0.074438
     50 H                     0.089437
     51 H                     0.117257
     52 H                     0.085636
     53 H                     0.095886
     54 H                     0.093731
     55 H                     0.085577
     56 H                     0.104784
  ----------------------------------------
  Sum of atomic charges =    -0.000000

                    Cartesian Multipole Moments
 -----------------------------------------------------------------
    Charge (ESU x 10^10)
                -0.0000
    Dipole Moment (Debye)
         X       1.1713      Y       2.9559      Z      -2.7123
       Tot       4.1792
    Quadrupole Moments (Debye-Ang)
        XX    -155.6831     XY       6.9790     YY    -160.4031
        XZ       9.5655     YZ       5.1469     ZZ    -158.6642

 Total job time:  176.68s(wall), 8433.46s(cpu)
        *  Thank you very much for using Q-Chem.  Have a nice day.  *
