 Q-Chem 5.0, Q-Chem, Inc., Pleasanton, CA (2017)
 Q-Chem 5.0.1 for Intel X86 EM64T Linux

User input:
--------------------------------------------------------------
$molecule
0  1
O -2.1308643076 -0.0097174883 1.8482741613
C -2.6476338389 0.7761240258 1.0176855155
C -4.0593145136 0.6265901418 0.3378753281
C -4.0035444685 -0.118098608 -1.0777551315
C -2.5607196687 -0.6788218148 -1.329797604
O -1.7317671722 0.461266826 -1.5440371191
C -0.3206863885 0.0683699979 -1.7450461023
C 0.4538260561 1.3775311244 -2.1461005774
O 1.5194478744 1.6852346291 -1.1583967753
C 2.4681878526 0.6081448207 -1.0895808127
C 3.5865004693 1.0112311845 -0.0721645406
C 3.8943332047 -0.1168169212 0.9904667631
C 2.768298205 -1.1711947422 1.296020393
O 2.9293317756 -2.2114333638 1.9714513844
O -2.0597835922 2.0123484973 0.6086585745
O 1.4841175145 -0.6816345799 0.8820812388
O 2.4291354606 -0.4009862104 -1.823922652
C 0.4038101849 -1.6027787667 1.328890804
C 4.9635017031 1.0061522837 -0.8699893231
C 6.1332003843 1.5096725774 0.0668378877
C 6.4195703116 0.2219101691 0.9266905883
C 5.256777028 -0.7227896279 0.4311641233
O 5.2155767689 -0.4459634654 -1.0232114467
H 3.3398071568 1.9817672649 0.3907428958
H 4.0954467111 0.3639005161 1.9674533746
H 4.9136451982 1.4952261446 -1.8622158627
H 7.0094631619 1.8035592209 -0.5321878084
H 5.8239407191 2.3698246964 0.6824331575
H 7.3991927161 -0.2161804658 0.676914421
H 6.3803507342 0.4102742444 2.0114012881
H 5.3940877009 -1.8041961204 0.6262735233
O -2.1664263832 -1.8635453438 -1.3326762223
C -0.6983298613 2.1712356867 1.1828699614
C -5.0269396026 -0.3411080807 1.1403833522
C -6.5039941052 -0.0546478159 0.66024928
C -6.4889808272 -0.7100284562 -0.7710942184
C -5.0245459475 -1.2979196338 -0.8266230518
O -4.7396934001 -1.6805966935 0.5774549165
H -4.4901852652 1.6373327103 0.2234936305
H -4.2934411232 0.5556674416 -1.9034360762
H 0.0782407596 1.9617216464 0.4132565653
H -4.8692442155 -0.3418037217 2.2361841529
H -7.2258207134 -0.5554135683 1.3249164349
H -6.7344581548 1.0223679163 0.6345806602
H -7.2339555254 -1.5169403953 -0.855285412
H -6.6693230631 0.022627181 -1.573964801
H -4.8819615056 -2.1679511948 -1.4964611144
H -0.5646723727 1.4801720819 2.0377240399
H -0.6047599886 3.220522511 1.5204941112
H -0.4915941197 -0.9827002503 1.5638516526
H 0.7344019155 -2.1719280922 2.2190574005
H 0.1554433087 -2.3187901216 0.519439007
H 0.88286041 1.2806516754 -3.1661375779
H -0.2391929231 2.2423003782 -2.119322283
H -0.2342617916 -0.7126164446 -2.5296235352
H 0.1040286201 -0.3406811809 -0.8047982997
$end

$rem
JOBTYPE                   OPT
METHOD                    B3LYP
DFT_D                     d3_op
BASIS                     STO-3G
GEOM_OPT_MAX_CYCLES       100
GEOM_OPT_TOL_GRADIENT     300
GEOM_OPT_TOL_DISPLACEMENT 1200
GEOM_OPT_TOL_ENERGY       100
SYMMETRY                  False
THRESH                    12
SCF_CONVERGENCE           8
MAX_SUB_FILE_NUM          128
MEM_STATIC                400
MEM_TOTAL                 4000
$end
--------------------------------------------------------------

   16   -1510.2862568168      7.79E-09 Convergence criterion met
 Total energy in the final basis set = -1510.28625682
   15   -1510.1798416879      9.20E-09 Convergence criterion met
 Total energy in the final basis set = -1510.17984169
   15   -1510.2864226432      3.75E-09 Convergence criterion met
 Total energy in the final basis set = -1510.28642264
   15   -1510.2837783748      3.59E-09 Convergence criterion met
 Total energy in the final basis set = -1510.28377837
   14   -1510.2829465923      9.46E-09 Convergence criterion met
 Total energy in the final basis set = -1510.28294659
   14   -1510.2886789991      6.56E-09 Convergence criterion met
 Total energy in the final basis set = -1510.28867900
   14   -1510.2913105485      5.03E-09 Convergence criterion met
 Total energy in the final basis set = -1510.29131055
   14   -1510.2920578875      6.22E-09 Convergence criterion met
   11   -1510.2977201232      9.36E-09 Convergence criterion met
 Total energy in the final basis set = -1510.29772012
   11   -1510.2977321549      9.18E-09 Convergence criterion met
 Total energy in the final basis set = -1510.29773215
   12   -1510.2977493661      6.02E-09 Convergence criterion met
 Total energy in the final basis set = -1510.29774937
   11   -1510.2977579045      6.20E-09 Convergence criterion met
 Total energy in the final basis set = -1510.29775790
   11   -1510.2977623578      8.09E-09 Convergence criterion met
 Total energy in the final basis set = -1510.29776236
   11   -1510.2977608815      2.08E-09 Convergence criterion met
 Total energy in the final basis set = -1510.29776088

             Standard Nuclear Orientation (Angstroms)
    I     Atom           X                Y                Z
 ----------------------------------------------------------------
    1      O       1.7444243144    -1.2991536533    -0.1026409567
    2      C       2.1740446686    -0.4488167090    -0.9145497887
    3      C       3.6526706838     0.0635887673    -1.0387798591
    4      C       4.0524677267     1.1240928072     0.0750500333
    5      C       2.9542765385     1.3472288853     1.1760327021
    6      O       1.6686496048     1.4658465117     0.5460269369
    7      C       0.5929060201     1.4231669678     1.5661053813
    8      C      -0.5540964555     2.4195045458     1.1811248622
    9      O      -1.4233915600     1.9172241946     0.0864077438
   10      C      -2.3845427006     0.9785149854     0.6062755703
   11      C      -3.3333363763     0.5342535596    -0.5547800792
   12      C      -3.6371202736    -1.0230064457    -0.5524750708
   13      C      -2.8583249349    -1.8251277991     0.5518837161
   14      O      -3.3379922365    -2.4891864505     1.4936646308
   15      O       1.4265967036     0.1684221721    -1.9608078136
   16      O      -1.4607690188    -1.7017982126     0.2747689271
   17      O      -2.4363402091     0.6315480712     1.8055570202
   18      C      -0.6454120782    -2.3936072913     1.2996742007
   19      C      -4.8008150568     1.1122052636    -0.3300577037
   20      C      -5.6217979090     0.9208194762    -1.6668320191
   21      C      -5.9361791672    -0.6208364457    -1.6150553849
   22      C      -5.1981004538    -1.0344254827    -0.2833720612
   23      O      -5.4058794972     0.1368024320     0.6018603266
   24      H      -2.9039394169     0.8694167182    -1.5141905223
   25      H      -3.3890591938    -1.4618636164    -1.5362070887
   26      H      -4.8314968300     2.1325989414     0.0992655302
   27      H      -6.5434232424     1.5235005428    -1.6396959470
   28      H      -5.0382446100     1.2079236994    -2.5561933775
   29      H      -7.0183423901    -0.8082053305    -1.5291260136
   30      H      -5.5515518312    -1.1650388706    -2.4924250307
   31      H      -5.5614473002    -1.9575039222     0.2085354131
   32      O       3.1353895997     1.4168156267     2.4106674329
   33      C      -0.0321944256    -0.0359813273    -1.7981425886
   34      C       4.7161779685    -1.0796093890    -0.7486062120
   35      C       6.1093485650    -0.6169130135    -1.3300191152
   36      C       6.5225040123     0.4837502528    -0.2821755358
   37      C       5.3108475854     0.4162110591     0.7269300787
   38      O       4.9173704073    -1.0123477736     0.7170549346
   39      H       3.7758423525     0.4947988587    -2.0474452317
   40      H       4.3057072027     2.1000498013    -0.3792462557
   41      H      -0.4707813853     0.8581236861    -1.3008006714
   42      H       4.3885419967    -2.0946897910    -1.0458349365
   43      H       6.8221513996    -1.4570098629    -1.3330065510
   44      H       6.0247940910    -0.2210449164    -2.3546130822
   45      H       7.4641872321     0.2255358980     0.2274164333
   46      H       6.6279265693     1.4829434648    -0.7341869767
   47      H       5.5201701303     0.7528636072     1.7610251073
   48      H      -0.2767723288    -0.9225842206    -1.1747480654
   49      H      -0.4616130765    -0.1509540096    -2.8107759338
   50      H       0.4017192044    -2.1639817424     1.0114143975
   51      H      -0.8233398470    -3.4877150765     1.2855318173
   52      H      -0.8703529931    -2.0100774607     2.3152407474
   53      H      -1.1656411622     2.6147189802     2.0883996297
   54      H      -0.1222864985     3.3708733107     0.8099552891
   55      H       1.0277059597     1.6919125486     2.5535629200
   56      H       0.1909590009     0.3884618349     1.6216183039
 ----------------------------------------------------------------

    9   -1510.2977616929      4.24E-09 Convergence criterion met
 Total energy in the final basis set = -1510.29776169
 Final energy is   -1510.29776169286
 **  OPTIMIZATION CONVERGED  **

                    Orbital Energies (a.u.)
 --------------------------------------------------------------

 Alpha MOs
 -- Occupied --
-18.946 -18.941 -18.928 -18.923 -18.890 -18.888 -18.886 -18.886
-18.874 -18.864 -10.108 -10.107 -10.098 -10.097 -10.083 -10.074
-10.065 -10.059 -10.059 -10.058 -10.044 -10.043 -10.042 -10.038
-10.034 -10.034 -10.023 -10.022 -10.021 -10.020  -1.024  -1.019
 -1.006  -0.999  -0.973  -0.970  -0.949  -0.943  -0.933  -0.928
 -0.767  -0.763  -0.731  -0.724  -0.715  -0.706  -0.701  -0.653
 -0.651  -0.622  -0.597  -0.584  -0.549  -0.545  -0.539  -0.537
 -0.514  -0.510  -0.489  -0.474  -0.458  -0.456  -0.454  -0.452
 -0.440  -0.434  -0.430  -0.420  -0.414  -0.405  -0.402  -0.399
 -0.394  -0.384  -0.374  -0.365  -0.365  -0.357  -0.356  -0.351
 -0.346  -0.344  -0.335  -0.333  -0.330  -0.329  -0.320  -0.313
 -0.310  -0.308  -0.306  -0.302  -0.294  -0.287  -0.285  -0.278
 -0.271  -0.267  -0.256  -0.248  -0.237  -0.234  -0.230  -0.195
 -0.178  -0.174  -0.167  -0.163  -0.161  -0.149  -0.147  -0.146
 -0.144

          Ground-State Mulliken Net Atomic Charges

     Atom                 Charge (a.u.)
  ----------------------------------------
      1 O                    -0.230111
      2 C                     0.220964
      3 C                    -0.080359
      4 C                    -0.077463
      5 C                     0.214540
      6 O                    -0.172491
      7 C                    -0.056384
      8 C                    -0.049448
      9 O                    -0.169857
     10 C                     0.212298
     11 C                    -0.079015
     12 C                    -0.079424
     13 C                     0.214353
     14 O                    -0.206162
     15 O                    -0.172619
     16 O                    -0.179829
     17 O                    -0.207907
     18 C                    -0.142881
     19 C                     0.026068
     20 C                    -0.143894
     21 C                    -0.143802
     22 C                     0.024743
     23 O                    -0.185771
     24 H                     0.086971
     25 H                     0.084178
     26 H                     0.082408
     27 H                     0.078837
     28 H                     0.073768
     29 H                     0.079001
     30 H                     0.073480
     31 H                     0.091776
     32 O                    -0.206975
     33 C                    -0.154554
     34 C                     0.024926
     35 C                    -0.143528
     36 C                    -0.144470
     37 C                     0.023920
     38 O                    -0.188205
     39 H                     0.085879
     40 H                     0.086020
     41 H                     0.093482
     42 H                     0.084808
     43 H                     0.078081
     44 H                     0.073524
     45 H                     0.078648
     46 H                     0.072934
     47 H                     0.090388
     48 H                     0.105021
     49 H                     0.074309
     50 H                     0.116904
     51 H                     0.083262
     52 H                     0.086506
     53 H                     0.097344
     54 H                     0.094851
     55 H                     0.103688
     56 H                     0.097269
  ----------------------------------------
  Sum of atomic charges =    -0.000000

                    Cartesian Multipole Moments
 -----------------------------------------------------------------
    Charge (ESU x 10^10)
                -0.0000
    Dipole Moment (Debye)
         X       0.7580      Y       2.3625      Z      -3.7947
       Tot       4.5339
    Quadrupole Moments (Debye-Ang)
        XX    -153.7755     XY       0.8206     YY    -156.3605
        XZ       5.4847     YZ       5.7292     ZZ    -165.2120

 Total job time:  147.11s(wall), 7021.84s(cpu)
        *  Thank you very much for using Q-Chem.  Have a nice day.  *
