 Q-Chem 5.0, Q-Chem, Inc., Pleasanton, CA (2017)
 Q-Chem 5.0.1 for Intel X86 EM64T Linux

User input:
--------------------------------------------------------------
$molecule
0  1
O -3.94934 -3.66094 2.70899
C -3.26408 -4.56952 2.26188
C -3.36658 -6.02376 2.66595
C -2.43309 -6.50895 3.78713
C -1.62715 -5.44631 4.5008
O -0.67216 -4.94668 3.66187
C 0.10264 -3.8975 4.25192
C 1.25123 -3.50838 3.32701
O 1.12848 -2.12844 2.94811
C 1.15366 -1.23842 3.97103
C 1.06572 0.19555 3.50557
C 0.0217 1.05101 4.23802
C -0.51387 0.47458 5.53324
O -1.21144 1.07209 6.34005
O -2.22502 -4.25882 1.44309
O -0.53819 -0.86555 5.75553
O 1.66242 -1.52264 5.05354
C -1.08753 -1.49441 6.86028
C 2.35024 1.00119 3.77826
C 2.42045 2.19652 2.82955
C 1.31418 3.0657 3.39091
C 0.9196 2.24465 4.62447
O 2.11702 1.61918 5.01794
H 0.87738 0.19037 2.40679
H -0.8457 1.35458 3.61212
H 3.27597 0.38983 3.69993
H 3.3967 2.69985 3.01414
H 2.33224 1.95612 1.74821
H 1.75475 4.04252 3.69058
H 0.44667 3.22832 2.71517
H 0.44578 2.90348 5.38566
O -1.78023 -5.10851 5.6703
C -1.9061 -2.97789 1.04298
C -4.7365 -6.32886 3.31836
C -5.05608 -7.8182 3.19789
C -4.07596 -8.3952 4.19414
C -3.46938 -7.10676 4.75999
O -4.51915 -6.17595 4.69798
H -3.30606 -6.62465 1.73091
H -1.71426 -7.28534 3.44253
H -1.66907 -2.34859 1.92772
H -5.57123 -5.73321 2.88709
H -6.08766 -7.96475 3.59156
H -4.99391 -8.23762 2.17074
H -4.65039 -8.93425 4.98016
H -3.299 -9.06414 3.76474
H -3.04608 -7.30191 5.77
H -2.75247 -2.53067 0.47933
H -1.01472 -3.01418 0.38381
H -0.9372 -2.58899 6.7767
H -2.1779 -1.28964 6.91724
H -0.5877 -1.14121 7.78733
H 2.23586 -3.69754 3.81127
H 1.22452 -4.12269 2.40154
H 0.54623 -4.23296 5.21785
H -0.58112 -3.04478 4.44151
$end

$opt
CONSTRAINT
tors           1           2           3           4     -93.451
tors           3           4           5           6     -69.828
tors           4           5           6           7    +177.843
tors           5           6           7           8    +173.110
tors           6           7           8           9    +119.288
tors           7           8           9          10     +60.147
tors           8           9          10          11    +178.135
tors           9          10          11          12    +131.054
tors          11          12          13          14    +170.025
ENDCONSTRAINT
$end

$rem
JOBTYPE                   OPT
METHOD                    B3LYP
DFT_D                     d3_op
BASIS                     STO-3G
GEOM_OPT_MAX_CYCLES       100
GEOM_OPT_TOL_GRADIENT     300
GEOM_OPT_TOL_DISPLACEMENT 1200
GEOM_OPT_TOL_ENERGY       100
SYMMETRY                  False
THRESH                    12
SCF_CONVERGENCE           8
MAX_SUB_FILE_NUM          128
MEM_STATIC                400
MEM_TOTAL                 4000
$end
--------------------------------------------------------------

   15   -1510.1292795144      6.75E-09 Convergence criterion met
 Total energy in the final basis set = -1510.12927951
   14   -1510.2030738168      8.32E-09 Convergence criterion met
 Total energy in the final basis set = -1510.20307382
   14   -1510.2424425694      8.10E-09 Convergence criterion met
 Total energy in the final basis set = -1510.24244257
   15   -1510.2606702129      1.50E-09 Convergence criterion met
 Total energy in the final basis set = -1510.26067021
   14   -1510.2701435570      4.48E-09 Convergence criterion met
 Total energy in the final basis set = -1510.27014356
   14   -1510.2742353334      3.89E-09 Convergence criterion met
 Total energy in the final basis set = -1510.27423533
   14   -1510.2765713688      3.30E-09 Convergence criterion met
 Total energy in the final basis set = -1510.27657137
   13   -1510.2780092261      3.96E-09 Convergence criterion met
   11   -1510.2862064763      8.17E-09 Convergence criterion met
 Total energy in the final basis set = -1510.28620648
   11   -1510.2862127358      5.45E-09 Convergence criterion met
 Total energy in the final basis set = -1510.28621274
   11   -1510.2862189871      2.71E-09 Convergence criterion met
 Total energy in the final basis set = -1510.28621899
   10   -1510.2862271135      5.08E-09 Convergence criterion met
 Total energy in the final basis set = -1510.28622711
   10   -1510.2862317495      3.88E-09 Convergence criterion met
 Total energy in the final basis set = -1510.28623175
    9   -1510.2862353269      8.31E-09 Convergence criterion met
 Total energy in the final basis set = -1510.28623533

             Standard Nuclear Orientation (Angstroms)
    I     Atom           X                Y                Z
 ----------------------------------------------------------------
    1      O      -2.1308643076    -0.0097174883     1.8482741613
    2      C      -2.6476338389     0.7761240258     1.0176855155
    3      C      -4.0593145136     0.6265901418     0.3378753281
    4      C      -4.0035444685    -0.1180986080    -1.0777551315
    5      C      -2.5607196687    -0.6788218148    -1.3297976040
    6      O      -1.7317671722     0.4612668260    -1.5440371191
    7      C      -0.3206863885     0.0683699979    -1.7450461023
    8      C       0.4538260561     1.3775311244    -2.1461005774
    9      O       1.5194478744     1.6852346291    -1.1583967753
   10      C       2.4681878526     0.6081448207    -1.0895808127
   11      C       3.5865004693     1.0112311845    -0.0721645406
   12      C       3.8943332047    -0.1168169212     0.9904667631
   13      C       2.7682982050    -1.1711947422     1.2960203930
   14      O       2.9293317756    -2.2114333638     1.9714513844
   15      O      -2.0597835922     2.0123484973     0.6086585745
   16      O       1.4841175145    -0.6816345799     0.8820812388
   17      O       2.4291354606    -0.4009862104    -1.8239226520
   18      C       0.4038101849    -1.6027787667     1.3288908040
   19      C       4.9635017031     1.0061522837    -0.8699893231
   20      C       6.1332003843     1.5096725774     0.0668378877
   21      C       6.4195703116     0.2219101691     0.9266905883
   22      C       5.2567770280    -0.7227896279     0.4311641233
   23      O       5.2155767689    -0.4459634654    -1.0232114467
   24      H       3.3398071568     1.9817672649     0.3907428958
   25      H       4.0954467111     0.3639005161     1.9674533746
   26      H       4.9136451982     1.4952261446    -1.8622158627
   27      H       7.0094631619     1.8035592209    -0.5321878084
   28      H       5.8239407191     2.3698246964     0.6824331575
   29      H       7.3991927161    -0.2161804658     0.6769144210
   30      H       6.3803507342     0.4102742444     2.0114012881
   31      H       5.3940877009    -1.8041961204     0.6262735233
   32      O      -2.1664263832    -1.8635453438    -1.3326762223
   33      C      -0.6983298613     2.1712356867     1.1828699614
   34      C      -5.0269396026    -0.3411080807     1.1403833522
   35      C      -6.5039941052    -0.0546478159     0.6602492800
   36      C      -6.4889808272    -0.7100284562    -0.7710942184
   37      C      -5.0245459475    -1.2979196338    -0.8266230518
   38      O      -4.7396934001    -1.6805966935     0.5774549165
   39      H      -4.4901852652     1.6373327103     0.2234936305
   40      H      -4.2934411232     0.5556674416    -1.9034360762
   41      H       0.0782407596     1.9617216464     0.4132565653
   42      H      -4.8692442155    -0.3418037217     2.2361841529
   43      H      -7.2258207134    -0.5554135683     1.3249164349
   44      H      -6.7344581548     1.0223679163     0.6345806602
   45      H      -7.2339555254    -1.5169403953    -0.8552854120
   46      H      -6.6693230631     0.0226271810    -1.5739648010
   47      H      -4.8819615056    -2.1679511948    -1.4964611144
   48      H      -0.5646723727     1.4801720819     2.0377240399
   49      H      -0.6047599886     3.2205225110     1.5204941112
   50      H      -0.4915941197    -0.9827002503     1.5638516526
   51      H       0.7344019155    -2.1719280922     2.2190574005
   52      H       0.1554433087    -2.3187901216     0.5194390070
   53      H       0.8828604100     1.2806516754    -3.1661375779
   54      H      -0.2391929231     2.2423003782    -2.1193222830
   55      H      -0.2342617916    -0.7126164446    -2.5296235352
   56      H       0.1040286201    -0.3406811809    -0.8047982997
 ----------------------------------------------------------------

    9   -1510.2862358310      2.67E-09 Convergence criterion met
 Total energy in the final basis set = -1510.28623583
 Final energy is   -1510.28623583103
 **  OPTIMIZATION CONVERGED  **

                    Orbital Energies (a.u.)
 --------------------------------------------------------------

 Alpha MOs
 -- Occupied --
-18.938 -18.934 -18.933 -18.932 -18.889 -18.887 -18.880 -18.878
-18.874 -18.873 -10.105 -10.101 -10.100 -10.100 -10.076 -10.067
-10.063 -10.060 -10.060 -10.059 -10.053 -10.042 -10.040 -10.040
-10.039 -10.039 -10.023 -10.021 -10.021 -10.020  -1.019  -1.014
 -1.010  -1.006  -0.972  -0.970  -0.942  -0.938  -0.936  -0.933
 -0.766  -0.764  -0.730  -0.724  -0.711  -0.706  -0.697  -0.661
 -0.652  -0.619  -0.598  -0.584  -0.549  -0.546  -0.539  -0.538
 -0.513  -0.510  -0.482  -0.473  -0.465  -0.462  -0.457  -0.453
 -0.436  -0.431  -0.424  -0.415  -0.412  -0.408  -0.403  -0.399
 -0.395  -0.379  -0.375  -0.365  -0.361  -0.360  -0.354  -0.353
 -0.347  -0.341  -0.336  -0.332  -0.331  -0.329  -0.325  -0.315
 -0.310  -0.307  -0.306  -0.297  -0.293  -0.291  -0.283  -0.277
 -0.272  -0.256  -0.252  -0.249  -0.245  -0.235  -0.234  -0.186
 -0.182  -0.173  -0.168  -0.162  -0.157  -0.153  -0.151  -0.144
 -0.142

          Ground-State Mulliken Net Atomic Charges

     Atom                 Charge (a.u.)
  ----------------------------------------
      1 O                    -0.218913
      2 C                     0.212615
      3 C                    -0.077618
      4 C                    -0.077283
      5 C                     0.207485
      6 O                    -0.177680
      7 C                    -0.054782
      8 C                    -0.049924
      9 O                    -0.176878
     10 C                     0.216178
     11 C                    -0.078953
     12 C                    -0.078682
     13 C                     0.210929
     14 O                    -0.212487
     15 O                    -0.164386
     16 O                    -0.177794
     17 O                    -0.211231
     18 C                    -0.148997
     19 C                     0.025937
     20 C                    -0.145318
     21 C                    -0.141897
     22 C                     0.025647
     23 O                    -0.184854
     24 H                     0.086279
     25 H                     0.084561
     26 H                     0.082179
     27 H                     0.078672
     28 H                     0.073435
     29 H                     0.078967
     30 H                     0.074081
     31 H                     0.090566
     32 O                    -0.207255
     33 C                    -0.142772
     34 C                     0.024578
     35 C                    -0.143243
     36 C                    -0.144540
     37 C                     0.024489
     38 O                    -0.185991
     39 H                     0.085831
     40 H                     0.086555
     41 H                     0.098387
     42 H                     0.086998
     43 H                     0.078602
     44 H                     0.073063
     45 H                     0.078698
     46 H                     0.073011
     47 H                     0.088645
     48 H                     0.095941
     49 H                     0.084509
     50 H                     0.107061
     51 H                     0.095501
     52 H                     0.088643
     53 H                     0.088833
     54 H                     0.098974
     55 H                     0.094693
     56 H                     0.100928
  ----------------------------------------
  Sum of atomic charges =    -0.000000

                    Cartesian Multipole Moments
 -----------------------------------------------------------------
    Charge (ESU x 10^10)
                -0.0000
    Dipole Moment (Debye)
         X      -0.9266      Y       4.5662      Z      -0.1429
       Tot       4.6614
    Quadrupole Moments (Debye-Ang)
        XX    -141.7253     XY       4.1767     YY    -166.9118
        XZ       8.2404     YZ       1.7583     ZZ    -159.0127

 Total job time:  101.51s(wall), 4837.58s(cpu)
        *  Thank you very much for using Q-Chem.  Have a nice day.  *
