 Q-Chem 5.0, Q-Chem, Inc., Pleasanton, CA (2017)
 Q-Chem 5.0.1 for Intel X86 EM64T Linux

User input:
--------------------------------------------------------------
$molecule
0  1
O 2.1089688148 -1.8878035224 -0.4790363901
C 2.5105936788 -0.858455776 -1.0722689442
C 3.9094281047 -0.1607284827 -0.9114293689
C 3.9260406676 0.8896910909 0.2922873357
C 2.5557288013 0.8691346531 1.0491538996
O 1.677876762 1.766344388 0.3641704525
C 0.3538003955 1.7782813177 1.0297007333
C -0.5484772061 2.8110742319 0.2569999766
O -1.5411774144 2.1163337939 -0.5997460544
C -2.4151756258 1.2998046953 0.186833121
C -3.43402 0.627602735 -0.7922188208
C -3.6932889875 -0.8962005294 -0.457070053
C -2.6707391037 -1.6176995206 0.4941890028
O -2.9308465706 -2.6198046541 1.1945474836
O 1.7249287416 -0.0920755305 -1.9817638086
O -1.3409064904 -1.0928898009 0.3244993205
O -2.4126947625 1.2540389635 1.4357521819
C -0.3704068525 -1.8597004594 1.1536199518
C -4.883056395 1.2197029591 -0.5047825059
C -5.8904427729 0.690235729 -1.6029013455
C -6.1624571863 -0.7745653871 -1.0939355651
C -5.1692448785 -0.8498067588 0.1295517503
O -5.2788947971 0.5007928381 0.7275933084
H -3.1022256638 0.7845616247 -1.8326859116
H -3.686875752 -1.4829873879 -1.3959474475
H -4.904024622 2.314266742 -0.3382369156
H -6.8098516108 1.2965570711 -1.6082263105
H -5.4467468767 0.7128822348 -2.6111663505
H -7.2024320334 -0.894299686 -0.7503830198
H -5.950031189 -1.5412298257 -1.8559264354
H -5.3812377245 -1.6355955063 0.8806530174
O 2.240403286 0.2065478933 2.060521206
C 0.3710154745 -0.6798997969 -2.1574080319
C 5.0301812315 -1.1762344475 -0.4328756089
C 6.4380129613 -0.504348458 -0.6779831147
C 6.4667441313 0.5671637846 0.4759482618
C 5.0844290404 0.2891331039 1.1874430857
O 4.8982839393 -1.1727785024 1.0417302048
H 4.1681802525 0.3306751345 -1.8659949302
H 4.134291485 1.9119276157 -0.0685622201
H -0.2416573021 -0.6601325818 -1.2249511818
H 4.9141875839 -2.2043498776 -0.8269821028
H 7.242645597 -1.2469875378 -0.5579845947
H 6.5178583548 -0.0547391679 -1.6805855503
H 7.3022019713 0.3896392032 1.1713549147
H 6.5356458066 1.5988332553 0.0955390525
H 5.0286821897 0.5772912613 2.254961355
H 0.4365845308 -1.7272314772 -2.5156567785
H -0.1182190835 -0.0587163235 -2.9296433723
H 0.563739651 -1.9624801594 0.5538991946
H -0.798534693 -2.8477643453 1.4084633856
H -0.1579423251 -1.3031936737 2.0878842872
H -1.0595273521 3.4841713388 0.9788628954
H 0.074339314 3.4142598216 -0.4337304135
H 0.4562164459 2.0652815847 2.0981752858
H -0.108037742 0.7703103682 0.9907136145
$end

$rem
JOBTYPE                   OPT
METHOD                    B3LYP
DFT_D                     d3_op
BASIS                     STO-3G
GEOM_OPT_MAX_CYCLES       100
GEOM_OPT_TOL_GRADIENT     300
GEOM_OPT_TOL_DISPLACEMENT 1200
GEOM_OPT_TOL_ENERGY       100
SYMMETRY                  False
THRESH                    12
SCF_CONVERGENCE           8
MAX_SUB_FILE_NUM          128
MEM_STATIC                400
MEM_TOTAL                 4000
$end
--------------------------------------------------------------

   16   -1510.2903160049      5.90E-09 Convergence criterion met
 Total energy in the final basis set = -1510.29031600
   15   -1510.2698311709      3.89E-09 Convergence criterion met
 Total energy in the final basis set = -1510.26983117
   15   -1510.2590046743      4.11E-09 Convergence criterion met
 Total energy in the final basis set = -1510.25900467
   15   -1510.2774413611      4.40E-09 Convergence criterion met
 Total energy in the final basis set = -1510.27744136
   15   -1510.2830390947      1.92E-09 Convergence criterion met
 Total energy in the final basis set = -1510.28303909
   14   -1510.2854057915      3.65E-09 Convergence criterion met
 Total energy in the final basis set = -1510.28540579
   13   -1510.2867831139      5.12E-09 Convergence criterion met
 Total energy in the final basis set = -1510.28678311
   14   -1510.2883969326      4.55E-09 Convergence criterion met
   12   -1510.2971354177      9.91E-09 Convergence criterion met
 Total energy in the final basis set = -1510.29713542
   12   -1510.2972178746      8.00E-09 Convergence criterion met
 Total energy in the final basis set = -1510.29721787
   11   -1510.2972152476      8.87E-09 Convergence criterion met
 Total energy in the final basis set = -1510.29721525
   11   -1510.2972272545      6.71E-09 Convergence criterion met
 Total energy in the final basis set = -1510.29722725
   11   -1510.2972278096      3.27E-09 Convergence criterion met
 Total energy in the final basis set = -1510.29722781
   11   -1510.2972298602      2.87E-09 Convergence criterion met
 Total energy in the final basis set = -1510.29722986

             Standard Nuclear Orientation (Angstroms)
    I     Atom           X                Y                Z
 ----------------------------------------------------------------
    1      O      -1.7444354725    -2.0114694957     0.7036176507
    2      C      -2.1374006764    -0.9431207919     1.2266478594
    3      C      -3.5804172970    -0.3314391126     1.1554757336
    4      C      -3.7456956631     0.8038580457     0.0493013195
    5      C      -2.4531895911     1.0995915769    -0.7886405149
    6      O      -1.6123757823     1.9908070886    -0.0526355737
    7      C      -0.4466361925     2.3931316317    -0.8803924752
    8      C       0.6393674658     3.0228669385     0.0577573641
    9      O       1.4786748487     2.0164226033     0.7490414780
   10      C       2.4205601688     1.4376768895    -0.1694189020
   11      C       3.3580247534     0.4794965963     0.6380332976
   12      C       3.3303777234    -1.0345463998     0.1666500791
   13      C       2.3395846365    -1.3899119022    -0.9975294390
   14      O       2.5919309600    -2.0943090959    -1.9977626504
   15      O      -1.3232655655    -0.0750407452     2.0063096642
   16      O       1.0486103126    -0.8354934028    -0.7103377171
   17      O       2.4840203869     1.7277377965    -1.3833288881
   18      C       0.0105215155    -1.3809226334    -1.6255274555
   19      C       4.8863433888     0.8349245471     0.3692156015
   20      C       5.7659559659     0.1364847625     1.4802735935
   21      C       5.7380057811    -1.3603138601     0.9939037566
   22      C       4.8324123254    -1.2442378518    -0.2926824277
   23      O       5.2010902628     0.0742899695    -0.8598231340
   24      H       3.0964109015     0.5670319084     1.7065338650
   25      H       3.0744040974    -1.6909253021     1.0198918156
   26      H       5.0846158037     1.9137557035     0.2180161778
   27      H       6.7887632097     0.5455752612     1.4732775327
   28      H       5.3406265561     0.2655803731     2.4885074879
   29      H       6.7452756444    -1.7161640162     0.7249488386
   30      H       5.3097407600    -2.0440279168     1.7441617675
   31      H       4.9556865037    -2.0422643132    -1.0506154167
   32      O      -2.1822942684     0.6640137012    -1.9313882572
   33      C       0.0760019922    -0.5708364007     2.0395841672
   34      C      -4.6327335264    -1.4013903626     0.6416962101
   35      C      -6.0856374768    -0.8754253410     0.9668380330
   36      C      -6.2494732816     0.2530319912    -0.1179684070
   37      C      -4.8643882458     0.1569073855    -0.8701946164
   38      O      -4.5428892739    -1.2880934465    -0.8320803753
   39      H      -3.8420874900     0.0660210186     2.1523665425
   40      H      -4.0785965209     1.7487239275     0.5149150284
   41      H       0.4853407977    -0.6924332747     1.0056529590
   42      H      -4.4151086146    -2.4387439743     0.9613955110
   43      H      -6.8251074336    -1.6799785386     0.8279275688
   44      H      -6.1690991276    -0.4927950833     1.9967027880
   45      H      -7.0783473112     0.0318183570    -0.8090449801
   46      H      -6.4147229889     1.2486016510     0.3240784378
   47      H      -4.8588648205     0.5238394378    -1.9147815390
   48      H       0.1425200839    -1.5350158984     2.5835026114
   49      H       0.6486477949     0.2021418281     2.5824288385
   50      H      -0.6727860131    -2.0060226014    -1.0114427140
   51      H       0.4964061169    -1.9727388717    -2.4241369006
   52      H      -0.5743692529    -0.5367484564    -2.0468458389
   53      H       1.2751231639     3.7016441829    -0.5515268122
   54      H       0.1459805029     3.6038559161     0.8632400346
   55      H      -0.7662585162     3.1493598314    -1.6314536721
   56      H      -0.0203793844     1.5273190118    -1.4269748503
 ----------------------------------------------------------------

    9   -1510.2972300847      7.74E-09 Convergence criterion met
 Total energy in the final basis set = -1510.29723008
 Final energy is   -1510.29723008474
 **  OPTIMIZATION CONVERGED  **

                    Orbital Energies (a.u.)
 --------------------------------------------------------------

 Alpha MOs
 -- Occupied --
-18.940 -18.939 -18.936 -18.930 -18.889 -18.886 -18.883 -18.882
-18.875 -18.871 -10.105 -10.105 -10.101 -10.096 -10.079 -10.074
-10.063 -10.059 -10.059 -10.058 -10.042 -10.040 -10.040 -10.039
-10.037 -10.037 -10.022 -10.021 -10.021 -10.019  -1.019  -1.015
 -1.010  -1.006  -0.972  -0.969  -0.943  -0.939  -0.936  -0.931
 -0.766  -0.763  -0.730  -0.724  -0.715  -0.706  -0.700  -0.653
 -0.652  -0.620  -0.599  -0.583  -0.549  -0.545  -0.539  -0.537
 -0.512  -0.512  -0.480  -0.476  -0.461  -0.457  -0.454  -0.453
 -0.435  -0.430  -0.429  -0.422  -0.418  -0.406  -0.402  -0.399
 -0.394  -0.376  -0.372  -0.368  -0.366  -0.356  -0.353  -0.348
 -0.345  -0.344  -0.336  -0.333  -0.331  -0.330  -0.328  -0.314
 -0.310  -0.307  -0.305  -0.300  -0.296  -0.288  -0.280  -0.275
 -0.273  -0.260  -0.254  -0.251  -0.239  -0.235  -0.233  -0.185
 -0.178  -0.174  -0.171  -0.161  -0.161  -0.153  -0.148  -0.145
 -0.143

          Ground-State Mulliken Net Atomic Charges

     Atom                 Charge (a.u.)
  ----------------------------------------
      1 O                    -0.218485
      2 C                     0.207219
      3 C                    -0.078229
      4 C                    -0.077963
      5 C                     0.209533
      6 O                    -0.167827
      7 C                    -0.051186
      8 C                    -0.047192
      9 O                    -0.170375
     10 C                     0.209869
     11 C                    -0.079873
     12 C                    -0.078786
     13 C                     0.218360
     14 O                    -0.204130
     15 O                    -0.167759
     16 O                    -0.177734
     17 O                    -0.213442
     18 C                    -0.153178
     19 C                     0.026310
     20 C                    -0.144040
     21 C                    -0.143929
     22 C                     0.024307
     23 O                    -0.185645
     24 H                     0.085376
     25 H                     0.085356
     26 H                     0.083234
     27 H                     0.078708
     28 H                     0.073332
     29 H                     0.079176
     30 H                     0.073293
     31 H                     0.092764
     32 O                    -0.212658
     33 C                    -0.148356
     34 C                     0.024939
     35 C                    -0.144074
     36 C                    -0.144213
     37 C                     0.025161
     38 O                    -0.186197
     39 H                     0.085617
     40 H                     0.085737
     41 H                     0.110891
     42 H                     0.087384
     43 H                     0.078283
     44 H                     0.072943
     45 H                     0.078349
     46 H                     0.072722
     47 H                     0.087224
     48 H                     0.075061
     49 H                     0.084289
     50 H                     0.103693
     51 H                     0.098452
     52 H                     0.099730
     53 H                     0.091903
     54 H                     0.095648
     55 H                     0.086079
     56 H                     0.104330
  ----------------------------------------
  Sum of atomic charges =     0.000000

                    Cartesian Multipole Moments
 -----------------------------------------------------------------
    Charge (ESU x 10^10)
                 0.0000
    Dipole Moment (Debye)
         X      -0.9641      Y       2.1040      Z       4.0272
       Tot       4.6448
    Quadrupole Moments (Debye-Ang)
        XX    -147.7723     XY      -6.0671     YY    -156.5918
        XZ       7.5427     YZ      -5.1701     ZZ    -166.0440

 Total job time:  110.98s(wall), 5293.97s(cpu)
        *  Thank you very much for using Q-Chem.  Have a nice day.  *
