 Q-Chem 5.0, Q-Chem, Inc., Pleasanton, CA (2017)
 Q-Chem 5.0.1 for Intel X86 EM64T Linux

User input:
--------------------------------------------------------------
$molecule
0  1
O -3.94934 -3.66094 2.70899
C -3.26408 -4.56952 2.26188
C -3.36658 -6.02376 2.66595
C -2.54882 -6.47276 3.88805
C -1.85954 -5.38116 4.67633
O -0.63915 -5.11116 4.12571
C 0.07112 -4.07455 4.81142
C 1.43591 -3.85707 4.1663
O 1.42199 -2.65109 3.38637
C 1.16482 -1.5128 4.07723
C 1.1833 -0.27912 3.20641
C 0.0572 0.72704 3.48534
C -0.68734 0.54003 4.79202
O -1.28511 1.41686 5.39897
O -2.18246 -4.25266 1.50276
O -1.19093 -0.71004 4.99336
O 1.2609 -1.44236 5.2994
C -2.09545 -1.0446 5.98529
C 2.42194 0.60758 3.44702
C 2.68779 1.46135 2.20876
C 1.51444 2.41788 2.27066
C 0.90082 2.01107 3.61663
O 1.99805 1.57069 4.37867
H 1.1922 -0.60657 2.1407
H -0.69976 0.77374 2.67203
H 3.33119 0.02819 3.71988
H 3.62335 2.03169 2.40915
H 2.79764 0.90778 1.2515
H 1.91144 3.45661 2.30615
H 0.77492 2.31738 1.44676
H 0.32338 2.86014 4.04401
O -2.24529 -4.94545 5.75669
C -1.82897 -2.96661 1.15026
C -4.79471 -6.36076 3.14808
C -5.05295 -7.86164 3.02347
C -4.19696 -8.3852 4.1539
C -3.68868 -7.06703 4.74714
O -4.74803 -6.169 4.53777
H -3.16884 -6.62662 1.7513
H -1.8002 -7.26692 3.66843
H -1.62235 -2.36331 2.0608
H -5.58453 -5.79737 2.60344
H -6.12259 -8.03831 3.2784
H -4.83733 -8.29407 2.02277
H -4.85838 -8.90337 4.88375
H -3.36635 -9.05867 3.85087
H -3.38616 -7.22678 5.8059
H -2.6433 -2.49329 0.56111
H -0.90995 -2.99892 0.52997
H -2.34667 -2.12124 5.91416
H -3.03398 -0.46301 5.86223
H -1.65584 -0.84329 6.98537
H 2.20774 -3.734 4.96082
H 1.74729 -4.73618 3.56283
H 0.27266 -4.45789 5.83852
H -0.53374 -3.15739 4.91273
$end

$opt
CONSTRAINT
tors           1           2           3           4     -86.838
tors           3           4           5           6     -86.296
tors           4           5           6           7    +179.402
tors           5           6           7           8    +178.392
tors           6           7           8           9    +104.815
tors           7           8           9          10     +60.962
tors           8           9          10          11    +179.184
tors           9          10          11          12    +137.659
tors          11          12          13          14    +155.247
ENDCONSTRAINT
$end

$rem
JOBTYPE                   OPT
METHOD                    B3LYP
DFT_D                     d3_op
BASIS                     STO-3G
GEOM_OPT_MAX_CYCLES       100
GEOM_OPT_TOL_GRADIENT     300
GEOM_OPT_TOL_DISPLACEMENT 1200
GEOM_OPT_TOL_ENERGY       100
SYMMETRY                  False
THRESH                    12
SCF_CONVERGENCE           8
MAX_SUB_FILE_NUM          128
MEM_STATIC                400
MEM_TOTAL                 4000
$end
--------------------------------------------------------------

   15   -1510.1370681744      7.06E-09 Convergence criterion met
 Total energy in the final basis set = -1510.13706817
   13   -1510.2080040944      9.99E-09 Convergence criterion met
 Total energy in the final basis set = -1510.20800409
   14   -1510.2470850794      2.93E-09 Convergence criterion met
 Total energy in the final basis set = -1510.24708508
   14   -1510.2661563875      7.89E-09 Convergence criterion met
 Total energy in the final basis set = -1510.26615639
   14   -1510.2747044191      6.81E-09 Convergence criterion met
 Total energy in the final basis set = -1510.27470442
   14   -1510.2790309471      4.92E-09 Convergence criterion met
 Total energy in the final basis set = -1510.27903095
   14   -1510.2812017059      2.24E-09 Convergence criterion met
 Total energy in the final basis set = -1510.28120171
   13   -1510.2826778863      5.98E-09 Convergence criterion met
   12   -1510.2902603304      5.13E-09 Convergence criterion met
 Total energy in the final basis set = -1510.29026033
   12   -1510.2903983486      5.51E-09 Convergence criterion met
 Total energy in the final basis set = -1510.29039835
   11   -1510.2904482618      3.58E-09 Convergence criterion met
 Total energy in the final basis set = -1510.29044826
   10   -1510.2904783373      7.81E-09 Convergence criterion met
 Total energy in the final basis set = -1510.29047834
   11   -1510.2904844273      2.31E-09 Convergence criterion met
 Total energy in the final basis set = -1510.29048443
   10   -1510.2904873585      3.48E-09 Convergence criterion met
 Total energy in the final basis set = -1510.29048736

             Standard Nuclear Orientation (Angstroms)
    I     Atom           X                Y                Z
 ----------------------------------------------------------------
    1      O       2.1089688148    -1.8878035224    -0.4790363901
    2      C       2.5105936788    -0.8584557760    -1.0722689442
    3      C       3.9094281047    -0.1607284827    -0.9114293689
    4      C       3.9260406676     0.8896910909     0.2922873357
    5      C       2.5557288013     0.8691346531     1.0491538996
    6      O       1.6778767620     1.7663443880     0.3641704525
    7      C       0.3538003955     1.7782813177     1.0297007333
    8      C      -0.5484772061     2.8110742319     0.2569999766
    9      O      -1.5411774144     2.1163337939    -0.5997460544
   10      C      -2.4151756258     1.2998046953     0.1868331210
   11      C      -3.4340200000     0.6276027350    -0.7922188208
   12      C      -3.6932889875    -0.8962005294    -0.4570700530
   13      C      -2.6707391037    -1.6176995206     0.4941890028
   14      O      -2.9308465706    -2.6198046541     1.1945474836
   15      O       1.7249287416    -0.0920755305    -1.9817638086
   16      O      -1.3409064904    -1.0928898009     0.3244993205
   17      O      -2.4126947625     1.2540389635     1.4357521819
   18      C      -0.3704068525    -1.8597004594     1.1536199518
   19      C      -4.8830563950     1.2197029591    -0.5047825059
   20      C      -5.8904427729     0.6902357290    -1.6029013455
   21      C      -6.1624571863    -0.7745653871    -1.0939355651
   22      C      -5.1692448785    -0.8498067588     0.1295517503
   23      O      -5.2788947971     0.5007928381     0.7275933084
   24      H      -3.1022256638     0.7845616247    -1.8326859116
   25      H      -3.6868757520    -1.4829873879    -1.3959474475
   26      H      -4.9040246220     2.3142667420    -0.3382369156
   27      H      -6.8098516108     1.2965570711    -1.6082263105
   28      H      -5.4467468767     0.7128822348    -2.6111663505
   29      H      -7.2024320334    -0.8942996860    -0.7503830198
   30      H      -5.9500311890    -1.5412298257    -1.8559264354
   31      H      -5.3812377245    -1.6355955063     0.8806530174
   32      O       2.2404032860     0.2065478933     2.0605212060
   33      C       0.3710154745    -0.6798997969    -2.1574080319
   34      C       5.0301812315    -1.1762344475    -0.4328756089
   35      C       6.4380129613    -0.5043484580    -0.6779831147
   36      C       6.4667441313     0.5671637846     0.4759482618
   37      C       5.0844290404     0.2891331039     1.1874430857
   38      O       4.8982839393    -1.1727785024     1.0417302048
   39      H       4.1681802525     0.3306751345    -1.8659949302
   40      H       4.1342914850     1.9119276157    -0.0685622201
   41      H      -0.2416573021    -0.6601325818    -1.2249511818
   42      H       4.9141875839    -2.2043498776    -0.8269821028
   43      H       7.2426455970    -1.2469875378    -0.5579845947
   44      H       6.5178583548    -0.0547391679    -1.6805855503
   45      H       7.3022019713     0.3896392032     1.1713549147
   46      H       6.5356458066     1.5988332553     0.0955390525
   47      H       5.0286821897     0.5772912613     2.2549613550
   48      H       0.4365845308    -1.7272314772    -2.5156567785
   49      H      -0.1182190835    -0.0587163235    -2.9296433723
   50      H       0.5637396510    -1.9624801594     0.5538991946
   51      H      -0.7985346930    -2.8477643453     1.4084633856
   52      H      -0.1579423251    -1.3031936737     2.0878842872
   53      H      -1.0595273521     3.4841713388     0.9788628954
   54      H       0.0743393140     3.4142598216    -0.4337304135
   55      H       0.4562164459     2.0652815847     2.0981752858
   56      H      -0.1080377420     0.7703103682     0.9907136145
 ----------------------------------------------------------------

   10   -1510.2904882381      4.96E-09 Convergence criterion met
 Total energy in the final basis set = -1510.29048824
 Final energy is   -1510.29048823806
 **  OPTIMIZATION CONVERGED  **

                    Orbital Energies (a.u.)
 --------------------------------------------------------------

 Alpha MOs
 -- Occupied --
-18.940 -18.936 -18.932 -18.931 -18.890 -18.888 -18.882 -18.879
-18.876 -18.871 -10.105 -10.103 -10.099 -10.098 -10.076 -10.068
-10.063 -10.060 -10.060 -10.060 -10.053 -10.041 -10.040 -10.039
-10.039 -10.037 -10.023 -10.021 -10.021 -10.020  -1.017  -1.014
 -1.010  -1.007  -0.972  -0.970  -0.940  -0.939  -0.936  -0.933
 -0.766  -0.764  -0.729  -0.724  -0.713  -0.706  -0.697  -0.661
 -0.650  -0.620  -0.597  -0.583  -0.550  -0.546  -0.539  -0.538
 -0.513  -0.511  -0.479  -0.475  -0.463  -0.460  -0.457  -0.453
 -0.437  -0.431  -0.424  -0.420  -0.416  -0.407  -0.405  -0.398
 -0.390  -0.379  -0.375  -0.366  -0.361  -0.358  -0.353  -0.352
 -0.349  -0.341  -0.336  -0.332  -0.331  -0.328  -0.326  -0.314
 -0.311  -0.307  -0.306  -0.298  -0.295  -0.289  -0.281  -0.277
 -0.272  -0.261  -0.252  -0.249  -0.244  -0.235  -0.234  -0.183
 -0.181  -0.173  -0.173  -0.160  -0.159  -0.152  -0.149  -0.144
 -0.144

          Ground-State Mulliken Net Atomic Charges

     Atom                 Charge (a.u.)
  ----------------------------------------
      1 O                    -0.213537
      2 C                     0.210239
      3 C                    -0.077622
      4 C                    -0.078041
      5 C                     0.204024
      6 O                    -0.175263
      7 C                    -0.052973
      8 C                    -0.048365
      9 O                    -0.174098
     10 C                     0.212470
     11 C                    -0.079615
     12 C                    -0.078921
     13 C                     0.215393
     14 O                    -0.208238
     15 O                    -0.164842
     16 O                    -0.180227
     17 O                    -0.214017
     18 C                    -0.152953
     19 C                     0.025962
     20 C                    -0.144814
     21 C                    -0.142671
     22 C                     0.025286
     23 O                    -0.185921
     24 H                     0.085943
     25 H                     0.084035
     26 H                     0.082698
     27 H                     0.078714
     28 H                     0.073435
     29 H                     0.079108
     30 H                     0.073509
     31 H                     0.092172
     32 O                    -0.207847
     33 C                    -0.141974
     34 C                     0.025370
     35 C                    -0.143622
     36 C                    -0.144273
     37 C                     0.025701
     38 O                    -0.184084
     39 H                     0.085992
     40 H                     0.086597
     41 H                     0.105836
     42 H                     0.086267
     43 H                     0.078552
     44 H                     0.073160
     45 H                     0.078590
     46 H                     0.073082
     47 H                     0.087072
     48 H                     0.082766
     49 H                     0.086715
     50 H                     0.111737
     51 H                     0.096104
     52 H                     0.088648
     53 H                     0.088992
     54 H                     0.098144
     55 H                     0.090319
     56 H                     0.101286
  ----------------------------------------
  Sum of atomic charges =    -0.000000

                    Cartesian Multipole Moments
 -----------------------------------------------------------------
    Charge (ESU x 10^10)
                -0.0000
    Dipole Moment (Debye)
         X       0.8803      Y       2.3536      Z      -4.1779
       Tot       4.8754
    Quadrupole Moments (Debye-Ang)
        XX    -146.2302     XY       5.4466     YY    -159.9506
        XZ       6.6046     YZ       6.8348     ZZ    -163.2977

 Total job time:  67.40s(wall), 3213.86s(cpu)
        *  Thank you very much for using Q-Chem.  Have a nice day.  *
