 Q-Chem 5.0, Q-Chem, Inc., Pleasanton, CA (2017)
 Q-Chem 5.0.1 for Intel X86 EM64T Linux

User input:
--------------------------------------------------------------
$molecule
0  1
O -3.94934 -3.66094 2.70899
C -3.26408 -4.56952 2.26188
C -3.36658 -6.02376 2.66595
C -2.48965 -6.49044 3.83943
C -1.74112 -5.41288 4.5922
O -0.52352 -5.20116 4.01078
C 0.24158 -4.18121 4.66161
C 1.61491 -4.05775 4.00982
O 1.55989 -3.11559 2.92714
C 1.00438 -1.91518 3.22644
C 1.05241 -0.94082 2.07362
C -0.3011 -0.3256 1.68923
C -1.41243 -0.48519 2.70716
O -2.38425 0.24843 2.81646
O -2.53901 -4.34623 1.13433
O -1.54424 -1.63269 3.42503
O 0.89178 -1.48519 4.37135
C -2.48281 -1.76195 4.44317
C 1.88629 0.31875 2.37213
C 2.35495 0.95011 1.0627
C 1.04606 1.49407 0.53048
C 0.11419 1.16407 1.70297
O 0.9448 1.25183 2.83513
H 1.50353 -1.46772 1.20086
H -0.68737 -0.62961 0.69289
H 2.75393 0.12202 3.03946
H 3.01384 1.80688 1.33141
H 2.90114 0.2704 0.37381
H 1.14935 2.59533 0.40874
H 0.68976 1.03671 -0.41787
H -0.75968 1.85219 1.6913
O -2.04638 -5.01733 5.71298
C -2.58685 -3.18936 0.38826
C -4.77212 -6.36521 3.19787
C -5.03213 -7.86606 3.07618
C -4.13626 -8.3938 4.1741
C -3.59592 -7.07954 4.74715
O -4.66323 -6.17881 4.58553
H -3.17647 -6.6288 1.75011
H -1.76576 -7.29361 3.57298
H -2.30794 -2.32237 1.00813
H -5.58186 -5.79776 2.68817
H -6.09184 -8.04935 3.36515
H -4.84697 -8.28954 2.06558
H -4.77346 -8.90227 4.93191
H -3.32614 -9.07816 3.84157
H -3.24984 -7.24485 5.79145
H -3.61156 -3.0382 -0.01273
H -1.87704 -3.2716 -0.46008
H -2.47805 -2.77973 4.85409
H -3.50873 -1.56566 4.06546
H -2.25412 -1.04606 5.2614
H 2.31609 -3.63678 4.76624
H 2.02545 -5.03881 3.68958
H 0.4634 -4.58142 5.67813
H -0.33608 -3.277 4.86204
$end

$opt
CONSTRAINT
tors           1           2           3           4     -90.131
tors           3           4           5           6     -88.982
tors           4           5           6           7    +179.402
tors           5           6           7           8    +176.725
tors           6           7           8           9     +89.140
tors           7           8           9          10     +50.665
tors           8           9          10          11    +176.465
tors           9          10          11          12    +126.449
tors          11          12          13          14    +155.247
ENDCONSTRAINT
$end

$rem
JOBTYPE                   OPT
METHOD                    B3LYP
DFT_D                     d3_op
BASIS                     STO-3G
GEOM_OPT_MAX_CYCLES       100
GEOM_OPT_TOL_GRADIENT     300
GEOM_OPT_TOL_DISPLACEMENT 1200
GEOM_OPT_TOL_ENERGY       100
SYMMETRY                  False
THRESH                    12
SCF_CONVERGENCE           8
MAX_SUB_FILE_NUM          128
MEM_STATIC                400
MEM_TOTAL                 4000
$end
--------------------------------------------------------------

   16   -1510.1308434680      2.70E-09 Convergence criterion met
 Total energy in the final basis set = -1510.13084347
   14   -1510.2042794401      1.86E-09 Convergence criterion met
 Total energy in the final basis set = -1510.20427944
   14   -1510.2437441332      4.59E-09 Convergence criterion met
 Total energy in the final basis set = -1510.24374413
   14   -1510.2609504385      8.27E-09 Convergence criterion met
 Total energy in the final basis set = -1510.26095044
   15   -1510.2706961031      2.60E-09 Convergence criterion met
 Total energy in the final basis set = -1510.27069610
   15   -1510.2720275649      2.36E-09 Convergence criterion met
 Total energy in the final basis set = -1510.27202756
   14   -1510.2737003413      3.44E-09 Convergence criterion met
 Total energy in the final basis set = -1510.27370034
   13   -1510.2760831646      9.84E-09 Convergence criterion met
   10   -1510.2805262317      9.37E-09 Convergence criterion met
 Total energy in the final basis set = -1510.28052623
   11   -1510.2805262059      2.77E-09 Convergence criterion met
 Total energy in the final basis set = -1510.28052621
   10   -1510.2805273964      8.04E-09 Convergence criterion met
 Total energy in the final basis set = -1510.28052740
    9   -1510.2805288602      7.99E-09 Convergence criterion met
 Total energy in the final basis set = -1510.28052886
    9   -1510.2805312066      6.28E-09 Convergence criterion met
 Total energy in the final basis set = -1510.28053121
    9   -1510.2805328969      6.63E-09 Convergence criterion met
 Total energy in the final basis set = -1510.28053290

             Standard Nuclear Orientation (Angstroms)
    I     Atom           X                Y                Z
 ----------------------------------------------------------------
    1      O       1.8184666495     1.8377924871    -0.6023437113
    2      C       2.2222310001     1.3663310378     0.4821239284
    3      C       3.6222976774     0.7562143926     0.8101847335
    4      C       3.7286556126    -0.8077746859     0.5600539814
    5      C       2.5874242295    -1.4585922387    -0.3087643459
    6      O       1.5252073260    -1.8525216701     0.5629498076
    7      C       0.4008273284    -2.4656794378    -0.1985914349
    8      C      -0.6327829834    -2.9163644245     0.8987878988
    9      O      -1.6436138336    -1.8945635187     1.2844964089
   10      C      -2.3025546877    -1.3240489932     0.1390685174
   11      C      -3.3963276700    -0.3398356436     0.6766789411
   12      C      -3.3793086168     1.1524564802     0.1329679314
   13      C      -2.4053880508     1.5136930102    -1.0521545721
   14      O      -2.5747849398     2.4581677483    -1.8523729255
   15      O       1.4370618048     1.2666809626     1.6717836527
   16      O      -1.2171447720     0.7119550227    -1.0218778158
   17      O      -2.1660366344    -1.7349667264    -1.0347515744
   18      C      -0.4075004593     0.9423170819    -2.2446519861
   19      C      -4.8632028315    -0.7957875094     0.2424500677
   20      C      -5.8825021820    -0.1778800944     1.2772896531
   21      C      -5.8530813471     1.3377142566     0.8538055339
   22      C      -4.8731421148     1.2945645504    -0.3836195573
   23      O      -5.1269822465    -0.0311655883    -0.9952959300
   24      H      -3.3051609514    -0.3332123344     1.7771664640
   25      H      -3.1655676035     1.8580832039     0.9579685417
   26      H      -4.9722540406    -1.8821105965     0.0576062269
   27      H      -6.8834473730    -0.6161985725     1.1371447215
   28      H      -5.5676003925    -0.3375174077     2.3208059223
   29      H      -6.8492808809     1.6916912074     0.5445695513
   30      H      -5.4771260185     1.9951526837     1.6540068132
   31      H      -5.0043614048     2.1023819257    -1.1298951937
   32      O       2.5703082986    -1.6228995260    -1.5478986293
   33      C       0.0547050953     1.7401017625     1.4246278677
   34      C       4.8049776443     1.3000419689    -0.0984216559
   35      C       6.1458587129     1.1005730396     0.7099200007
   36      C       6.2957551139    -0.4658020835     0.6441453113
   37      C       5.0750098955    -0.8578019275    -0.2809845329
   38      O       4.9214946542     0.3043296957    -1.1869387654
   39      H       3.8208764866     0.9617532052     1.8769750894
   40      H       3.7931739743    -1.3542059183     1.5177824100
   41      H      -0.3841709641     1.2655573807     0.5144592163
   42      H       4.6368059768     2.3119544847    -0.5149351210
   43      H       6.9808973391     1.6064728627     0.1991310577
   44      H       6.0764251932     1.4813816824     1.7413727223
   45      H       7.2468016246    -0.7633002699     0.1750436140
   46      H       6.2288502978    -0.9401435903     1.6364115974
   47      H       5.2053724389    -1.7864774543    -0.8694940012
   48      H       0.0272789477     2.8427332230     1.3047982090
   49      H      -0.5254891767     1.4582981237     2.3219587879
   50      H       0.5174591034     0.3503235845    -2.1173808341
   51      H      -0.1466228444     2.0124136233    -2.3619529487
   52      H      -0.9582920586     0.5965333741    -3.1423768152
   53      H      -1.1558987393    -3.8320666565     0.5423255915
   54      H      -0.0898973679    -3.1564503658     1.8352386062
   55      H       0.7527942559    -3.3525843353    -0.7686090183
   56      H      -0.0624244471    -1.7535010663    -0.9104259530
 ----------------------------------------------------------------

    8   -1510.2805336764      9.86E-09 Convergence criterion met
 Total energy in the final basis set = -1510.28053368
 Final energy is   -1510.28053367641
 **  OPTIMIZATION CONVERGED  **

                    Orbital Energies (a.u.)
 --------------------------------------------------------------

 Alpha MOs
 -- Occupied --
-18.947 -18.936 -18.930 -18.926 -18.892 -18.884 -18.884 -18.874
-18.873 -18.869 -10.108 -10.103 -10.096 -10.094 -10.078 -10.069
-10.064 -10.062 -10.060 -10.057 -10.056 -10.044 -10.042 -10.040
-10.036 -10.034 -10.024 -10.023 -10.019 -10.018  -1.020  -1.012
 -1.007  -1.004  -0.974  -0.967  -0.945  -0.938  -0.932  -0.930
 -0.767  -0.761  -0.729  -0.723  -0.715  -0.705  -0.698  -0.661
 -0.654  -0.620  -0.598  -0.583  -0.548  -0.544  -0.541  -0.536
 -0.516  -0.510  -0.480  -0.477  -0.458  -0.456  -0.450  -0.449
 -0.436  -0.429  -0.427  -0.422  -0.415  -0.410  -0.403  -0.397
 -0.393  -0.379  -0.372  -0.369  -0.360  -0.356  -0.355  -0.350
 -0.348  -0.342  -0.335  -0.334  -0.330  -0.328  -0.326  -0.314
 -0.309  -0.308  -0.304  -0.302  -0.296  -0.294  -0.276  -0.274
 -0.272  -0.259  -0.253  -0.250  -0.243  -0.238  -0.231  -0.189
 -0.180  -0.172  -0.166  -0.161  -0.154  -0.150  -0.148  -0.145
 -0.140

          Ground-State Mulliken Net Atomic Charges

     Atom                 Charge (a.u.)
  ----------------------------------------
      1 O                    -0.217525
      2 C                     0.205651
      3 C                    -0.080186
      4 C                    -0.077514
      5 C                     0.203897
      6 O                    -0.174869
      7 C                    -0.054805
      8 C                    -0.048145
      9 O                    -0.170398
     10 C                     0.214049
     11 C                    -0.081759
     12 C                    -0.078393
     13 C                     0.216412
     14 O                    -0.205482
     15 O                    -0.171373
     16 O                    -0.169710
     17 O                    -0.213803
     18 C                    -0.125899
     19 C                     0.026386
     20 C                    -0.143171
     21 C                    -0.144607
     22 C                     0.024439
     23 O                    -0.187537
     24 H                     0.085651
     25 H                     0.085379
     26 H                     0.084362
     27 H                     0.078978
     28 H                     0.074256
     29 H                     0.079506
     30 H                     0.073710
     31 H                     0.091680
     32 O                    -0.210083
     33 C                    -0.147854
     34 C                     0.024704
     35 C                    -0.142722
     36 C                    -0.145384
     37 C                     0.025673
     38 O                    -0.185457
     39 H                     0.085560
     40 H                     0.084899
     41 H                     0.105785
     42 H                     0.086354
     43 H                     0.077702
     44 H                     0.072740
     45 H                     0.077749
     46 H                     0.072491
     47 H                     0.085048
     48 H                     0.075944
     49 H                     0.080259
     50 H                     0.102887
     51 H                     0.102186
     52 H                     0.092272
     53 H                     0.085053
     54 H                     0.097775
     55 H                     0.089150
     56 H                     0.108090
  ----------------------------------------
  Sum of atomic charges =     0.000000

                    Cartesian Multipole Moments
 -----------------------------------------------------------------
    Charge (ESU x 10^10)
                 0.0000
    Dipole Moment (Debye)
         X      -0.2319      Y      -0.8341      Z       4.3935
       Tot       4.4780
    Quadrupole Moments (Debye-Ang)
        XX    -149.1305     XY      -1.6817     YY    -154.7148
        XZ      -1.0086     YZ       1.3220     ZZ    -167.2412

 Total job time:  68.11s(wall), 3245.34s(cpu)
        *  Thank you very much for using Q-Chem.  Have a nice day.  *
