 Q-Chem 5.0, Q-Chem, Inc., Pleasanton, CA (2017)
 Q-Chem 5.0.1 for Intel X86 EM64T Linux

User input:
--------------------------------------------------------------
$molecule
0  1
O 1.8184666495 1.8377924871 -0.6023437113
C 2.2222310001 1.3663310378 0.4821239284
C 3.6222976774 0.7562143926 0.8101847335
C 3.7286556126 -0.8077746859 0.5600539814
C 2.5874242295 -1.4585922387 -0.3087643459
O 1.525207326 -1.8525216701 0.5629498076
C 0.4008273284 -2.4656794378 -0.1985914349
C -0.6327829834 -2.9163644245 0.8987878988
O -1.6436138336 -1.8945635187 1.2844964089
C -2.3025546877 -1.3240489932 0.1390685174
C -3.39632767 -0.3398356436 0.6766789411
C -3.3793086168 1.1524564802 0.1329679314
C -2.4053880508 1.5136930102 -1.0521545721
O -2.5747849398 2.4581677483 -1.8523729255
O 1.4370618048 1.2666809626 1.6717836527
O -1.217144772 0.7119550227 -1.0218778158
O -2.1660366344 -1.7349667264 -1.0347515744
C -0.4075004593 0.9423170819 -2.2446519861
C -4.8632028315 -0.7957875094 0.2424500677
C -5.882502182 -0.1778800944 1.2772896531
C -5.8530813471 1.3377142566 0.8538055339
C -4.8731421148 1.2945645504 -0.3836195573
O -5.1269822465 -0.0311655883 -0.99529593
H -3.3051609514 -0.3332123344 1.777166464
H -3.1655676035 1.8580832039 0.9579685417
H -4.9722540406 -1.8821105965 0.0576062269
H -6.883447373 -0.6161985725 1.1371447215
H -5.5676003925 -0.3375174077 2.3208059223
H -6.8492808809 1.6916912074 0.5445695513
H -5.4771260185 1.9951526837 1.6540068132
H -5.0043614048 2.1023819257 -1.1298951937
O 2.5703082986 -1.622899526 -1.5478986293
C 0.0547050953 1.7401017625 1.4246278677
C 4.8049776443 1.3000419689 -0.0984216559
C 6.1458587129 1.1005730396 0.7099200007
C 6.2957551139 -0.4658020835 0.6441453113
C 5.0750098955 -0.8578019275 -0.2809845329
O 4.9214946542 0.3043296957 -1.1869387654
H 3.8208764866 0.9617532052 1.8769750894
H 3.7931739743 -1.3542059183 1.51778241
H -0.3841709641 1.2655573807 0.5144592163
H 4.6368059768 2.3119544847 -0.514935121
H 6.9808973391 1.6064728627 0.1991310577
H 6.0764251932 1.4813816824 1.7413727223
H 7.2468016246 -0.7633002699 0.175043614
H 6.2288502978 -0.9401435903 1.6364115974
H 5.2053724389 -1.7864774543 -0.8694940012
H 0.0272789477 2.842733223 1.304798209
H -0.5254891767 1.4582981237 2.3219587879
H 0.5174591034 0.3503235845 -2.1173808341
H -0.1466228444 2.0124136233 -2.3619529487
H -0.9582920586 0.5965333741 -3.1423768152
H -1.1558987393 -3.8320666565 0.5423255915
H -0.0898973679 -3.1564503658 1.8352386062
H 0.7527942559 -3.3525843353 -0.7686090183
H -0.0624244471 -1.7535010663 -0.910425953
$end

$rem
JOBTYPE                   OPT
METHOD                    B3LYP
DFT_D                     d3_op
BASIS                     STO-3G
GEOM_OPT_MAX_CYCLES       100
GEOM_OPT_TOL_GRADIENT     300
GEOM_OPT_TOL_DISPLACEMENT 1200
GEOM_OPT_TOL_ENERGY       100
SYMMETRY                  False
THRESH                    12
SCF_CONVERGENCE           8
MAX_SUB_FILE_NUM          128
MEM_STATIC                400
MEM_TOTAL                 4000
$end
--------------------------------------------------------------

   16   -1510.2806534471      6.26E-09 Convergence criterion met
 Total energy in the final basis set = -1510.28065345
   15   -1510.2758459320      5.33E-09 Convergence criterion met
 Total energy in the final basis set = -1510.27584593
   15   -1510.2822952485      1.79E-09 Convergence criterion met
 Total energy in the final basis set = -1510.28229525
   14   -1510.2854933309      5.19E-09 Convergence criterion met
 Total energy in the final basis set = -1510.28549333
   14   -1510.2569142893      6.96E-09 Convergence criterion met
 Total energy in the final basis set = -1510.25691429
   14   -1510.2761053328      9.47E-09 Convergence criterion met
 Total energy in the final basis set = -1510.27610533
   14   -1510.2857199973      6.00E-09 Convergence criterion met
 Total energy in the final basis set = -1510.28572000
   15   -1510.2884155454      1.84E-09 Convergence criterion met
   13   -1510.2978945154      5.20E-09 Convergence criterion met
 Total energy in the final basis set = -1510.29789452
   12   -1510.2979566090      6.71E-09 Convergence criterion met
 Total energy in the final basis set = -1510.29795661
   12   -1510.2979537388      4.80E-09 Convergence criterion met
 Total energy in the final basis set = -1510.29795374
   12   -1510.2979745941      3.79E-09 Convergence criterion met
 Total energy in the final basis set = -1510.29797459
   10   -1510.2979798793      8.02E-09 Convergence criterion met
 Total energy in the final basis set = -1510.29797988
   11   -1510.2979810979      2.87E-09 Convergence criterion met
 Total energy in the final basis set = -1510.29798110

             Standard Nuclear Orientation (Angstroms)
    I     Atom           X                Y                Z
 ----------------------------------------------------------------
    1      O       1.9516264339     2.5067694858     0.9409970185
    2      C       2.2395543321     1.3258422589     1.2273624078
    3      C       3.6517620230     0.6401893529     1.2132344626
    4      C       3.6656281529    -0.7534288694     0.4550386557
    5      C       2.3278069875    -1.0446177739    -0.3043384167
    6      O       1.7324992037    -2.2426454336     0.2071361527
    7      C       0.5368479077    -2.6029174800    -0.5940534402
    8      C      -0.6525384732    -3.0380558957     0.3351473817
    9      O      -1.4282419890    -1.9318493028     0.9478711278
   10      C      -2.2454603422    -1.2805390780    -0.0359713382
   11      C      -3.2362111209    -0.3118579185     0.6916114516
   12      C      -3.4691235940     1.0509662894    -0.0838323596
   13      C      -2.5802143133     1.2213630747    -1.3668720522
   14      O      -2.9609473599     1.3036435848    -2.5527437795
   15      O       1.3104467937     0.3356834908     1.6665370025
   16      O      -1.2148208724     1.3143687239    -0.9458690487
   17      O      -2.1855661592    -1.5099583363    -1.2637635121
   18      C      -0.2897234839     1.4685816924    -2.0934413250
   19      C      -4.7108816633    -0.9162646154     0.6581849763
   20      C      -5.6131116436    -0.0929966818     1.6613805649
   21      C      -5.8486264588     1.2316100363     0.8440426974
   22      C      -5.0048946584     0.9367926492    -0.4566323612
   23      O      -5.2048373527    -0.5153602158    -0.6758246010
   24      H      -2.8885144146    -0.1485396881     1.7255244290
   25      H      -3.2753216531     1.9094753275     0.5847367874
   26      H      -4.7588279836    -2.0163500863     0.7770583119
   27      H      -6.5581819491    -0.6257881251     1.8528766970
   28      H      -5.1061081663     0.0834155459     2.6236477500
   29      H      -6.9125972390     1.3665582253     0.5925611998
   30      H      -5.4928046063     2.1286845400     1.3750192017
   31      H      -5.2910852658     1.5051154242    -1.3627222211
   32      O       1.8671686842    -0.3887924759    -1.2668467731
   33      C      -0.0685779902     0.8764381590     1.7210317276
   34      C       4.7216246838     1.4611985930     0.3826521348
   35      C       6.1567757113     0.9804750585     0.8274967605
   36      C       6.2091934732    -0.4484990630     0.1690956817
   37      C       4.8275282178    -0.4886414821    -0.5972965977
   38      O       4.5943494181     0.9192278775    -0.9912738755
   39      H       3.9761962340     0.5066135072     2.2617165480
   40      H       3.8823849693    -1.5947746866     1.1356915993
   41      H      -0.4702858682     1.0916495331     0.6993321826
   42      H       4.5492637471     2.5551760709     0.3857440358
   43      H       6.9312289193     1.6439024558     0.4106930477
   44      H       6.2680126304     0.9505563197     1.9232437337
   45      H       7.0464538395    -0.5378842445    -0.5411428653
   46      H       6.2908680636    -1.2563962581     0.9139248859
   47      H       4.8000626474    -1.1486536696    -1.4858912937
   48      H      -0.1144464670     1.7944266831     2.3401003318
   49      H      -0.6685462508     0.0753725615     2.1891996810
   50      H       0.5881110037     0.8160202508    -1.8914116229
   51      H       0.0326490296     2.5264835583    -2.1661282291
   52      H      -0.8021388936     1.1763109727    -3.0303104041
   53      H      -1.3282732104    -3.6869847453    -0.2639966997
   54      H      -0.2564965732    -3.6216511975     1.1913785973
   55      H       0.7996008590    -3.4675756189    -1.2419822007
   56      H       0.2545610482    -1.7468461675    -1.2430726362
 ----------------------------------------------------------------

    9   -1510.2979813551      9.06E-09 Convergence criterion met
 Total energy in the final basis set = -1510.29798136
 Final energy is   -1510.29798135507
 **  OPTIMIZATION CONVERGED  **

                    Orbital Energies (a.u.)
 --------------------------------------------------------------

 Alpha MOs
 -- Occupied --
-18.940 -18.937 -18.931 -18.927 -18.890 -18.887 -18.880 -18.878
-18.875 -18.872 -10.106 -10.104 -10.099 -10.095 -10.080 -10.070
-10.064 -10.061 -10.059 -10.057 -10.041 -10.039 -10.038 -10.037
-10.037 -10.036 -10.023 -10.021 -10.021 -10.019  -1.019  -1.014
 -1.006  -1.003  -0.972  -0.970  -0.943  -0.938  -0.933  -0.931
 -0.766  -0.763  -0.730  -0.724  -0.715  -0.706  -0.699  -0.652
 -0.650  -0.621  -0.598  -0.581  -0.548  -0.544  -0.538  -0.537
 -0.512  -0.511  -0.481  -0.475  -0.460  -0.457  -0.455  -0.454
 -0.435  -0.430  -0.427  -0.421  -0.411  -0.408  -0.401  -0.400
 -0.392  -0.379  -0.371  -0.369  -0.363  -0.358  -0.352  -0.348
 -0.346  -0.341  -0.334  -0.333  -0.330  -0.328  -0.323  -0.312
 -0.310  -0.306  -0.304  -0.299  -0.293  -0.286  -0.285  -0.275
 -0.271  -0.257  -0.253  -0.250  -0.236  -0.235  -0.234  -0.189
 -0.174  -0.171  -0.170  -0.161  -0.159  -0.150  -0.149  -0.146
 -0.143

          Ground-State Mulliken Net Atomic Charges

     Atom                 Charge (a.u.)
  ----------------------------------------
      1 O                    -0.210970
      2 C                     0.210456
      3 C                    -0.078697
      4 C                    -0.077072
      5 C                     0.221333
      6 O                    -0.169170
      7 C                    -0.056758
      8 C                    -0.047914
      9 O                    -0.170906
     10 C                     0.209736
     11 C                    -0.078739
     12 C                    -0.079705
     13 C                     0.218830
     14 O                    -0.205465
     15 O                    -0.175742
     16 O                    -0.179230
     17 O                    -0.210104
     18 C                    -0.147586
     19 C                     0.025978
     20 C                    -0.143896
     21 C                    -0.143854
     22 C                     0.025173
     23 O                    -0.186001
     24 H                     0.085604
     25 H                     0.085136
     26 H                     0.081846
     27 H                     0.078628
     28 H                     0.073632
     29 H                     0.078883
     30 H                     0.073686
     31 H                     0.091638
     32 O                    -0.220310
     33 C                    -0.151203
     34 C                     0.023665
     35 C                    -0.143286
     36 C                    -0.144422
     37 C                     0.025682
     38 O                    -0.186156
     39 H                     0.084198
     40 H                     0.087035
     41 H                     0.111750
     42 H                     0.090827
     43 H                     0.078359
     44 H                     0.073064
     45 H                     0.078234
     46 H                     0.073352
     47 H                     0.082662
     48 H                     0.078093
     49 H                     0.084496
     50 H                     0.115886
     51 H                     0.082807
     52 H                     0.095893
     53 H                     0.090325
     54 H                     0.094969
     55 H                     0.084913
     56 H                     0.110417
  ----------------------------------------
  Sum of atomic charges =     0.000000

                    Cartesian Multipole Moments
 -----------------------------------------------------------------
    Charge (ESU x 10^10)
                 0.0000
    Dipole Moment (Debye)
         X       0.9686      Y      -1.8157      Z       3.8265
       Tot       4.3447
    Quadrupole Moments (Debye-Ang)
        XX    -148.0210     XY      -7.6926     YY    -155.6209
        XZ      -7.2797     YZ       2.2653     ZZ    -165.2111

 Total job time:  146.73s(wall), 7002.88s(cpu)
        *  Thank you very much for using Q-Chem.  Have a nice day.  *
