 Q-Chem 5.0, Q-Chem, Inc., Pleasanton, CA (2017)
 Q-Chem 5.0.1 for Intel X86 EM64T Linux

User input:
--------------------------------------------------------------
$molecule
0  1
O -3.94934 -3.66094 2.70899
C -3.26408 -4.56952 2.26188
C -3.36658 -6.02376 2.66595
C -2.54505 -6.47384 3.88512
C -1.85201 -5.38309 4.67128
O -0.59328 -5.18497 4.17956
C 0.12379 -4.15384 4.86647
C 1.56201 -4.08893 4.36306
O 1.72921 -2.9494 3.50492
C 1.43114 -1.7501 4.06346
C 1.8726 -0.58049 3.21624
C 0.96474 0.65553 3.29567
C -0.01914 0.67978 4.4481
O -0.36255 1.67717 5.06604
O -2.18198 -4.25316 1.5034
O -0.87148 -0.38179 4.49602
O 1.29215 -1.61198 5.27622
C -1.94693 -0.49472 5.3529
C 3.21539 0.02909 3.67059
C 3.87213 0.74769 2.49389
C 2.94136 1.93293 2.33428
C 2.03413 1.73503 3.55597
O 2.86101 1.10505 4.5037
H 1.99201 -0.94319 2.16882
H 0.38054 0.81177 2.36242
H 3.91363 -0.71898 4.10607
H 4.85879 1.11562 2.85713
H 4.02685 0.14036 1.57627
H 3.54312 2.86453 2.42243
H 2.34667 1.94703 1.39515
H 1.59402 2.70845 3.86469
O -2.27435 -4.89584 5.71552
C -1.82909 -2.96759 1.14905
C -4.79343 -6.35921 3.15292
C -5.0531 -7.86028 3.03187
C -4.19616 -8.38213 4.16242
C -3.68315 -7.06331 4.74987
O -4.74215 -6.16446 4.54193
H -3.17253 -6.62645 1.75042
H -1.80258 -7.27405 3.66575
H -1.62376 -2.36282 2.05883
H -5.58437 -5.79625 2.60949
H -6.12249 -8.0364 3.28812
H -4.83833 -8.29417 2.03163
H -4.85758 -8.89477 4.89618
H -3.36888 -9.06009 3.86031
H -3.37644 -7.21955 5.80804
H -2.64327 -2.49584 0.55843
H -0.90956 -3.00041 0.52952
H -2.45516 -1.46415 5.17131
H -2.67146 0.32739 5.17074
H -1.59865 -0.46449 6.40729
H 2.24709 -3.94629 5.23087
H 1.87443 -5.03394 3.86987
H 0.20424 -4.48531 5.92828
H -0.44112 -3.19863 4.86829
$end

$opt
CONSTRAINT
tors           1           2           3           4     -87.043
tors           3           4           5           6     -90.887
tors           4           5           6           7    +179.402
tors           5           6           7           8    +174.111
tors           6           7           8           9    +104.815
tors           7           8           9          10     +57.818
tors           8           9          10          11    +168.978
tors           9          10          11          12    +146.796
tors          11          12          13          14    +144.383
ENDCONSTRAINT
$end

$rem
JOBTYPE                   OPT
METHOD                    B3LYP
DFT_D                     d3_op
BASIS                     STO-3G
GEOM_OPT_MAX_CYCLES       100
GEOM_OPT_TOL_GRADIENT     300
GEOM_OPT_TOL_DISPLACEMENT 1200
GEOM_OPT_TOL_ENERGY       100
SYMMETRY                  False
THRESH                    12
SCF_CONVERGENCE           8
MAX_SUB_FILE_NUM          128
MEM_STATIC                400
MEM_TOTAL                 4000
$end
--------------------------------------------------------------

   15   -1510.1349694337      7.31E-09 Convergence criterion met
 Total energy in the final basis set = -1510.13496943
   14   -1510.2056761651      2.05E-09 Convergence criterion met
 Total energy in the final basis set = -1510.20567617
   14   -1510.2446257289      7.06E-09 Convergence criterion met
 Total energy in the final basis set = -1510.24462573
   14   -1510.2635688842      8.26E-09 Convergence criterion met
 Total energy in the final basis set = -1510.26356888
    2   -1510.2635688842      1.84E-09 Convergence criterion met
 Total energy in the final basis set = -1510.26356888
   14   -1510.2718495800      5.90E-09 Convergence criterion met
 Total energy in the final basis set = -1510.27184958
    2   -1510.2718495799      1.23E-09 Convergence criterion met
 Total energy in the final basis set = -1510.27184958
   14   -1510.2763789913      3.75E-09 Convergence criterion met
   12   -1510.2848014333      3.05E-09 Convergence criterion met
 Total energy in the final basis set = -1510.28480143
   12   -1510.2849221081      3.73E-09 Convergence criterion met
 Total energy in the final basis set = -1510.28492211
   11   -1510.2850276323      8.58E-09 Convergence criterion met
 Total energy in the final basis set = -1510.28502763
   11   -1510.2850930299      4.93E-09 Convergence criterion met
 Total energy in the final basis set = -1510.28509303
   10   -1510.2851172297      8.49E-09 Convergence criterion met
 Total energy in the final basis set = -1510.28511723
   10   -1510.2851209860      8.44E-09 Convergence criterion met
 Total energy in the final basis set = -1510.28512099

             Standard Nuclear Orientation (Angstroms)
    I     Atom           X                Y                Z
 ----------------------------------------------------------------
    1      O       2.1790724716    -1.8559500627    -0.2844214194
    2      C       2.6698426235    -0.9469164171    -0.9940971388
    3      C       4.0669054788    -0.2462185419    -0.8331372518
    4      C       3.9951200820     0.9930809134     0.1701464174
    5      C       2.6326392914     0.9646285205     0.9430720885
    6      O       1.6891321106     1.7324393602     0.1909236926
    7      C       0.3771720197     1.7204090358     0.8810640987
    8      C      -0.5734769626     2.7004593546     0.0941846041
    9      O      -1.5663981144     1.9656910998    -0.7306211799
   10      C      -2.3691337311     1.0866486592     0.0634221921
   11      C      -3.5544077315     0.5759029376    -0.8188596747
   12      C      -3.9650628358    -0.9027923646    -0.4368511378
   13      C      -2.9319880002    -1.6817065583     0.4603718007
   14      O      -3.2160336573    -2.5019902968     1.3586900247
   15      O       1.9979713720    -0.3298557739    -2.0930145153
   16      O      -1.5952706445    -1.4378048385    -0.0082217400
   17      O      -2.2367261641     0.9124392780     1.2953079676
   18      C      -0.6210925247    -2.1730828466     0.8389301078
   19      C      -4.8752806149     1.3520053904    -0.3870490182
   20      C      -6.0447518109     0.9665966876    -1.3797623182
   21      C      -6.4465321664    -0.4591494768    -0.8453397852
   22      C      -5.3610247520    -0.6715813944     0.2785101204
   23      O      -5.2396086152     0.6784135997     0.8795676958
   24      H      -3.3138825851     0.6978584401    -1.8888742714
   25      H      -4.1014998761    -1.5040644579    -1.3558955135
   26      H      -4.7355300939     2.4384579174    -0.2236652565
   27      H      -6.8769112025     1.6832430888    -1.2954697660
   28      H      -5.7020214687     0.9445380521    -2.4266811844
   29      H      -7.4566340773    -0.4519023093    -0.4052287837
   30      H      -6.4055178729    -1.2357801683    -1.6258321624
   31      H      -5.6009390432    -1.4261846504     1.0529556723
   32      O       2.3744281698     0.3945276709     2.0240642152
   33      C       0.6364112776    -0.8914807528    -2.2738424034
   34      C       5.1672545427    -1.1436540029    -0.1277064954
   35      C       6.5760121990    -0.5222022224    -0.4761233411
   36      C       6.5547991298     0.7799261628     0.4087101131
   37      C       5.1736208102     0.6229713621     1.1606601006
   38      O       5.0125988708    -0.8425861876     1.3137694538
   39      H       4.3933381224     0.0855513907    -1.8348908543
   40      H       4.1204790206     1.9580264687    -0.3506760405
   41      H      -0.0504289617    -0.6172319793    -1.4446689500
   42      H       5.0622326968    -2.2308626422    -0.3088464830
   43      H       7.3829150464    -1.2062807373    -0.1681319917
   44      H       6.6853559002    -0.3068869021    -1.5510606078
   45      H       7.3875922858     0.7955161907     1.1293869150
   46      H       6.5925758306     1.7012859995    -0.1944701758
   47      H       5.1090991966     1.1200801263     2.1476910304
   48      H       0.6616016174    -1.9968208386    -2.3563635132
   49      H       0.2575762750    -0.4587309259    -3.2177445978
   50      H       0.3798107501    -2.0541193137     0.3651133139
   51      H      -0.8838554217    -3.2473461928     0.9049889233
   52      H      -0.6015508753    -1.7543943998     1.8654041767
   53      H      -1.0937421248     3.3752938357     0.8080944477
   54      H       0.0189381079     3.3068440684    -0.6202944635
   55      H       0.4902783230     2.0497323995     1.9360798694
   56      H      -0.0425549524     0.6943079514     0.8977460801
 ----------------------------------------------------------------

    9   -1510.2851216266      3.97E-09 Convergence criterion met
 Total energy in the final basis set = -1510.28512163
 Final energy is   -1510.28512162659
 **  OPTIMIZATION CONVERGED  **

                    Orbital Energies (a.u.)
 --------------------------------------------------------------

 Alpha MOs
 -- Occupied --
-18.942 -18.935 -18.931 -18.925 -18.888 -18.887 -18.885 -18.876
-18.872 -18.870 -10.107 -10.100 -10.097 -10.095 -10.079 -10.069
-10.062 -10.062 -10.061 -10.060 -10.057 -10.041 -10.039 -10.039
-10.038 -10.035 -10.022 -10.022 -10.021 -10.020  -1.019  -1.015
 -1.010  -1.002  -0.970  -0.970  -0.942  -0.939  -0.934  -0.928
 -0.766  -0.763  -0.729  -0.724  -0.713  -0.706  -0.697  -0.665
 -0.647  -0.619  -0.597  -0.584  -0.551  -0.545  -0.539  -0.537
 -0.513  -0.509  -0.481  -0.473  -0.463  -0.459  -0.456  -0.450
 -0.435  -0.432  -0.424  -0.416  -0.415  -0.408  -0.401  -0.398
 -0.394  -0.381  -0.374  -0.366  -0.362  -0.358  -0.354  -0.353
 -0.351  -0.339  -0.337  -0.332  -0.331  -0.328  -0.324  -0.312
 -0.311  -0.308  -0.304  -0.296  -0.292  -0.286  -0.282  -0.278
 -0.271  -0.260  -0.253  -0.248  -0.245  -0.234  -0.234  -0.184
 -0.181  -0.175  -0.168  -0.162  -0.154  -0.151  -0.148  -0.143
 -0.142

          Ground-State Mulliken Net Atomic Charges

     Atom                 Charge (a.u.)
  ----------------------------------------
      1 O                    -0.211205
      2 C                     0.210407
      3 C                    -0.077964
      4 C                    -0.077852
      5 C                     0.203619
      6 O                    -0.177215
      7 C                    -0.051942
      8 C                    -0.048245
      9 O                    -0.174429
     10 C                     0.212987
     11 C                    -0.078703
     12 C                    -0.079374
     13 C                     0.213512
     14 O                    -0.210302
     15 O                    -0.165402
     16 O                    -0.182724
     17 O                    -0.214261
     18 C                    -0.146170
     19 C                     0.025471
     20 C                    -0.144404
     21 C                    -0.142843
     22 C                     0.024576
     23 O                    -0.186879
     24 H                     0.085493
     25 H                     0.082404
     26 H                     0.081746
     27 H                     0.078291
     28 H                     0.073284
     29 H                     0.078601
     30 H                     0.073247
     31 H                     0.092525
     32 O                    -0.204590
     33 C                    -0.133760
     34 C                     0.025048
     35 C                    -0.142825
     36 C                    -0.144772
     37 C                     0.026007
     38 O                    -0.182983
     39 H                     0.086004
     40 H                     0.087200
     41 H                     0.099606
     42 H                     0.086771
     43 H                     0.078717
     44 H                     0.073153
     45 H                     0.078744
     46 H                     0.073204
     47 H                     0.086568
     48 H                     0.088489
     49 H                     0.090385
     50 H                     0.109106
     51 H                     0.085438
     52 H                     0.087620
     53 H                     0.088219
     54 H                     0.098931
     55 H                     0.092544
     56 H                     0.100924
  ----------------------------------------
  Sum of atomic charges =    -0.000000

                    Cartesian Multipole Moments
 -----------------------------------------------------------------
    Charge (ESU x 10^10)
                -0.0000
    Dipole Moment (Debye)
         X       0.9584      Y       2.3131      Z      -4.6260
       Tot       5.2602
    Quadrupole Moments (Debye-Ang)
        XX    -144.5845     XY       3.4600     YY    -156.8295
        XZ       5.3755     YZ       7.3686     ZZ    -165.7900

 Total job time:  63.46s(wall), 3024.07s(cpu)
        *  Thank you very much for using Q-Chem.  Have a nice day.  *
