 Q-Chem 5.0, Q-Chem, Inc., Pleasanton, CA (2017)
 Q-Chem 5.0.1 for Intel X86 EM64T Linux

User input:
--------------------------------------------------------------
$molecule
0  1
O 2.1790724716 -1.8559500627 -0.2844214194
C 2.6698426235 -0.9469164171 -0.9940971388
C 4.0669054788 -0.2462185419 -0.8331372518
C 3.995120082 0.9930809134 0.1701464174
C 2.6326392914 0.9646285205 0.9430720885
O 1.6891321106 1.7324393602 0.1909236926
C 0.3771720197 1.7204090358 0.8810640987
C -0.5734769626 2.7004593546 0.0941846041
O -1.5663981144 1.9656910998 -0.7306211799
C -2.3691337311 1.0866486592 0.0634221921
C -3.5544077315 0.5759029376 -0.8188596747
C -3.9650628358 -0.9027923646 -0.4368511378
C -2.9319880002 -1.6817065583 0.4603718007
O -3.2160336573 -2.5019902968 1.3586900247
O 1.997971372 -0.3298557739 -2.0930145153
O -1.5952706445 -1.4378048385 -0.00822174
O -2.2367261641 0.912439278 1.2953079676
C -0.6210925247 -2.1730828466 0.8389301078
C -4.8752806149 1.3520053904 -0.3870490182
C -6.0447518109 0.9665966876 -1.3797623182
C -6.4465321664 -0.4591494768 -0.8453397852
C -5.361024752 -0.6715813944 0.2785101204
O -5.2396086152 0.6784135997 0.8795676958
H -3.3138825851 0.6978584401 -1.8888742714
H -4.1014998761 -1.5040644579 -1.3558955135
H -4.7355300939 2.4384579174 -0.2236652565
H -6.8769112025 1.6832430888 -1.295469766
H -5.7020214687 0.9445380521 -2.4266811844
H -7.4566340773 -0.4519023093 -0.4052287837
H -6.4055178729 -1.2357801683 -1.6258321624
H -5.6009390432 -1.4261846504 1.0529556723
O 2.3744281698 0.3945276709 2.0240642152
C 0.6364112776 -0.8914807528 -2.2738424034
C 5.1672545427 -1.1436540029 -0.1277064954
C 6.576012199 -0.5222022224 -0.4761233411
C 6.5547991298 0.7799261628 0.4087101131
C 5.1736208102 0.6229713621 1.1606601006
O 5.0125988708 -0.8425861876 1.3137694538
H 4.3933381224 0.0855513907 -1.8348908543
H 4.1204790206 1.9580264687 -0.3506760405
H -0.0504289617 -0.6172319793 -1.44466895
H 5.0622326968 -2.2308626422 -0.308846483
H 7.3829150464 -1.2062807373 -0.1681319917
H 6.6853559002 -0.3068869021 -1.5510606078
H 7.3875922858 0.7955161907 1.129386915
H 6.5925758306 1.7012859995 -0.1944701758
H 5.1090991966 1.1200801263 2.1476910304
H 0.6616016174 -1.9968208386 -2.3563635132
H 0.257576275 -0.4587309259 -3.2177445978
H 0.3798107501 -2.0541193137 0.3651133139
H -0.8838554217 -3.2473461928 0.9049889233
H -0.6015508753 -1.7543943998 1.8654041767
H -1.0937421248 3.3752938357 0.8080944477
H 0.0189381079 3.3068440684 -0.6202944635
H 0.490278323 2.0497323995 1.9360798694
H -0.0425549524 0.6943079514 0.8977460801
$end

$rem
JOBTYPE                   OPT
METHOD                    B3LYP
DFT_D                     d3_op
BASIS                     STO-3G
GEOM_OPT_MAX_CYCLES       100
GEOM_OPT_TOL_GRADIENT     300
GEOM_OPT_TOL_DISPLACEMENT 1200
GEOM_OPT_TOL_ENERGY       100
SYMMETRY                  False
THRESH                    12
SCF_CONVERGENCE           8
MAX_SUB_FILE_NUM          128
MEM_STATIC                400
MEM_TOTAL                 4000
$end
--------------------------------------------------------------

   16   -1510.2850541110      7.46E-09 Convergence criterion met
 Total energy in the final basis set = -1510.28505411
   15   -1510.2736161988      3.31E-09 Convergence criterion met
 Total energy in the final basis set = -1510.27361620
   15   -1510.2827644414      3.26E-09 Convergence criterion met
 Total energy in the final basis set = -1510.28276444
   15   -1510.2859174214      3.02E-09 Convergence criterion met
 Total energy in the final basis set = -1510.28591742
   14   -1510.2891372108      4.88E-09 Convergence criterion met
 Total energy in the final basis set = -1510.28913721
   14   -1510.2904853728      6.81E-09 Convergence criterion met
 Total energy in the final basis set = -1510.29048537
   15   -1510.2914714234      2.08E-09 Convergence criterion met
 Total energy in the final basis set = -1510.29147142
   14   -1510.2916004454      2.53E-09 Convergence criterion met
   11   -1510.2990545430      7.92E-09 Convergence criterion met
 Total energy in the final basis set = -1510.29905454
   11   -1510.2990626496      5.50E-09 Convergence criterion met
 Total energy in the final basis set = -1510.29906265
   10   -1510.2990687236      7.69E-09 Convergence criterion met
 Total energy in the final basis set = -1510.29906872
    9   -1510.2990753972      7.13E-09 Convergence criterion met
 Total energy in the final basis set = -1510.29907540
    9   -1510.2990789545      3.87E-09 Convergence criterion met
 Total energy in the final basis set = -1510.29907895
    9   -1510.2990813746      5.24E-09 Convergence criterion met
 Total energy in the final basis set = -1510.29908137

             Standard Nuclear Orientation (Angstroms)
    I     Atom           X                Y                Z
 ----------------------------------------------------------------
    1      O      -1.6938337211    -1.0506691077    -0.7084958230
    2      C      -2.0117292517    -1.0063694508     0.5037131694
    3      C      -3.1963827465    -0.1818445493     1.1112536629
    4      C      -3.6575021095     1.0017395969     0.1688571267
    5      C      -2.7236336281     1.2366395865    -1.0745150344
    6      O      -1.4788015220     1.7560455445    -0.5799345909
    7      C      -0.5372402169     1.9778053266    -1.7008637432
    8      C       0.6103525995     2.9057806886    -1.1773045693
    9      O       1.3486447863     2.2888166934    -0.0470806069
   10      C       2.3090749327     1.3488879291    -0.5375447056
   11      C       3.0407801249     0.6949658817     0.6812881639
   12      C       3.4098028178    -0.8254436349     0.4244114558
   13      C       2.8727927698    -1.3753176667    -0.9447473104
   14      O       3.5236811502    -1.8405775629    -1.9010358168
   15      O      -1.3912164315    -1.7449596750     1.5467702598
   16      O       1.4377476521    -1.3075625180    -0.8977953022
   17      O       2.5216958342     1.1264024042    -1.7508733365
   18      C       0.8307004232    -1.7090201388    -2.1877135572
   19      C       4.4952285059     1.3158017786     0.8630123730
   20      C       5.0645108636     0.8534314690     2.2624127307
   21      C       5.4547765123    -0.6403829369     1.9569456837
   22      C       4.9921447258    -0.7717625979     0.4536774629
   23      O       5.3049442296     0.5602107785    -0.1178731383
   24      H       2.4190271020     0.8278427222     1.5838178729
   25      H       3.0073796674    -1.4622003974     1.2334500869
   26      H       4.5576775085     2.4036152029     0.6653320358
   27      H       5.9459793383     1.4546694359     2.5362927002
   28      H       4.3138071720     0.9426742037     3.0640296175
   29      H       6.5421081281    -0.7969713147     2.0390783539
   30      H       4.9426012911    -1.3592180926     2.6163405977
   31      H       5.4804776417    -1.5697496031    -0.1387000726
   32      O      -3.0174761575     1.1283934380    -2.2833334744
   33      C      -0.3154402658    -2.6188750656     1.0121410246
   34      C      -4.5142869724    -1.0743177649     1.1202588171
   35      C      -5.6268190648    -0.3308578736     1.9611386057
   36      C      -6.0889377642     0.7796424689     0.9452553777
   37      C      -5.1043249595     0.5123035347    -0.2580343880
   38      O      -4.9878415345    -0.9656013758    -0.2770961318
   39      H      -2.9224952033     0.1613537658     2.1242358172
   40      H      -3.7034225524     1.9479402089     0.7377969541
   41      H       0.4105503340    -2.0518235351     0.3755860502
   42      H      -4.3452460166    -2.1336842550     1.3955205163
   43      H      -6.4485290037    -1.0209000674     2.2101166762
   44      H      -5.2232509856     0.0901363241     2.8959244728
   45      H      -7.1329485477     0.6257380664     0.6288148854
   46      H      -5.9889011962     1.7990135556     1.3511036605
   47      H      -5.4328395483     0.8847590522    -1.2479269615
   48      H      -0.7483654772    -3.4473384930     0.4152318477
   49      H       0.1912817457    -3.0407559500     1.8990028824
   50      H      -0.2606681974    -1.6230642218    -2.0069257728
   51      H       1.1039673612    -2.7481228066    -2.4608133966
   52      H       1.1511330720    -1.0270756513    -3.0005558340
   53      H       1.3000318692     3.1302830741    -2.0195578834
   54      H       0.1854659027     3.8483054070    -0.7774993371
   55      H      -1.0527018942     2.4575458636    -2.5618876841
   56      H      -0.1149477894     1.0097980798    -2.0474363591
 ----------------------------------------------------------------

    9   -1510.2990828970      2.24E-09 Convergence criterion met
 Total energy in the final basis set = -1510.29908290
 Final energy is   -1510.29908289696
 **  OPTIMIZATION CONVERGED  **

                    Orbital Energies (a.u.)
 --------------------------------------------------------------

 Alpha MOs
 -- Occupied --
-18.939 -18.938 -18.935 -18.921 -18.890 -18.887 -18.881 -18.880
-18.877 -18.866 -10.104 -10.103 -10.102 -10.093 -10.076 -10.068
-10.063 -10.061 -10.060 -10.056 -10.050 -10.046 -10.041 -10.039
-10.038 -10.033 -10.023 -10.021 -10.021 -10.019  -1.018  -1.014
 -1.009  -1.001  -0.972  -0.970  -0.941  -0.939  -0.938  -0.928
 -0.766  -0.762  -0.728  -0.723  -0.715  -0.706  -0.698  -0.659
 -0.656  -0.616  -0.597  -0.581  -0.548  -0.545  -0.539  -0.536
 -0.513  -0.509  -0.482  -0.478  -0.459  -0.455  -0.453  -0.452
 -0.437  -0.434  -0.431  -0.420  -0.411  -0.408  -0.405  -0.397
 -0.392  -0.380  -0.375  -0.365  -0.361  -0.357  -0.351  -0.348
 -0.345  -0.342  -0.335  -0.332  -0.332  -0.328  -0.325  -0.313
 -0.311  -0.307  -0.304  -0.298  -0.295  -0.286  -0.280  -0.277
 -0.271  -0.263  -0.255  -0.244  -0.241  -0.236  -0.234  -0.186
 -0.180  -0.172  -0.167  -0.159  -0.157  -0.152  -0.146  -0.146
 -0.143

          Ground-State Mulliken Net Atomic Charges

     Atom                 Charge (a.u.)
  ----------------------------------------
      1 O                    -0.214791
      2 C                     0.219396
      3 C                    -0.077533
      4 C                    -0.080439
      5 C                     0.215855
      6 O                    -0.179807
      7 C                    -0.050633
      8 C                    -0.048248
      9 O                    -0.167881
     10 C                     0.212192
     11 C                    -0.078478
     12 C                    -0.079888
     13 C                     0.219090
     14 O                    -0.202438
     15 O                    -0.169598
     16 O                    -0.178709
     17 O                    -0.214859
     18 C                    -0.139679
     19 C                     0.025691
     20 C                    -0.143881
     21 C                    -0.143705
     22 C                     0.024618
     23 O                    -0.186571
     24 H                     0.088127
     25 H                     0.083406
     26 H                     0.083104
     27 H                     0.078597
     28 H                     0.074071
     29 H                     0.078844
     30 H                     0.073026
     31 H                     0.090877
     32 O                    -0.214927
     33 C                    -0.149427
     34 C                     0.025036
     35 C                    -0.144025
     36 C                    -0.143583
     37 C                     0.024461
     38 O                    -0.188979
     39 H                     0.086956
     40 H                     0.083300
     41 H                     0.113958
     42 H                     0.082993
     43 H                     0.078057
     44 H                     0.073636
     45 H                     0.078088
     46 H                     0.072984
     47 H                     0.090042
     48 H                     0.078638
     49 H                     0.080499
     50 H                     0.114834
     51 H                     0.084725
     52 H                     0.090303
     53 H                     0.095400
     54 H                     0.091693
     55 H                     0.092277
     56 H                     0.093305
  ----------------------------------------
  Sum of atomic charges =    -0.000000

                    Cartesian Multipole Moments
 -----------------------------------------------------------------
    Charge (ESU x 10^10)
                -0.0000
    Dipole Moment (Debye)
         X      -0.6333      Y       0.9714      Z       4.2514
       Tot       4.4067
    Quadrupole Moments (Debye-Ang)
        XX    -164.1011     XY      -4.2431     YY    -150.8315
        XZ       3.0760     YZ      -3.7774     ZZ    -163.4575

 Total job time:  189.02s(wall), 9021.31s(cpu)
        *  Thank you very much for using Q-Chem.  Have a nice day.  *
