 Q-Chem 5.0, Q-Chem, Inc., Pleasanton, CA (2017)
 Q-Chem 5.0.1 for Intel X86 EM64T Linux

User input:
--------------------------------------------------------------
$molecule
0  1
O -3.94934 -3.66094 2.70899
C -3.26408 -4.56952 2.26188
C -3.36658 -6.02376 2.66595
C -2.31154 -6.5557 3.64971
C -1.37879 -5.53149 4.25721
O -0.31136 -5.3276 3.4299
C 0.58752 -4.32129 3.90802
C 1.84322 -4.2843 3.04316
O 1.79459 -3.15441 2.15781
C 1.74943 -1.94135 2.76245
C 1.71952 -0.79493 1.77987
C 0.7407 0.33457 2.13259
C 0.21449 0.33313 3.55379
O -0.08675 1.32682 4.19909
O -2.22898 -4.26199 1.43673
O -0.40364 -0.81814 3.93729
O 2.03755 -1.77457 3.9441
C -1.13099 -0.97051 5.10223
C 3.04683 -0.01051 1.7269
C 3.16844 0.69546 0.37804
C 2.09649 1.75696 0.51972
C 1.68947 1.54081 1.98329
O 2.86153 1.07236 2.60398
H 1.52429 -1.213 0.76486
H -0.13947 0.36802 1.45369
H 3.94096 -0.64501 1.91338
H 4.1646 1.19384 0.36869
H 3.07799 0.04829 -0.52074
H 2.56944 2.75332 0.37358
H 1.22253 1.64335 -0.15788
H 1.25996 2.4778 2.40075
O -1.47367 -5.08135 5.39487
C -1.89911 -2.98143 1.04426
C -4.65659 -6.29147 3.4738
C -5.02764 -7.77216 3.39998
C -3.96509 -8.36945 4.29316
C -3.24729 -7.0974 4.7547
O -4.26745 -6.13399 4.81291
H -3.42435 -6.61013 1.72185
H -1.6945 -7.39197 3.2505
H -1.64591 -2.36328 1.93179
H -5.52034 -5.67526 3.13977
H -6.01696 -7.89579 3.89621
H -5.07666 -8.19077 2.37175
H -4.46738 -8.85717 5.15838
H -3.27675 -9.08949 3.80021
H -2.71041 -7.29785 5.70847
H -2.74528 -2.51943 0.49241
H -1.01388 -3.02172 0.37691
H -1.53095 -2.00333 5.15557
H -1.98774 -0.26351 5.11568
H -0.4798 -0.79075 5.98407
H 2.74173 -4.1613 3.69151
H 1.98602 -5.23762 2.49108
H 0.94358 -4.66778 4.90649
H 0.08781 -3.34764 4.06133
$end

$opt
CONSTRAINT
tors           1           2           3           4    -101.390
tors           3           4           5           6     -86.296
tors           4           5           6           7    +177.214
tors           5           6           7           8    +172.163
tors           6           7           8           9    +103.661
tors           7           8           9          10     +61.497
tors           8           9          10          11    +179.184
tors           9          10          11          12    +137.659
tors          11          12          13          14    +148.223
ENDCONSTRAINT
$end

$rem
JOBTYPE                   OPT
METHOD                    B3LYP
DFT_D                     d3_op
BASIS                     STO-3G
GEOM_OPT_MAX_CYCLES       100
GEOM_OPT_TOL_GRADIENT     300
GEOM_OPT_TOL_DISPLACEMENT 1200
GEOM_OPT_TOL_ENERGY       100
SYMMETRY                  False
THRESH                    12
SCF_CONVERGENCE           8
MAX_SUB_FILE_NUM          128
MEM_STATIC                400
MEM_TOTAL                 4000
$end
--------------------------------------------------------------

   15   -1510.1428258918      7.14E-09 Convergence criterion met
 Total energy in the final basis set = -1510.14282589
   14   -1510.2132611180      6.64E-09 Convergence criterion met
 Total energy in the final basis set = -1510.21326112
   14   -1510.2518562348      8.86E-09 Convergence criterion met
 Total energy in the final basis set = -1510.25185623
   14   -1510.2704139632      7.03E-09 Convergence criterion met
 Total energy in the final basis set = -1510.27041396
   14   -1510.2778969859      6.87E-09 Convergence criterion met
 Total energy in the final basis set = -1510.27789699
   13   -1510.2780818926      8.26E-09 Convergence criterion met
 Total energy in the final basis set = -1510.27808189
    2   -1510.2780818926      4.98E-09 Convergence criterion met
 Total energy in the final basis set = -1510.27808189
   14   -1510.2807565428      4.27E-09 Convergence criterion met
   12   -1510.2906424783      6.16E-09 Convergence criterion met
 Total energy in the final basis set = -1510.29064248
   11   -1510.2906923059      3.92E-09 Convergence criterion met
 Total energy in the final basis set = -1510.29069231
   11   -1510.2907091524      4.82E-09 Convergence criterion met
 Total energy in the final basis set = -1510.29070915
   10   -1510.2907176019      9.26E-09 Convergence criterion met
 Total energy in the final basis set = -1510.29071760
   10   -1510.2907192834      5.24E-09 Convergence criterion met
 Total energy in the final basis set = -1510.29071928
    9   -1510.2907207919      8.43E-09 Convergence criterion met
 Total energy in the final basis set = -1510.29072079

             Standard Nuclear Orientation (Angstroms)
    I     Atom           X                Y                Z
 ----------------------------------------------------------------
    1      O       2.0796811640    -2.0331332349    -0.3178082573
    2      C       2.4687570749    -1.0172758372    -0.9422628041
    3      C       3.8904137719    -0.3490719892    -0.8757716394
    4      C       3.9331922214     0.9553448867     0.0431624784
    5      C       2.5981406130     1.0979126052     0.8502872301
    6      O       1.6601559607     1.7946823311     0.0270435343
    7      C       0.3588219778     1.8912697463     0.7308275864
    8      C      -0.5744766088     2.8336455862    -0.1164365787
    9      O      -1.5781203772     2.0396976017    -0.8689454725
   10      C      -2.4221489574     1.3107558774     0.0289652102
   11      C      -3.4610207475     0.5195345895    -0.8290556926
   12      C      -3.6869858945    -0.9568007457    -0.3029584040
   13      C      -2.6676249790    -1.5089682692     0.7604207683
   14      O      -2.9450630956    -2.3265829859     1.6634560635
   15      O       1.6755287151    -0.2851021513    -1.8714828680
   16      O      -1.3253341832    -1.0810242315     0.4631853581
   17      O      -2.3805938336     1.4023444824     1.2750693565
   18      C      -0.3527023673    -1.7200776703     1.3903907198
   19      C      -4.9123925425     1.1259093930    -0.5829022944
   20      C      -5.9237090376     0.4750559037    -1.6089889999
   21      C      -6.1593478341    -0.9374046207    -0.9558801816
   22      C      -5.1658892822    -0.8690412997     0.2675715937
   23      O      -5.2900278526     0.5359429611     0.7211040038
   24      H      -3.1589548501     0.5489911593    -1.8899614187
   25      H      -3.6515592647    -1.6619309418    -1.1555894269
   26      H      -4.9422259017     2.2316964594    -0.5315546929
   27      H      -6.8550653694     1.0607833156    -1.6585898802
   28      H      -5.4942460364     0.4072845203    -2.6213364886
   29      H      -7.1962519168    -1.0476309897    -0.6000584103
   30      H      -5.9296345413    -1.7702438504    -1.6396113514
   31      H      -5.3672349959    -1.5720384872     1.0994467259
   32      O       2.3472873401     0.6756889916     1.9996843445
   33      C       0.3244223529    -0.8840025045    -2.0285070297
   34      C       4.9691655975    -1.2605271093    -0.1563830493
   35      C       6.3965746578    -0.7422965592    -0.5878042830
   36      C       6.4806794203     0.6080226228     0.2173428545
   37      C       5.1200145418     0.5767944261     1.0198073269
   38      O       4.8833245012    -0.8650314364     1.2685680417
   39      H       4.1942049001    -0.0971515425    -1.9077945539
   40      H       4.1131867471     1.8678713580    -0.5516944012
   41      H      -0.2920284333    -0.8311560337    -1.0989189254
   42      H       4.7946928263    -2.3484210825    -0.2657387233
   43      H       7.1751019324    -1.4521446534    -0.2652344383
   44      H       6.4795871389    -0.5968613078    -1.6767370920
   45      H       7.3377258101     0.6159479680     0.9090705890
   46      H       6.5505798546     1.4890693696    -0.4408713722
   47      H       5.1161696208     1.1363293343     1.9749280892
   48      H       0.3965204276    -1.9431710615    -2.3486315235
   49      H      -0.1635844646    -0.2930085939    -2.8248475094
   50      H       0.5701839998    -1.9228646541     0.7987971973
   51      H      -0.7810273974    -2.6542043722     1.8007171471
   52      H      -0.1224693110    -1.0308763460     2.2274016761
   53      H      -1.0770384567     3.5692954388     0.5478288394
   54      H       0.0203637939     3.3703199612    -0.8824298348
   55      H       0.4999814398     2.2923949171     1.7570938795
   56      H      -0.1020440899     0.8856397043     0.8195638371
 ----------------------------------------------------------------

    9   -1510.2907214992      4.32E-09 Convergence criterion met
 Total energy in the final basis set = -1510.29072150
 Final energy is   -1510.29072149922
 **  OPTIMIZATION CONVERGED  **

                    Orbital Energies (a.u.)
 --------------------------------------------------------------

 Alpha MOs
 -- Occupied --
-18.938 -18.938 -18.934 -18.931 -18.890 -18.886 -18.881 -18.880
-18.874 -18.873 -10.105 -10.104 -10.100 -10.097 -10.077 -10.067
-10.064 -10.060 -10.059 -10.059 -10.050 -10.042 -10.041 -10.040
-10.039 -10.038 -10.023 -10.022 -10.021 -10.020  -1.018  -1.014
 -1.011  -1.007  -0.972  -0.969  -0.940  -0.939  -0.937  -0.933
 -0.766  -0.764  -0.729  -0.724  -0.713  -0.706  -0.697  -0.660
 -0.652  -0.620  -0.597  -0.583  -0.549  -0.547  -0.539  -0.538
 -0.513  -0.511  -0.479  -0.477  -0.463  -0.460  -0.456  -0.454
 -0.436  -0.430  -0.424  -0.420  -0.416  -0.406  -0.405  -0.398
 -0.389  -0.380  -0.375  -0.367  -0.360  -0.358  -0.355  -0.351
 -0.348  -0.342  -0.338  -0.333  -0.331  -0.329  -0.327  -0.314
 -0.311  -0.307  -0.306  -0.298  -0.294  -0.289  -0.281  -0.278
 -0.272  -0.262  -0.252  -0.249  -0.243  -0.236  -0.233  -0.184
 -0.182  -0.174  -0.170  -0.160  -0.159  -0.152  -0.149  -0.145
 -0.142

          Ground-State Mulliken Net Atomic Charges

     Atom                 Charge (a.u.)
  ----------------------------------------
      1 O                    -0.215829
      2 C                     0.210294
      3 C                    -0.078052
      4 C                    -0.077429
      5 C                     0.203724
      6 O                    -0.173509
      7 C                    -0.053041
      8 C                    -0.048409
      9 O                    -0.173178
     10 C                     0.211190
     11 C                    -0.079804
     12 C                    -0.078717
     13 C                     0.216878
     14 O                    -0.206438
     15 O                    -0.164712
     16 O                    -0.180057
     17 O                    -0.213803
     18 C                    -0.150062
     19 C                     0.026140
     20 C                    -0.144603
     21 C                    -0.143001
     22 C                     0.024904
     23 O                    -0.185897
     24 H                     0.086008
     25 H                     0.084122
     26 H                     0.082891
     27 H                     0.078853
     28 H                     0.073557
     29 H                     0.079202
     30 H                     0.073434
     31 H                     0.092801
     32 O                    -0.209010
     33 C                    -0.144222
     34 C                     0.024301
     35 C                    -0.143057
     36 C                    -0.144714
     37 C                     0.025550
     38 O                    -0.184860
     39 H                     0.085343
     40 H                     0.086642
     41 H                     0.107527
     42 H                     0.088089
     43 H                     0.078378
     44 H                     0.072771
     45 H                     0.078438
     46 H                     0.072903
     47 H                     0.086549
     48 H                     0.081270
     49 H                     0.086029
     50 H                     0.110515
     51 H                     0.095865
     52 H                     0.088645
     53 H                     0.089631
     54 H                     0.098376
     55 H                     0.092201
     56 H                     0.099385
  ----------------------------------------
  Sum of atomic charges =    -0.000000

                    Cartesian Multipole Moments
 -----------------------------------------------------------------
    Charge (ESU x 10^10)
                -0.0000
    Dipole Moment (Debye)
         X       0.6820      Y       1.5842      Z      -4.5772
       Tot       4.8914
    Quadrupole Moments (Debye-Ang)
        XX    -146.4619     XY       5.6242     YY    -157.2626
        XZ       5.2819     YZ       5.4135     ZZ    -166.1418

 Total job time:  77.21s(wall), 3681.92s(cpu)
        *  Thank you very much for using Q-Chem.  Have a nice day.  *
