 Q-Chem 5.0, Q-Chem, Inc., Pleasanton, CA (2017)
 Q-Chem 5.0.1 for Intel X86 EM64T Linux

User input:
--------------------------------------------------------------
$molecule
0  1
O 2.079681164 -2.0331332349 -0.3178082573
C 2.4687570749 -1.0172758372 -0.9422628041
C 3.8904137719 -0.3490719892 -0.8757716394
C 3.9331922214 0.9553448867 0.0431624784
C 2.598140613 1.0979126052 0.8502872301
O 1.6601559607 1.7946823311 0.0270435343
C 0.3588219778 1.8912697463 0.7308275864
C -0.5744766088 2.8336455862 -0.1164365787
O -1.5781203772 2.0396976017 -0.8689454725
C -2.4221489574 1.3107558774 0.0289652102
C -3.4610207475 0.5195345895 -0.8290556926
C -3.6869858945 -0.9568007457 -0.302958404
C -2.667624979 -1.5089682692 0.7604207683
O -2.9450630956 -2.3265829859 1.6634560635
O 1.6755287151 -0.2851021513 -1.871482868
O -1.3253341832 -1.0810242315 0.4631853581
O -2.3805938336 1.4023444824 1.2750693565
C -0.3527023673 -1.7200776703 1.3903907198
C -4.9123925425 1.125909393 -0.5829022944
C -5.9237090376 0.4750559037 -1.6089889999
C -6.1593478341 -0.9374046207 -0.9558801816
C -5.1658892822 -0.8690412997 0.2675715937
O -5.2900278526 0.5359429611 0.7211040038
H -3.1589548501 0.5489911593 -1.8899614187
H -3.6515592647 -1.6619309418 -1.1555894269
H -4.9422259017 2.2316964594 -0.5315546929
H -6.8550653694 1.0607833156 -1.6585898802
H -5.4942460364 0.4072845203 -2.6213364886
H -7.1962519168 -1.0476309897 -0.6000584103
H -5.9296345413 -1.7702438504 -1.6396113514
H -5.3672349959 -1.5720384872 1.0994467259
O 2.3472873401 0.6756889916 1.9996843445
C 0.3244223529 -0.8840025045 -2.0285070297
C 4.9691655975 -1.2605271093 -0.1563830493
C 6.3965746578 -0.7422965592 -0.587804283
C 6.4806794203 0.6080226228 0.2173428545
C 5.1200145418 0.5767944261 1.0198073269
O 4.8833245012 -0.8650314364 1.2685680417
H 4.1942049001 -0.0971515425 -1.9077945539
H 4.1131867471 1.867871358 -0.5516944012
H -0.2920284333 -0.8311560337 -1.0989189254
H 4.7946928263 -2.3484210825 -0.2657387233
H 7.1751019324 -1.4521446534 -0.2652344383
H 6.4795871389 -0.5968613078 -1.676737092
H 7.3377258101 0.615947968 0.909070589
H 6.5505798546 1.4890693696 -0.4408713722
H 5.1161696208 1.1363293343 1.9749280892
H 0.3965204276 -1.9431710615 -2.3486315235
H -0.1635844646 -0.2930085939 -2.8248475094
H 0.5701839998 -1.9228646541 0.7987971973
H -0.7810273974 -2.6542043722 1.8007171471
H -0.122469311 -1.030876346 2.2274016761
H -1.0770384567 3.5692954388 0.5478288394
H 0.0203637939 3.3703199612 -0.8824298348
H 0.4999814398 2.2923949171 1.7570938795
H -0.1020440899 0.8856397043 0.8195638371
$end

$rem
JOBTYPE                   OPT
METHOD                    B3LYP
DFT_D                     d3_op
BASIS                     STO-3G
GEOM_OPT_MAX_CYCLES       100
GEOM_OPT_TOL_GRADIENT     300
GEOM_OPT_TOL_DISPLACEMENT 1200
GEOM_OPT_TOL_ENERGY       100
SYMMETRY                  False
THRESH                    12
SCF_CONVERGENCE           8
MAX_SUB_FILE_NUM          128
MEM_STATIC                400
MEM_TOTAL                 4000
$end
--------------------------------------------------------------

   16   -1510.2906654739      6.89E-09 Convergence criterion met
 Total energy in the final basis set = -1510.29066547
   15   -1510.2782142168      3.66E-09 Convergence criterion met
 Total energy in the final basis set = -1510.27821422
   15   -1510.2663684252      3.84E-09 Convergence criterion met
 Total energy in the final basis set = -1510.26636843
   15   -1510.2782013663      6.77E-09 Convergence criterion met
 Total energy in the final basis set = -1510.27820137
   15   -1510.2840281877      1.62E-09 Convergence criterion met
 Total energy in the final basis set = -1510.28402819
   14   -1510.2856402828      3.43E-09 Convergence criterion met
 Total energy in the final basis set = -1510.28564028
   14   -1510.2872320287      2.11E-09 Convergence criterion met
 Total energy in the final basis set = -1510.28723203
   14   -1510.2892058180      4.51E-09 Convergence criterion met
   11   -1510.2969581971      9.98E-09 Convergence criterion met
 Total energy in the final basis set = -1510.29695820
   11   -1510.2969787293      7.36E-09 Convergence criterion met
 Total energy in the final basis set = -1510.29697873
   11   -1510.2969795192      3.82E-09 Convergence criterion met
 Total energy in the final basis set = -1510.29697952
   11   -1510.2969842709      5.10E-09 Convergence criterion met
 Total energy in the final basis set = -1510.29698427
   11   -1510.2969892790      5.30E-09 Convergence criterion met
 Total energy in the final basis set = -1510.29698928
   11   -1510.2969900909      1.69E-09 Convergence criterion met
 Total energy in the final basis set = -1510.29699009

             Standard Nuclear Orientation (Angstroms)
    I     Atom           X                Y                Z
 ----------------------------------------------------------------
    1      O      -1.7662135190    -1.8528740060     0.2057759155
    2      C      -2.1230533189    -0.9592209148     1.0093144938
    3      C      -3.5563305730    -0.3428515672     1.1461547204
    4      C      -3.8321059753     0.8456579374     0.1244260062
    5      C      -2.6351495535     1.1513655542    -0.8454037639
    6      O      -1.6079356913     1.8232935928    -0.1072642366
    7      C      -0.5093841868     2.2167928788    -1.0245581692
    8      C       0.5963571922     2.9352066867    -0.1800713597
    9      O       1.4323571982     1.9884546465     0.5941867916
   10      C       2.4564385144     1.4310745548    -0.2460463994
   11      C       3.3601774231     0.5130859386     0.6437347098
   12      C       3.3835703026    -1.0136699330     0.2172011737
   13      C       2.4868299966    -1.4118261718    -1.0073734372
   14      O       2.8024329745    -2.1813191488    -1.9388787348
   15      O      -1.2736194334    -0.3441707647     1.9695138307
   16      O       1.1894764431    -0.8164492703    -0.8634379950
   17      O       2.6036271633     1.7134647570    -1.4544670804
   18      C       0.2355388943    -1.3422831824    -1.8755387647
   19      C       4.8969768958     0.8851941987     0.4626914096
   20      C       5.7106191567     0.2384336059     1.6525653037
   21      C       5.7337069556    -1.2744420155     1.2188346581
   22      C       4.9164277495    -1.2157885288    -0.1296951647
   23      O       5.3045677776     0.0888427249    -0.7157289880
   24      H       3.0300189120     0.6259497376     1.6908730549
   25      H       3.0751238457    -1.6506084918     1.0678136740
   26      H       5.0890871689     1.9614637128     0.2876281896
   27      H       6.7266013574     0.6619022221     1.6979838615
   28      H       5.2188433544     0.3962220055     2.6258040140
   29      H       6.7608902720    -1.6254169141     1.0313730445
   30      H       5.2634686032    -1.9381673589     1.9618949088
   31      H       5.1019238581    -2.0373026261    -0.8489026732
   32      O      -2.5622634203     0.8920341856    -2.0659263064
   33      C       0.1101801997    -0.8701598842     1.8573672331
   34      C      -4.6773102966    -1.3767495071     0.7022913126
   35      C      -6.0708840824    -0.8561217602     1.2336363700
   36      C      -6.3481529572     0.3338154885     0.2408763347
   37      C      -5.0682228160     0.2673401659    -0.6806318599
   38      O      -4.7684673477    -1.1808713186    -0.7621577785
   39      H      -3.6904326416    -0.0007412870     2.1873641941
   40      H      -4.0826184351     1.7734570932     0.6698308157
   41      H       0.5053445397    -0.7899409083     0.8138470218
   42      H      -4.4417346845    -2.4330727339     0.9354012234
   43      H      -6.8351935640    -1.6442769442     1.1430120850
   44      H      -6.0206825369    -0.5311723134     2.2851714229
   45      H      -7.2593530879     0.1601194933    -0.3534725110
   46      H      -6.4407162302     1.3041183328     0.7543735780
   47      H      -5.1830303145     0.6931429511    -1.6962123730
   48      H       0.1532019546    -1.9295937599     2.1835328417
   49      H       0.7170056031    -0.2511810927     2.5422490294
   50      H      -0.6714844680    -1.6535401227    -1.3095630871
   51      H       0.6974149959    -2.1933572718    -2.4116533532
   52      H      -0.0167924049    -0.5422205818    -2.5984454714
   53      H       1.2306289092     3.5312139480    -0.8714428978
   54      H       0.1226585672     3.6048773100     0.5659246173
   55      H      -0.8895658816     2.9112448860    -1.8061149065
   56      H      -0.0761198526     1.3318125436    -1.5344693000
 ----------------------------------------------------------------

   11   -1510.2969895830      2.34E-09 Convergence criterion met
 Total energy in the final basis set = -1510.29698958
 Final energy is   -1510.29698958296
 **  OPTIMIZATION CONVERGED  **

                    Orbital Energies (a.u.)
 --------------------------------------------------------------

 Alpha MOs
 -- Occupied --
-18.944 -18.935 -18.934 -18.934 -18.890 -18.886 -18.886 -18.877
-18.874 -18.873 -10.108 -10.101 -10.100 -10.099 -10.076 -10.073
-10.063 -10.060 -10.059 -10.058 -10.044 -10.044 -10.043 -10.041
-10.039 -10.037 -10.023 -10.022 -10.020 -10.019  -1.019  -1.015
 -1.010  -1.007  -0.972  -0.969  -0.943  -0.940  -0.934  -0.934
 -0.767  -0.763  -0.730  -0.724  -0.715  -0.706  -0.699  -0.657
 -0.655  -0.619  -0.598  -0.582  -0.549  -0.545  -0.539  -0.537
 -0.513  -0.512  -0.481  -0.477  -0.461  -0.458  -0.454  -0.453
 -0.436  -0.431  -0.429  -0.425  -0.416  -0.407  -0.404  -0.399
 -0.395  -0.380  -0.373  -0.370  -0.361  -0.357  -0.353  -0.349
 -0.345  -0.345  -0.336  -0.333  -0.330  -0.329  -0.327  -0.314
 -0.310  -0.308  -0.305  -0.302  -0.295  -0.289  -0.281  -0.277
 -0.272  -0.262  -0.255  -0.249  -0.241  -0.236  -0.233  -0.181
 -0.180  -0.176  -0.173  -0.164  -0.158  -0.153  -0.149  -0.146
 -0.143

          Ground-State Mulliken Net Atomic Charges

     Atom                 Charge (a.u.)
  ----------------------------------------
      1 O                    -0.220338
      2 C                     0.211359
      3 C                    -0.078769
      4 C                    -0.077924
      5 C                     0.205220
      6 O                    -0.172387
      7 C                    -0.049805
      8 C                    -0.048312
      9 O                    -0.170234
     10 C                     0.210224
     11 C                    -0.079943
     12 C                    -0.078770
     13 C                     0.218711
     14 O                    -0.203819
     15 O                    -0.164751
     16 O                    -0.175933
     17 O                    -0.214707
     18 C                    -0.148066
     19 C                     0.026257
     20 C                    -0.144012
     21 C                    -0.143999
     22 C                     0.024296
     23 O                    -0.185784
     24 H                     0.085455
     25 H                     0.085238
     26 H                     0.083819
     27 H                     0.078809
     28 H                     0.073387
     29 H                     0.079328
     30 H                     0.073113
     31 H                     0.092548
     32 O                    -0.210060
     33 C                    -0.147393
     34 C                     0.025517
     35 C                    -0.143882
     36 C                    -0.144272
     37 C                     0.024895
     38 O                    -0.185798
     39 H                     0.086155
     40 H                     0.085020
     41 H                     0.112209
     42 H                     0.085414
     43 H                     0.078137
     44 H                     0.073042
     45 H                     0.078317
     46 H                     0.072760
     47 H                     0.088420
     48 H                     0.075212
     49 H                     0.082182
     50 H                     0.115093
     51 H                     0.099001
     52 H                     0.086646
     53 H                     0.094326
     54 H                     0.093846
     55 H                     0.087374
     56 H                     0.097627
  ----------------------------------------
  Sum of atomic charges =    -0.000000

                    Cartesian Multipole Moments
 -----------------------------------------------------------------
    Charge (ESU x 10^10)
                -0.0000
    Dipole Moment (Debye)
         X      -0.7931      Y       1.6756      Z       4.3013
       Tot       4.6838
    Quadrupole Moments (Debye-Ang)
        XX    -151.5446     XY      -5.7953     YY    -155.8948
        XZ       5.6690     YZ      -5.3608     ZZ    -165.8820

 Total job time:  112.27s(wall), 5354.88s(cpu)
        *  Thank you very much for using Q-Chem.  Have a nice day.  *
