 Q-Chem 5.0, Q-Chem, Inc., Pleasanton, CA (2017)
 Q-Chem 5.0.1 for Intel X86 EM64T Linux

User input:
--------------------------------------------------------------
$molecule
0  1
O 1.8341181026 2.0428307654 -0.1525650824
C 2.1887663629 1.221558235 0.725228935
C 3.6152401459 0.6123107906 0.9261557622
C 3.8135219266 -0.8647846812 0.3768413222
C 2.6717732886 -1.4343976617 -0.5439444786
O 1.639813884 -1.9860318833 0.2794974521
C 0.4589504731 -2.364387013 -0.5458143246
C -0.5860499212 -2.9887105449 0.4526637175
O -1.5944528109 -2.0587292575 1.0253546075
C -2.2458897603 -1.2752792378 0.0111999725
C -3.2908569699 -0.3587771186 0.7332949449
C -3.4563347714 1.1096855907 0.158863574
C -2.5369943155 1.5621509302 -1.0340145781
O -2.8432563291 2.4178704472 -1.8923574182
O 1.3565383406 0.7079841909 1.7578447938
O -1.2341167383 0.9835386843 -0.9187790381
O -2.1176786873 -1.4595685573 -1.2189197131
C -0.33088751 1.4411267487 -2.0042325724
C -4.7639777878 -0.9262405987 0.498018671
C -5.7264965448 -0.2776458507 1.5694609543
C -5.8897583734 1.1759664075 0.9899309422
C -4.9774004528 1.0950026407 -0.2952517489
O -5.1736277644 -0.293279374 -0.774121809
H -3.0377195272 -0.3378682857 1.807348607
H -3.2976201762 1.845424814 0.9702820204
H -4.8220214357 -2.0293641096 0.4198582156
H -6.6884829991 -0.8137827849 1.5950529226
H -5.2887047151 -0.2878074979 2.5802972537
H -6.9340983025 1.3828747025 0.7069149312
H -5.552763214 1.955623209 1.6916786809
H -5.2053931214 1.8236216367 -1.0977592155
O 2.628025513 -1.4101754704 -1.7931518712
C -0.0156670077 1.2676631181 1.6805372038
C 4.7424644178 1.3937125005 0.1255941334
C 6.1208762211 1.1089498492 0.8383965442
C 6.3561906874 -0.3944961197 0.4355057154
C 5.116252898 -0.660832949 -0.5072922824
O 4.8614943989 0.6501037162 -1.1481874738
H 3.8202197779 0.6226780483 2.0117592524
H 3.9678095145 -1.5694295576 1.2137086368
H -0.4828444834 1.1055184388 0.6763002957
H 4.5065046202 2.4579043552 -0.0686631697
H 6.9065046724 1.763127723 0.4277750238
H 6.0698278759 1.2572840069 1.9288060532
H 7.2993464974 -0.5245705738 -0.1183169875
H 6.361533801 -1.0699010866 1.3059641857
H 5.2627459349 -1.442382444 -1.27727732
H -0.0085826817 2.3529195353 1.9090082215
H -0.5932533844 0.7359987031 2.4582166897
H 0.6107606683 1.7662482999 -1.5066679726
H -0.8110061113 2.2726534696 -2.5551692537
H -0.1392161934 0.5928190261 -2.6901172466
H -1.113548633 -3.8209549325 -0.065486506
H -0.046561156 -3.403369032 1.3283066129
H 0.7433541896 -3.123103497 -1.3067484764
H 0.0315370877 -1.4889391572 -1.0757236962
$end

$rem
JOBTYPE                   OPT
METHOD                    B3LYP
DFT_D                     d3_op
BASIS                     STO-3G
GEOM_OPT_MAX_CYCLES       100
GEOM_OPT_TOL_GRADIENT     300
GEOM_OPT_TOL_DISPLACEMENT 1200
GEOM_OPT_TOL_ENERGY       100
SYMMETRY                  False
THRESH                    12
SCF_CONVERGENCE           8
MAX_SUB_FILE_NUM          128
MEM_STATIC                400
MEM_TOTAL                 4000
$end
--------------------------------------------------------------

   16   -1510.2866322129      7.79E-09 Convergence criterion met
 Total energy in the final basis set = -1510.28663221
   15   -1510.2779434743      5.65E-09 Convergence criterion met
 Total energy in the final basis set = -1510.27794347
   14   -1510.2837532445      9.93E-09 Convergence criterion met
 Total energy in the final basis set = -1510.28375324
   14   -1510.2821108417      7.68E-09 Convergence criterion met
 Total energy in the final basis set = -1510.28211084
   15   -1510.2904333078      3.43E-09 Convergence criterion met
 Total energy in the final basis set = -1510.29043331
   15   -1510.2857295067      2.68E-09 Convergence criterion met
 Total energy in the final basis set = -1510.28572951
   15   -1510.2849999765      1.86E-09 Convergence criterion met
 Total energy in the final basis set = -1510.28499998
   15   -1510.2919537347      2.41E-09 Convergence criterion met
   11   -1510.2971975533      5.34E-09 Convergence criterion met
 Total energy in the final basis set = -1510.29719755
   12   -1510.2972037278      4.93E-09 Convergence criterion met
 Total energy in the final basis set = -1510.29720373
   12   -1510.2972044687      3.47E-09 Convergence criterion met
 Total energy in the final basis set = -1510.29720447
   11   -1510.2972136229      6.69E-09 Convergence criterion met
 Total energy in the final basis set = -1510.29721362
   11   -1510.2972170327      3.30E-09 Convergence criterion met
 Total energy in the final basis set = -1510.29721703
   10   -1510.2972165948      6.38E-09 Convergence criterion met
 Total energy in the final basis set = -1510.29721659

             Standard Nuclear Orientation (Angstroms)
    I     Atom           X                Y                Z
 ----------------------------------------------------------------
    1      O      -1.6554456054    -2.0922221409     0.6680898252
    2      C      -2.0791987433    -1.0490725247     1.2149384660
    3      C      -3.5426443461    -0.4845884606     1.1782134920
    4      C      -3.7469195391     0.7237692828     0.1593572426
    5      C      -2.4737213325     1.0703895167    -0.6879960023
    6      O      -1.6604290925     1.9929941664     0.0394174736
    7      C      -0.5032248399     2.4198440239    -0.7887154367
    8      C       0.5887805540     3.0368601670     0.1515382631
    9      O       1.4450601522     2.0227861127     0.8102285586
   10      C       2.3851328140     1.4759907071    -0.1297589147
   11      C       3.3394088897     0.5090186724     0.6470486362
   12      C       3.3382443006    -0.9896969307     0.1276033942
   13      C       2.3679937240    -1.3167196602    -1.0625011045
   14      O       2.6508614039    -1.9541493038    -2.0986413904
   15      O      -1.2872577849    -0.1666267711     2.0032100723
   16      O       1.0573708110    -0.8215598326    -0.7559836569
   17      O       2.4328731197     1.7940754083    -1.3373517158
   18      C       0.0461710948    -1.3402407531    -1.7152123063
   19      C       4.8626548680     0.8992070738     0.3952846169
   20      C       5.7470467620     0.1879519399     1.4940598256
   21      C       5.7425159631    -1.2973051682     0.9727903508
   22      C       4.8478647028    -1.1629884576    -0.3200242974
   23      O       5.1992407112     0.1756405276    -0.8501208830
   24      H       3.0762194293     0.5582282737     1.7175447990
   25      H       3.0800755744    -1.6770301003     0.9553268390
   26      H       5.0424348278     1.9849399454     0.2731278207
   27      H       6.7640078554     0.6114798967     1.5011489706
   28      H       5.3158979703     0.2877088521     2.5031452174
   29      H       6.7567272826    -1.6347298327     0.7062643678
   30      H       5.3150837094    -2.0031105965     1.7028135751
   31      H       4.9925330600    -1.9387465964    -1.0970210106
   32      O      -2.1918529479     0.6376500239    -1.8298587485
   33      C       0.1270099292    -0.6166733033     2.0131574690
   34      C      -4.5623334623    -1.5478502632     0.5909397720
   35      C      -6.0248306425    -1.1076724347     0.9898136546
   36      C      -6.2441786086     0.1158793973     0.0238799489
   37      C      -4.8811873901     0.1257350452    -0.7743917008
   38      O      -4.5154748251    -1.3056357895    -0.8695201169
   39      H      -3.8182693422    -0.1678289034     2.2001708474
   40      H      -4.0710393279     1.6343802313     0.6937901095
   41      H       0.5163249761    -0.7361576455     0.9717835057
   42      H      -4.2966781534    -2.5991909835     0.8143507018
   43      H      -6.7402832645    -1.9190126460     0.7814886452
   44      H      -6.1025805696    -0.8317689528     2.0536348101
   45      H      -7.0894127860    -0.0563315376    -0.6611751570
   46      H      -6.4153818558     1.0602746318     0.5650949696
   47      H      -4.9232949817     0.5791935453    -1.7835296166
   48      H       0.2360155808    -1.5720079934     2.5659137644
   49      H       0.6859281606     0.1810876915     2.5340439017
   50      H      -0.5436568090    -2.1251262744    -1.1980745441
   51      H       0.5558819560    -1.7519738050    -2.6067769266
   52      H      -0.6399953627    -0.5085682607    -1.9839838853
   53      H       1.2115745175     3.7346201860    -0.4495957610
   54      H       0.1000174412     3.5952479823     0.9756801446
   55      H      -0.8344908945     3.1900080288    -1.5202682024
   56      H      -0.0787655746     1.5676295167    -1.3575774190
 ----------------------------------------------------------------

    9   -1510.2972159409      7.57E-09 Convergence criterion met
 Total energy in the final basis set = -1510.29721594
 Final energy is   -1510.29721594085
 **  OPTIMIZATION CONVERGED  **

                    Orbital Energies (a.u.)
 --------------------------------------------------------------

 Alpha MOs
 -- Occupied --
-18.941 -18.939 -18.936 -18.928 -18.889 -18.886 -18.883 -18.883
-18.876 -18.869 -10.106 -10.105 -10.102 -10.094 -10.079 -10.075
-10.063 -10.059 -10.059 -10.057 -10.042 -10.041 -10.040 -10.038
-10.038 -10.037 -10.022 -10.021 -10.021 -10.019  -1.020  -1.015
 -1.010  -1.005  -0.972  -0.969  -0.944  -0.939  -0.937  -0.930
 -0.766  -0.763  -0.730  -0.724  -0.715  -0.706  -0.700  -0.653
 -0.651  -0.620  -0.599  -0.583  -0.549  -0.545  -0.539  -0.537
 -0.512  -0.512  -0.480  -0.475  -0.461  -0.456  -0.454  -0.453
 -0.435  -0.430  -0.429  -0.421  -0.418  -0.407  -0.401  -0.399
 -0.395  -0.376  -0.371  -0.369  -0.366  -0.357  -0.354  -0.348
 -0.345  -0.343  -0.335  -0.333  -0.331  -0.330  -0.327  -0.313
 -0.310  -0.307  -0.305  -0.300  -0.296  -0.288  -0.280  -0.275
 -0.273  -0.260  -0.254  -0.251  -0.238  -0.235  -0.233  -0.187
 -0.178  -0.174  -0.169  -0.161  -0.161  -0.153  -0.147  -0.146
 -0.143

          Ground-State Mulliken Net Atomic Charges

     Atom                 Charge (a.u.)
  ----------------------------------------
      1 O                    -0.217802
      2 C                     0.205501
      3 C                    -0.078515
      4 C                    -0.077550
      5 C                     0.210986
      6 O                    -0.166827
      7 C                    -0.051447
      8 C                    -0.047233
      9 O                    -0.170431
     10 C                     0.209707
     11 C                    -0.079830
     12 C                    -0.078824
     13 C                     0.218180
     14 O                    -0.203998
     15 O                    -0.169631
     16 O                    -0.177507
     17 O                    -0.213182
     18 C                    -0.151309
     19 C                     0.026252
     20 C                    -0.143946
     21 C                    -0.144009
     22 C                     0.024340
     23 O                    -0.185658
     24 H                     0.085426
     25 H                     0.085441
     26 H                     0.083184
     27 H                     0.078683
     28 H                     0.073350
     29 H                     0.079153
     30 H                     0.073313
     31 H                     0.092726
     32 O                    -0.212918
     33 C                    -0.148940
     34 C                     0.024535
     35 C                    -0.143819
     36 C                    -0.144401
     37 C                     0.025617
     38 O                    -0.186076
     39 H                     0.085329
     40 H                     0.086126
     41 H                     0.110696
     42 H                     0.087994
     43 H                     0.078223
     44 H                     0.072972
     45 H                     0.078350
     46 H                     0.072785
     47 H                     0.086179
     48 H                     0.074120
     49 H                     0.084398
     50 H                     0.099582
     51 H                     0.098034
     52 H                     0.103627
     53 H                     0.092086
     54 H                     0.095778
     55 H                     0.086287
     56 H                     0.104891
  ----------------------------------------
  Sum of atomic charges =     0.000000

                    Cartesian Multipole Moments
 -----------------------------------------------------------------
    Charge (ESU x 10^10)
                 0.0000
    Dipole Moment (Debye)
         X      -1.0126      Y       1.9598      Z       4.0478
       Tot       4.6099
    Quadrupole Moments (Debye-Ang)
        XX    -147.8181     XY      -5.8211     YY    -156.1702
        XZ       7.3507     YZ      -4.7307     ZZ    -166.3020

 Total job time:  121.86s(wall), 5816.89s(cpu)
        *  Thank you very much for using Q-Chem.  Have a nice day.  *
