 Q-Chem 5.0, Q-Chem, Inc., Pleasanton, CA (2017)
 Q-Chem 5.0.1 for Intel X86 EM64T Linux

User input:
--------------------------------------------------------------
$molecule
0  1
O -3.94934 -3.66094 2.70899
C -3.26408 -4.56952 2.26188
C -3.36658 -6.02376 2.66595
C -2.31154 -6.5557 3.64971
C -1.37879 -5.53149 4.25721
O -0.32854 -5.30284 3.41453
C 0.50487 -4.21754 3.835
C 1.67194 -4.04589 2.86826
O 1.33111 -3.08673 1.85499
C 0.83104 -1.91098 2.30963
C 0.51109 -0.93896 1.19901
C -0.75884 -0.10324 1.41607
C -1.31097 -0.0946 2.82738
O -1.9555 0.8141 3.33079
O -2.3444 -4.30675 1.30162
O -1.52976 -1.31755 3.38532
O 1.07223 -1.48701 3.43722
C -2.21702 -1.53041 4.56579
C 1.57166 0.16939 1.05105
C 1.52428 0.73939 -0.36494
C 0.20751 1.48571 -0.32142
C -0.16444 1.29939 1.15542
O 1.07506 1.23673 1.81688
H 0.46713 -1.51204 0.24438
H -1.58241 -0.31541 0.70426
H 2.60108 -0.17313 1.2959
H 2.35181 1.48086 -0.44228
H 1.62154 -0.00297 -1.18612
H 0.40529 2.55663 -0.54964
H -0.58564 1.09171 -0.99318
H -0.84301 2.11979 1.47736
O -1.45097 -5.10719 5.40621
C -2.33891 -3.15724 0.55118
C -4.65343 -6.28393 3.48433
C -5.03541 -7.76185 3.41208
C -3.96709 -8.36784 4.29203
C -3.24293 -7.10015 4.75603
O -4.25723 -6.13169 4.82195
H -3.44514 -6.61509 1.72617
H -1.69205 -7.38712 3.24447
H -2.31208 -2.28845 1.22141
H -5.51655 -5.6631 3.15715
H -6.0195 -7.87689 3.92078
H -5.10175 -8.18121 2.38514
H -4.46339 -8.86381 5.15596
H -3.28199 -9.08262 3.787
H -2.7023 -7.30641 5.70639
H -3.25976 -3.10465 -0.0676
H -1.45284 -3.155 -0.11553
H -2.25868 -2.61607 4.77867
H -3.2587 -1.15466 4.47751
H -1.7005 -1.01849 5.40545
H 2.52438 -3.61143 3.43901
H 2.02482 -5.00847 2.44122
H 0.97503 -4.55605 4.78727
H -0.08376 -3.32932 4.11255
$end

$opt
CONSTRAINT
tors           1           2           3           4    -101.390
tors           3           4           5           6     -84.786
tors           4           5           6           7    +172.183
tors           5           6           7           8    +178.541
tors           6           7           8           9     +92.825
tors           7           8           9          10     +50.176
tors           8           9          10          11    +179.184
tors           9          10          11          12    +142.199
tors          11          12          13          14    +151.748
ENDCONSTRAINT
$end

$rem
JOBTYPE                   OPT
METHOD                    B3LYP
DFT_D                     d3_op
BASIS                     STO-3G
GEOM_OPT_MAX_CYCLES       100
GEOM_OPT_TOL_GRADIENT     300
GEOM_OPT_TOL_DISPLACEMENT 1200
GEOM_OPT_TOL_ENERGY       100
SYMMETRY                  False
THRESH                    12
SCF_CONVERGENCE           8
MAX_SUB_FILE_NUM          128
MEM_STATIC                400
MEM_TOTAL                 4000
$end
--------------------------------------------------------------

   15   -1510.1320966528      7.36E-09 Convergence criterion met
 Total energy in the final basis set = -1510.13209665
   14   -1510.2053685564      2.11E-09 Convergence criterion met
 Total energy in the final basis set = -1510.20536856
   14   -1510.2421460721      8.70E-09 Convergence criterion met
 Total energy in the final basis set = -1510.24214607
   14   -1510.2622180102      3.76E-09 Convergence criterion met
 Total energy in the final basis set = -1510.26221801
   13   -1510.2718976207      6.81E-09 Convergence criterion met
 Total energy in the final basis set = -1510.27189762
   13   -1510.2779548833      5.58E-09 Convergence criterion met
 Total energy in the final basis set = -1510.27795488
   13   -1510.2802079678      5.55E-09 Convergence criterion met
 Total energy in the final basis set = -1510.28020797
   13   -1510.2820109742      4.59E-09 Convergence criterion met
   11   -1510.2866502693      3.95E-09 Convergence criterion met
 Total energy in the final basis set = -1510.28665027
    9   -1510.2866568329      7.30E-09 Convergence criterion met
 Total energy in the final basis set = -1510.28665683
    9   -1510.2866597710      5.48E-09 Convergence criterion met
 Total energy in the final basis set = -1510.28665977
    9   -1510.2866621023      9.23E-09 Convergence criterion met
 Total energy in the final basis set = -1510.28666210
    9   -1510.2866638666      5.55E-09 Convergence criterion met
 Total energy in the final basis set = -1510.28666387
    9   -1510.2866658285      3.58E-09 Convergence criterion met
 Total energy in the final basis set = -1510.28666583

             Standard Nuclear Orientation (Angstroms)
    I     Atom           X                Y                Z
 ----------------------------------------------------------------
    1      O       1.8341181026     2.0428307654    -0.1525650824
    2      C       2.1887663629     1.2215582350     0.7252289350
    3      C       3.6152401459     0.6123107906     0.9261557622
    4      C       3.8135219266    -0.8647846812     0.3768413222
    5      C       2.6717732886    -1.4343976617    -0.5439444786
    6      O       1.6398138840    -1.9860318833     0.2794974521
    7      C       0.4589504731    -2.3643870130    -0.5458143246
    8      C      -0.5860499212    -2.9887105449     0.4526637175
    9      O      -1.5944528109    -2.0587292575     1.0253546075
   10      C      -2.2458897603    -1.2752792378     0.0111999725
   11      C      -3.2908569699    -0.3587771186     0.7332949449
   12      C      -3.4563347714     1.1096855907     0.1588635740
   13      C      -2.5369943155     1.5621509302    -1.0340145781
   14      O      -2.8432563291     2.4178704472    -1.8923574182
   15      O       1.3565383406     0.7079841909     1.7578447938
   16      O      -1.2341167383     0.9835386843    -0.9187790381
   17      O      -2.1176786873    -1.4595685573    -1.2189197131
   18      C      -0.3308875100     1.4411267487    -2.0042325724
   19      C      -4.7639777878    -0.9262405987     0.4980186710
   20      C      -5.7264965448    -0.2776458507     1.5694609543
   21      C      -5.8897583734     1.1759664075     0.9899309422
   22      C      -4.9774004528     1.0950026407    -0.2952517489
   23      O      -5.1736277644    -0.2932793740    -0.7741218090
   24      H      -3.0377195272    -0.3378682857     1.8073486070
   25      H      -3.2976201762     1.8454248140     0.9702820204
   26      H      -4.8220214357    -2.0293641096     0.4198582156
   27      H      -6.6884829991    -0.8137827849     1.5950529226
   28      H      -5.2887047151    -0.2878074979     2.5802972537
   29      H      -6.9340983025     1.3828747025     0.7069149312
   30      H      -5.5527632140     1.9556232090     1.6916786809
   31      H      -5.2053931214     1.8236216367    -1.0977592155
   32      O       2.6280255130    -1.4101754704    -1.7931518712
   33      C      -0.0156670077     1.2676631181     1.6805372038
   34      C       4.7424644178     1.3937125005     0.1255941334
   35      C       6.1208762211     1.1089498492     0.8383965442
   36      C       6.3561906874    -0.3944961197     0.4355057154
   37      C       5.1162528980    -0.6608329490    -0.5072922824
   38      O       4.8614943989     0.6501037162    -1.1481874738
   39      H       3.8202197779     0.6226780483     2.0117592524
   40      H       3.9678095145    -1.5694295576     1.2137086368
   41      H      -0.4828444834     1.1055184388     0.6763002957
   42      H       4.5065046202     2.4579043552    -0.0686631697
   43      H       6.9065046724     1.7631277230     0.4277750238
   44      H       6.0698278759     1.2572840069     1.9288060532
   45      H       7.2993464974    -0.5245705738    -0.1183169875
   46      H       6.3615338010    -1.0699010866     1.3059641857
   47      H       5.2627459349    -1.4423824440    -1.2772773200
   48      H      -0.0085826817     2.3529195353     1.9090082215
   49      H      -0.5932533844     0.7359987031     2.4582166897
   50      H       0.6107606683     1.7662482999    -1.5066679726
   51      H      -0.8110061113     2.2726534696    -2.5551692537
   52      H      -0.1392161934     0.5928190261    -2.6901172466
   53      H      -1.1135486330    -3.8209549325    -0.0654865060
   54      H      -0.0465611560    -3.4033690320     1.3283066129
   55      H       0.7433541896    -3.1231034970    -1.3067484764
   56      H       0.0315370877    -1.4889391572    -1.0757236962
 ----------------------------------------------------------------

    8   -1510.2866665674      9.39E-09 Convergence criterion met
 Total energy in the final basis set = -1510.28666657
 Final energy is   -1510.28666656744
 **  OPTIMIZATION CONVERGED  **

                    Orbital Energies (a.u.)
 --------------------------------------------------------------

 Alpha MOs
 -- Occupied --
-18.944 -18.936 -18.936 -18.930 -18.892 -18.885 -18.882 -18.878
-18.876 -18.874 -10.107 -10.103 -10.103 -10.097 -10.078 -10.070
-10.065 -10.061 -10.058 -10.057 -10.044 -10.043 -10.042 -10.041
-10.038 -10.037 -10.024 -10.023 -10.020 -10.019  -1.019  -1.013
 -1.011  -1.007  -0.974  -0.968  -0.943  -0.938  -0.938  -0.933
 -0.767  -0.763  -0.729  -0.723  -0.715  -0.706  -0.698  -0.658
 -0.655  -0.621  -0.598  -0.584  -0.547  -0.545  -0.540  -0.537
 -0.515  -0.512  -0.480  -0.477  -0.460  -0.458  -0.452  -0.451
 -0.437  -0.430  -0.428  -0.424  -0.415  -0.410  -0.405  -0.398
 -0.393  -0.380  -0.374  -0.369  -0.360  -0.358  -0.357  -0.349
 -0.347  -0.342  -0.336  -0.334  -0.330  -0.328  -0.326  -0.315
 -0.311  -0.308  -0.305  -0.302  -0.297  -0.293  -0.278  -0.276
 -0.272  -0.263  -0.253  -0.249  -0.239  -0.237  -0.232  -0.185
 -0.180  -0.173  -0.170  -0.162  -0.159  -0.152  -0.149  -0.147
 -0.142

          Ground-State Mulliken Net Atomic Charges

     Atom                 Charge (a.u.)
  ----------------------------------------
      1 O                    -0.218371
      2 C                     0.212804
      3 C                    -0.079420
      4 C                    -0.077356
      5 C                     0.203779
      6 O                    -0.173863
      7 C                    -0.053467
      8 C                    -0.048417
      9 O                    -0.171442
     10 C                     0.213426
     11 C                    -0.080208
     12 C                    -0.079145
     13 C                     0.219635
     14 O                    -0.208389
     15 O                    -0.166637
     16 O                    -0.173857
     17 O                    -0.211514
     18 C                    -0.148825
     19 C                     0.026435
     20 C                    -0.143884
     21 C                    -0.143925
     22 C                     0.024806
     23 O                    -0.186822
     24 H                     0.085360
     25 H                     0.084848
     26 H                     0.083412
     27 H                     0.079054
     28 H                     0.074063
     29 H                     0.079457
     30 H                     0.073587
     31 H                     0.092534
     32 O                    -0.208834
     33 C                    -0.151031
     34 C                     0.024538
     35 C                    -0.143191
     36 C                    -0.145198
     37 C                     0.025551
     38 O                    -0.185934
     39 H                     0.085805
     40 H                     0.084814
     41 H                     0.112137
     42 H                     0.087647
     43 H                     0.078149
     44 H                     0.072636
     45 H                     0.078093
     46 H                     0.072586
     47 H                     0.086428
     48 H                     0.076057
     49 H                     0.081357
     50 H                     0.114837
     51 H                     0.098760
     52 H                     0.087542
     53 H                     0.085337
     54 H                     0.097937
     55 H                     0.090500
     56 H                     0.105818
  ----------------------------------------
  Sum of atomic charges =     0.000000

                    Cartesian Multipole Moments
 -----------------------------------------------------------------
    Charge (ESU x 10^10)
                 0.0000
    Dipole Moment (Debye)
         X       0.2223      Y      -1.0344      Z       4.6475
       Tot       4.7664
    Quadrupole Moments (Debye-Ang)
        XX    -149.7467     XY      -2.8934     YY    -155.5185
        XZ      -2.2875     YZ       3.8052     ZZ    -167.0874

 Total job time:  86.99s(wall), 4149.60s(cpu)
        *  Thank you very much for using Q-Chem.  Have a nice day.  *
