 Q-Chem 5.0, Q-Chem, Inc., Pleasanton, CA (2017)
 Q-Chem 5.0.1 for Intel X86 EM64T Linux

User input:
--------------------------------------------------------------
$molecule
0  1
O -3.94934 -3.66094 2.70899
C -3.26408 -4.56952 2.26188
C -3.36658 -6.02376 2.66595
C -2.31154 -6.5557 3.64971
C -1.37879 -5.53149 4.25721
O -0.32431 -5.30887 3.4182
C 0.59402 -4.32977 3.91547
C 1.81901 -4.25053 3.01035
O 1.67743 -3.1572 2.08977
C 1.57881 -1.92828 2.65472
C 1.45204 -0.8208 1.63586
C 0.41001 0.25494 1.97534
C -0.0826 0.26879 3.40847
O -0.38451 1.26818 4.04457
O -2.23866 -4.26493 1.42382
O -0.63653 -0.89702 3.84117
O 1.88652 -1.70137 3.82123
C -1.32162 -1.04822 5.03101
C 2.72269 0.04681 1.52116
C 2.76588 0.70734 0.14479
C 1.6275 1.6992 0.27399
C 1.27074 1.51474 1.75501
O 2.48581 1.14868 2.36189
H 1.26034 -1.28569 0.6407
H -0.48683 0.19878 1.32015
H 3.66123 -0.51974 1.7081
H 3.72545 1.2707 0.09307
H 2.70004 0.02229 -0.72767
H 2.02752 2.71839 0.07656
H 0.74725 1.49942 -0.37496
H 0.78909 2.43679 2.14797
O -1.45978 -5.0991 5.40283
C -1.92947 -2.98894 1.002
C -4.65603 -6.29101 3.47532
C -5.02864 -7.7712 3.40033
C -3.96464 -8.37073 4.29026
C -3.24635 -7.09973 4.75408
O -4.26581 -6.13579 4.81445
H -3.42687 -6.6106 1.72228
H -1.69293 -7.38932 3.2475
H -1.68263 -2.34877 1.87392
H -5.51976 -5.67381 3.14303
H -6.01686 -7.89388 3.89901
H -5.08105 -8.18906 2.37196
H -4.46556 -8.86172 5.15442
H -3.27629 -9.08849 3.79398
H -2.70906 -7.30234 5.70712
H -2.78501 -2.5514 0.4448
H -1.04684 -3.03056 0.33136
H -1.6735 -2.09587 5.12246
H -2.20781 -0.37869 5.05169
H -0.65343 -0.81639 5.88761
H 2.72434 -4.0489 3.62855
H 2.00206 -5.2141 2.4889
H 0.98266 -4.73368 4.87942
H 0.10763 -3.36463 4.14584
$end

$opt
CONSTRAINT
tors           1           2           3           4    -101.390
tors           3           4           5           6     -85.153
tors           4           5           6           7    +178.963
tors           5           6           7           8    +173.533
tors           6           7           8           9     +97.639
tors           7           8           9          10     +61.497
tors           8           9          10          11    +179.184
tors           9          10          11          12    +137.120
tors          11          12          13          14    +145.248
ENDCONSTRAINT
$end

$rem
JOBTYPE                   OPT
METHOD                    B3LYP
DFT_D                     d3_op
BASIS                     STO-3G
GEOM_OPT_MAX_CYCLES       100
GEOM_OPT_TOL_GRADIENT     300
GEOM_OPT_TOL_DISPLACEMENT 1200
GEOM_OPT_TOL_ENERGY       100
SYMMETRY                  False
THRESH                    12
SCF_CONVERGENCE           8
MAX_SUB_FILE_NUM          128
MEM_STATIC                400
MEM_TOTAL                 4000
$end
--------------------------------------------------------------

   15   -1510.1460223822      7.67E-09 Convergence criterion met
 Total energy in the final basis set = -1510.14602238
   14   -1510.2163984558      2.96E-09 Convergence criterion met
 Total energy in the final basis set = -1510.21639846
   15   -1510.2548419806      1.33E-09 Convergence criterion met
 Total energy in the final basis set = -1510.25484198
   15   -1510.2713747637      1.61E-09 Convergence criterion met
 Total energy in the final basis set = -1510.27137476
   14   -1510.2776919698      8.76E-09 Convergence criterion met
 Total energy in the final basis set = -1510.27769197
   14   -1510.2818065074      5.35E-09 Convergence criterion met
 Total energy in the final basis set = -1510.28180651
   13   -1510.2846642388      3.71E-09 Convergence criterion met
 Total energy in the final basis set = -1510.28466424
   14   -1510.2867957967      2.93E-09 Convergence criterion met
   10   -1510.2922816122      7.59E-09 Convergence criterion met
 Total energy in the final basis set = -1510.29228161
    9   -1510.2922936827      8.56E-09 Convergence criterion met
 Total energy in the final basis set = -1510.29229368
    9   -1510.2922970464      9.66E-09 Convergence criterion met
 Total energy in the final basis set = -1510.29229705
    9   -1510.2922994979      8.43E-09 Convergence criterion met
 Total energy in the final basis set = -1510.29229950
   10   -1510.2923009313      4.16E-09 Convergence criterion met
 Total energy in the final basis set = -1510.29230093
    9   -1510.2923023753      6.06E-09 Convergence criterion met
 Total energy in the final basis set = -1510.29230238

             Standard Nuclear Orientation (Angstroms)
    I     Atom           X                Y                Z
 ----------------------------------------------------------------
    1      O      -2.0093404946    -2.0617980239     0.1760885956
    2      C      -2.3900618982    -1.0936550288     0.8767067246
    3      C      -3.8163545437    -0.4352041584     0.8871990859
    4      C      -3.8961970036     0.9269519018     0.0621756222
    5      C      -2.5925637433     1.1715635856    -0.7746110801
    6      O      -1.6320233707     1.8074548682     0.0714228939
    7      C      -0.3745441056     2.0315744264    -0.6830569160
    8      C       0.5785753791     2.8780568142     0.2380177797
    9      O       1.5568115895     2.0164359706     0.9490604737
   10      C       2.3986976953     1.3252929659     0.0183359094
   11      C       3.4091188734     0.4604385565     0.8381894081
   12      C       3.6064364620    -0.9921605323     0.2377943893
   13      C       2.6222381648    -1.4386287450    -0.9041161916
   14      O       2.9188781018    -2.1705756912    -1.8719259637
   15      O      -1.5863582538    -0.4186764802     1.8374612913
   16      O       1.2795522814    -1.0132644633    -0.6127614919
   17      O       2.3774150950     1.4938230398    -1.2203832893
   18      C       0.3148368337    -1.5646342802    -1.6013170946
   19      C       4.8797159984     1.0419779330     0.6528257229
   20      C       5.8454280640     0.3257624746     1.6788269081
   21      C       6.0540665916    -1.0697745987     0.9814290299
   22      C       5.1075378542    -0.9227373708    -0.2715865919
   23      O       5.2815892801     0.4958960824    -0.6622488059
   24      H       3.0916960422     0.4372461013     1.8948149583
   25      H       3.5078340539    -1.7447501481     1.0434996933
   26      H       4.9353406360     2.1479521839     0.6473664526
   27      H       6.7926274362     0.8804416099     1.7697889666
   28      H       5.3901046955     0.2368370658     2.6781221685
   29      H       7.0985481111    -1.2056106725     0.6582741236
   30      H       5.7707566746    -1.9171469521     1.6261388667
   31      H       5.3199999077    -1.5946145162    -1.1261612905
   32      O      -2.3825506905     0.8691324955    -1.9692165899
   33      C      -0.2267824852    -1.0110033052     1.9231173831
   34      C      -4.9074578522    -1.3076739166     0.1372866530
   35      C      -6.3275265262    -0.8357779092     0.6394563730
   36      C      -6.4447196061     0.5651384769    -0.0698629040
   37      C      -5.1055404198     0.6016042869    -0.9080745755
   38      O      -4.8639935608    -0.8178766910    -1.2593311612
   39      H      -4.0960072890    -0.2550709704     1.9407703859
   40      H      -4.0793195623     1.7904647213     0.7254206678
   41      H       0.3505377744    -0.9204549105     0.9697112368
   42      H      -4.7209650642    -2.3985635092     0.1693651009
   43      H      -7.1073400169    -1.5303760406     0.2881507361
   44      H      -6.3845313084    -0.7658700687     1.7375018119
   45      H      -7.3200397155     0.6104500082    -0.7369203895
   46      H      -6.5050181190     1.3991126725     0.6479162267
   47      H      -5.1314761917     1.2237874120    -1.8233179503
   48      H      -0.2813223418    -2.0806885830     2.2102617808
   49      H       0.2860387169    -0.4438368934     2.7210379631
   50      H      -0.5910021234    -1.8656354818    -1.0251128335
   51      H       0.7687795547    -2.4257255306    -2.1275557740
   52      H       0.0499763851    -0.7830899093    -2.3410762024
   53      H       1.1079013964     3.6415889410    -0.3724251914
   54      H      -0.0100912586     3.3813273345     1.0309439789
   55      H      -0.5822012261     2.5732081213    -1.6310108093
   56      H       0.1020709257     1.0642712322    -0.9418499564
 ----------------------------------------------------------------

    8   -1510.2923029466      9.18E-09 Convergence criterion met
 Total energy in the final basis set = -1510.29230295
 Final energy is   -1510.29230294662
 **  OPTIMIZATION CONVERGED  **

                    Orbital Energies (a.u.)
 --------------------------------------------------------------

 Alpha MOs
 -- Occupied --
-18.940 -18.937 -18.935 -18.932 -18.890 -18.886 -18.883 -18.879
-18.874 -18.873 -10.106 -10.103 -10.101 -10.097 -10.077 -10.068
-10.064 -10.060 -10.059 -10.058 -10.047 -10.042 -10.041 -10.041
-10.039 -10.038 -10.023 -10.022 -10.020 -10.019  -1.018  -1.014
 -1.011  -1.007  -0.973  -0.969  -0.941  -0.938  -0.937  -0.933
 -0.767  -0.763  -0.729  -0.724  -0.714  -0.706  -0.698  -0.658
 -0.653  -0.620  -0.598  -0.583  -0.548  -0.547  -0.539  -0.537
 -0.513  -0.511  -0.479  -0.477  -0.462  -0.459  -0.455  -0.454
 -0.437  -0.430  -0.425  -0.422  -0.416  -0.406  -0.405  -0.398
 -0.390  -0.380  -0.374  -0.368  -0.360  -0.358  -0.355  -0.350
 -0.347  -0.343  -0.337  -0.333  -0.331  -0.329  -0.327  -0.314
 -0.310  -0.308  -0.306  -0.299  -0.294  -0.290  -0.281  -0.277
 -0.272  -0.262  -0.253  -0.249  -0.242  -0.236  -0.233  -0.183
 -0.181  -0.174  -0.171  -0.161  -0.159  -0.153  -0.149  -0.146
 -0.142

          Ground-State Mulliken Net Atomic Charges

     Atom                 Charge (a.u.)
  ----------------------------------------
      1 O                    -0.217053
      2 C                     0.210886
      3 C                    -0.078372
      4 C                    -0.077430
      5 C                     0.203704
      6 O                    -0.173013
      7 C                    -0.052564
      8 C                    -0.048036
      9 O                    -0.172445
     10 C                     0.211346
     11 C                    -0.079823
     12 C                    -0.078823
     13 C                     0.218252
     14 O                    -0.205765
     15 O                    -0.164909
     16 O                    -0.179407
     17 O                    -0.213992
     18 C                    -0.150043
     19 C                     0.026293
     20 C                    -0.144430
     21 C                    -0.143214
     22 C                     0.024769
     23 O                    -0.185960
     24 H                     0.086005
     25 H                     0.084356
     26 H                     0.083062
     27 H                     0.078917
     28 H                     0.073650
     29 H                     0.079274
     30 H                     0.073425
     31 H                     0.092932
     32 O                    -0.209659
     33 C                    -0.146583
     34 C                     0.024434
     35 C                    -0.143136
     36 C                    -0.144754
     37 C                     0.025468
     38 O                    -0.185264
     39 H                     0.085314
     40 H                     0.086208
     41 H                     0.109749
     42 H                     0.087885
     43 H                     0.078284
     44 H                     0.072747
     45 H                     0.078288
     46 H                     0.072771
     47 H                     0.086584
     48 H                     0.079246
     49 H                     0.084442
     50 H                     0.111655
     51 H                     0.096812
     52 H                     0.088337
     53 H                     0.089397
     54 H                     0.098366
     55 H                     0.090839
     56 H                     0.100976
  ----------------------------------------
  Sum of atomic charges =    -0.000000

                    Cartesian Multipole Moments
 -----------------------------------------------------------------
    Charge (ESU x 10^10)
                -0.0000
    Dipole Moment (Debye)
         X      -0.6383      Y       1.3273      Z       4.6301
       Tot       4.8587
    Quadrupole Moments (Debye-Ang)
        XX    -147.7075     XY      -5.8537     YY    -156.0599
        XZ       4.8433     YZ      -4.8001     ZZ    -166.8988

 Total job time:  80.50s(wall), 3839.65s(cpu)
        *  Thank you very much for using Q-Chem.  Have a nice day.  *
