 Q-Chem 5.0, Q-Chem, Inc., Pleasanton, CA (2017)
 Q-Chem 5.0.1 for Intel X86 EM64T Linux

User input:
--------------------------------------------------------------
$molecule
0  1
O -2.0093404946 -2.0617980239 0.1760885956
C -2.3900618982 -1.0936550288 0.8767067246
C -3.8163545437 -0.4352041584 0.8871990859
C -3.8961970036 0.9269519018 0.0621756222
C -2.5925637433 1.1715635856 -0.7746110801
O -1.6320233707 1.8074548682 0.0714228939
C -0.3745441056 2.0315744264 -0.683056916
C 0.5785753791 2.8780568142 0.2380177797
O 1.5568115895 2.0164359706 0.9490604737
C 2.3986976953 1.3252929659 0.0183359094
C 3.4091188734 0.4604385565 0.8381894081
C 3.606436462 -0.9921605323 0.2377943893
C 2.6222381648 -1.438628745 -0.9041161916
O 2.9188781018 -2.1705756912 -1.8719259637
O -1.5863582538 -0.4186764802 1.8374612913
O 1.2795522814 -1.0132644633 -0.6127614919
O 2.377415095 1.4938230398 -1.2203832893
C 0.3148368337 -1.5646342802 -1.6013170946
C 4.8797159984 1.041977933 0.6528257229
C 5.845428064 0.3257624746 1.6788269081
C 6.0540665916 -1.0697745987 0.9814290299
C 5.1075378542 -0.9227373708 -0.2715865919
O 5.2815892801 0.4958960824 -0.6622488059
H 3.0916960422 0.4372461013 1.8948149583
H 3.5078340539 -1.7447501481 1.0434996933
H 4.935340636 2.1479521839 0.6473664526
H 6.7926274362 0.8804416099 1.7697889666
H 5.3901046955 0.2368370658 2.6781221685
H 7.0985481111 -1.2056106725 0.6582741236
H 5.7707566746 -1.9171469521 1.6261388667
H 5.3199999077 -1.5946145162 -1.1261612905
O -2.3825506905 0.8691324955 -1.9692165899
C -0.2267824852 -1.0110033052 1.9231173831
C -4.9074578522 -1.3076739166 0.137286653
C -6.3275265262 -0.8357779092 0.639456373
C -6.4447196061 0.5651384769 -0.069862904
C -5.1055404198 0.6016042869 -0.9080745755
O -4.8639935608 -0.817876691 -1.2593311612
H -4.096007289 -0.2550709704 1.9407703859
H -4.0793195623 1.7904647213 0.7254206678
H 0.3505377744 -0.9204549105 0.9697112368
H -4.7209650642 -2.3985635092 0.1693651009
H -7.1073400169 -1.5303760406 0.2881507361
H -6.3845313084 -0.7658700687 1.7375018119
H -7.3200397155 0.6104500082 -0.7369203895
H -6.505018119 1.3991126725 0.6479162267
H -5.1314761917 1.223787412 -1.8233179503
H -0.2813223418 -2.080688583 2.2102617808
H 0.2860387169 -0.4438368934 2.7210379631
H -0.5910021234 -1.8656354818 -1.0251128335
H 0.7687795547 -2.4257255306 -2.127555774
H 0.0499763851 -0.7830899093 -2.3410762024
H 1.1079013964 3.641588941 -0.3724251914
H -0.0100912586 3.3813273345 1.0309439789
H -0.5822012261 2.5732081213 -1.6310108093
H 0.1020709257 1.0642712322 -0.9418499564
$end

$rem
JOBTYPE                   OPT
METHOD                    B3LYP
DFT_D                     d3_op
BASIS                     STO-3G
GEOM_OPT_MAX_CYCLES       100
GEOM_OPT_TOL_GRADIENT     300
GEOM_OPT_TOL_DISPLACEMENT 1200
GEOM_OPT_TOL_ENERGY       100
SYMMETRY                  False
THRESH                    12
SCF_CONVERGENCE           8
MAX_SUB_FILE_NUM          128
MEM_STATIC                400
MEM_TOTAL                 4000
$end
--------------------------------------------------------------

   16   -1510.2922307894      7.22E-09 Convergence criterion met
 Total energy in the final basis set = -1510.29223079
   15   -1510.2887036446      2.85E-09 Convergence criterion met
 Total energy in the final basis set = -1510.28870364
   15   -1510.2854799715      4.43E-09 Convergence criterion met
 Total energy in the final basis set = -1510.28547997
   15   -1510.2918719697      5.84E-09 Convergence criterion met
 Total energy in the final basis set = -1510.29187197
   14   -1510.2128370364      9.26E-09 Convergence criterion met
 Total energy in the final basis set = -1510.21283704
   15   -1510.2902056179      3.26E-09 Convergence criterion met
 Total energy in the final basis set = -1510.29020562
   15   -1510.2894780593      2.41E-09 Convergence criterion met
 Total energy in the final basis set = -1510.28947806
   13   -1510.2923459385      8.42E-09 Convergence criterion met
   11   -1510.2990085009      6.88E-09 Convergence criterion met
 Total energy in the final basis set = -1510.29900850
   11   -1510.2990060677      7.35E-09 Convergence criterion met
 Total energy in the final basis set = -1510.29900607
   11   -1510.2990121092      3.32E-09 Convergence criterion met
 Total energy in the final basis set = -1510.29901211
    9   -1510.2990211238      8.82E-09 Convergence criterion met
 Total energy in the final basis set = -1510.29902112
   10   -1510.2990284865      3.92E-09 Convergence criterion met
 Total energy in the final basis set = -1510.29902849
    9   -1510.2990304972      4.77E-09 Convergence criterion met
 Total energy in the final basis set = -1510.29903050

             Standard Nuclear Orientation (Angstroms)
    I     Atom           X                Y                Z
 ----------------------------------------------------------------
    1      O      -1.7013744552    -0.9781546656    -0.7661060278
    2      C      -2.0077440240    -1.0290740653     0.4486078512
    3      C      -3.1773204064    -0.2465654897     1.1345541522
    4      C      -3.6477441746     1.0066265498     0.2912480092
    5      C      -2.7343495895     1.3279961590    -0.9480508653
    6      O      -1.4807486755     1.8100002316    -0.4380482196
    7      C      -0.5529503915     2.1029751700    -1.5541653774
    8      C       0.6153712764     2.9710719429    -0.9764933822
    9      O       1.3444732646     2.2619100329     0.1042924027
   10      C       2.2969577393     1.3525678545    -0.4543106677
   11      C       3.0129532395     0.5933544247     0.7116112007
   12      C       3.3704322563    -0.9032408431     0.3296880568
   13      C       2.8331900299    -1.3345561567    -1.0813121565
   14      O       3.4826599339    -1.7271143353    -2.0705093774
   15      O      -1.3851674761    -1.8565311712     1.4219854149
   16      O       1.3985846853    -1.2587188381    -1.0310227992
   17      O       2.5138893492     1.2242608167    -1.6804536161
   18      C       0.7897989150    -1.5627525867    -2.3462651264
   19      C       4.4722710140     1.1816455308     0.9568249562
   20      C       5.0289591611     0.5916673528     2.3132119128
   21      C       5.4103817078    -0.8723447674     1.8778278035
   22      C       4.9528553388    -0.8658549772     0.3677566585
   23      O       5.2802237215     0.5079181192    -0.0831664274
   24      H       2.3848630524     0.6563189875     1.6171688181
   25      H       2.9602095521    -1.6014838511     1.0822439002
   26      H       4.5459399678     2.2820846490     0.8563247184
   27      H       5.9127199583     1.1595901238     2.6445058802
   28      H       4.2732813995     0.6147053769     3.1147805617
   29      H       6.4962563738    -1.0436580836     1.9497625025
   30      H       4.8903464282    -1.6428150795     2.4692728750
   31      H       5.4363061582    -1.6128823240    -0.2913077398
   32      O      -3.0480216086     1.3053026997    -2.1565109454
   33      C      -0.3280725869    -2.6988506993     0.8060317818
   34      C      -4.4997237473    -1.1315658483     1.0998355386
   35      C      -5.5921387509    -0.4495862791     2.0150957900
   36      C      -6.0664325036     0.7369316695     1.0953327520
   37      C      -5.1052952063     0.5581956812    -0.1433597032
   38      O      -4.9981840030    -0.9147708830    -0.2763250887
   39      H      -2.8854947590     0.0189389415     2.1656903587
   40      H      -3.6758385421     1.9080800226     0.9298437875
   41      H       0.3863037716    -2.0941603259     0.1911994671
   42      H      -4.3316525019    -2.2095006383     1.2908097052
   43      H      -6.4131142907    -1.1530621814     2.2257717602
   44      H      -5.1694396699    -0.1023928044     2.9714154072
   45      H      -7.1167618854     0.6116349467     0.7871464403
   46      H      -5.9545102917     1.7220987776     1.5757675176
   47      H      -5.4495521637     1.0063038185    -1.0956817321
   48      H      -0.7807490973    -3.4836329401     0.1662942135
   49      H       0.1961699899    -3.1812723900     1.6509208295
   50      H      -0.3007152340    -1.4807441216    -2.1610404868
   51      H       1.0544294377    -2.5825564862    -2.6911968406
   52      H       1.1165586660    -0.8284851903    -3.1095356163
   53      H       1.3062874222     3.2396704121    -1.8047297597
   54      H       0.2102094060     3.8915481653    -0.5103631538
   55      H      -1.0726955182     2.6548650718    -2.3681696085
   56      H      -0.1513126305     1.1581936635    -1.9805266422
 ----------------------------------------------------------------

    9   -1510.2990335285      5.25E-09 Convergence criterion met
 Total energy in the final basis set = -1510.29903353
 Final energy is   -1510.29903352851
 **  OPTIMIZATION CONVERGED  **

                    Orbital Energies (a.u.)
 --------------------------------------------------------------

 Alpha MOs
 -- Occupied --
-18.939 -18.937 -18.936 -18.921 -18.890 -18.886 -18.881 -18.879
-18.877 -18.866 -10.103 -10.103 -10.102 -10.093 -10.076 -10.068
-10.063 -10.061 -10.060 -10.056 -10.051 -10.045 -10.041 -10.039
-10.038 -10.033 -10.023 -10.022 -10.021 -10.019  -1.018  -1.013
 -1.009  -1.000  -0.972  -0.969  -0.941  -0.938  -0.938  -0.927
 -0.766  -0.762  -0.728  -0.723  -0.715  -0.706  -0.698  -0.658
 -0.657  -0.616  -0.597  -0.580  -0.548  -0.545  -0.539  -0.536
 -0.513  -0.509  -0.482  -0.478  -0.459  -0.455  -0.453  -0.452
 -0.437  -0.434  -0.431  -0.420  -0.411  -0.408  -0.405  -0.397
 -0.392  -0.379  -0.375  -0.365  -0.361  -0.357  -0.351  -0.348
 -0.345  -0.342  -0.335  -0.332  -0.332  -0.328  -0.325  -0.313
 -0.310  -0.307  -0.304  -0.298  -0.295  -0.287  -0.280  -0.277
 -0.271  -0.263  -0.255  -0.244  -0.241  -0.236  -0.233  -0.186
 -0.180  -0.172  -0.167  -0.159  -0.156  -0.152  -0.146  -0.146
 -0.143

          Ground-State Mulliken Net Atomic Charges

     Atom                 Charge (a.u.)
  ----------------------------------------
      1 O                    -0.214859
      2 C                     0.219071
      3 C                    -0.077558
      4 C                    -0.080458
      5 C                     0.215876
      6 O                    -0.179749
      7 C                    -0.050352
      8 C                    -0.048229
      9 O                    -0.167813
     10 C                     0.212273
     11 C                    -0.078463
     12 C                    -0.079949
     13 C                     0.219253
     14 O                    -0.202408
     15 O                    -0.170020
     16 O                    -0.178204
     17 O                    -0.214732
     18 C                    -0.138743
     19 C                     0.025697
     20 C                    -0.143899
     21 C                    -0.143669
     22 C                     0.024678
     23 O                    -0.186662
     24 H                     0.088214
     25 H                     0.083424
     26 H                     0.083120
     27 H                     0.078638
     28 H                     0.074105
     29 H                     0.078845
     30 H                     0.073034
     31 H                     0.090873
     32 O                    -0.215047
     33 C                    -0.149764
     34 C                     0.024999
     35 C                    -0.144043
     36 C                    -0.143548
     37 C                     0.024373
     38 O                    -0.189038
     39 H                     0.086883
     40 H                     0.083281
     41 H                     0.114118
     42 H                     0.083034
     43 H                     0.078030
     44 H                     0.073640
     45 H                     0.078052
     46 H                     0.072961
     47 H                     0.089990
     48 H                     0.078272
     49 H                     0.080097
     50 H                     0.114396
     51 H                     0.084956
     52 H                     0.090629
     53 H                     0.095693
     54 H                     0.091624
     55 H                     0.091948
     56 H                     0.093125
  ----------------------------------------
  Sum of atomic charges =    -0.000000

                    Cartesian Multipole Moments
 -----------------------------------------------------------------
    Charge (ESU x 10^10)
                -0.0000
    Dipole Moment (Debye)
         X      -0.5804      Y       0.6229      Z       4.2689
       Tot       4.3530
    Quadrupole Moments (Debye-Ang)
        XX    -164.6059     XY      -4.4766     YY    -150.2742
        XZ       2.5905     YZ      -2.7469     ZZ    -163.6485

 Total job time:  187.74s(wall), 8961.15s(cpu)
        *  Thank you very much for using Q-Chem.  Have a nice day.  *
