 Q-Chem 5.0, Q-Chem, Inc., Pleasanton, CA (2017)
 Q-Chem 5.0.1 for Intel X86 EM64T Linux

User input:
--------------------------------------------------------------
$molecule
0  1
O -3.94934 -3.66094 2.70899
C -3.26408 -4.56952 2.26188
C -3.36658 -6.02376 2.66595
C -2.35793 -6.53655 3.70688
C -1.47422 -5.49646 4.35908
O -0.45834 -5.15411 3.51279
C 0.41081 -4.15278 4.05239
C 1.61141 -3.94867 3.13421
O 1.42538 -2.76586 2.34096
C 1.14617 -1.63545 3.0362
C 0.99612 -0.42173 2.15019
C -0.18052 0.49846 2.50666
C -0.80023 0.27978 3.87225
O -1.21914 1.16022 4.60974
O -2.23639 -4.26384 1.42709
O -1.28586 -0.97171 4.09439
O 1.36728 -1.51133 4.23771
C -2.05834 -1.33347 5.18023
C 2.17194 0.57084 2.26396
C 2.26398 1.40006 0.98473
C 1.01877 2.25433 1.11378
C 0.5555 1.85271 2.52052
O 1.74535 1.53108 3.19886
H 0.93907 -0.77185 1.09304
H -1.00363 0.43513 1.76145
H 3.14566 0.07759 2.47674
H 3.15843 2.0548 1.09467
H 2.34849 0.82686 0.03651
H 1.32295 3.32382 1.07632
H 0.22515 2.05398 0.36152
H -0.05508 2.66757 2.96738
O -1.57419 -5.11553 5.52133
C -1.93315 -2.98871 0.99843
C -4.69065 -6.30348 3.41488
C -5.0454 -7.78685 3.32172
C -4.01337 -8.37849 4.25392
C -3.33645 -7.10072 4.76018
O -4.36838 -6.14851 4.7725
H -3.38147 -6.61723 1.72453
H -1.69805 -7.34833 3.32688
H -1.69266 -2.34155 1.8665
H -5.54369 -5.69403 3.04286
H -6.05191 -7.91666 3.78056
H -5.05445 -8.20632 2.29273
H -4.54505 -8.88899 5.08777
H -3.28919 -9.07703 3.78169
H -2.8443 -7.30105 5.73763
H -2.78935 -2.55962 0.43568
H -1.04818 -3.02949 0.33094
H -2.32449 -2.40676 5.09872
H -2.99733 -0.74019 5.19811
H -1.49171 -1.17256 6.12203
H 2.50926 -3.7618 3.76777
H 1.83851 -4.84487 2.51867
H 0.84467 -4.59841 4.97835
H -0.14947 -3.26163 4.38085
$end

$opt
CONSTRAINT
tors           1           2           3           4     -98.202
tors           3           4           5           6     -78.585
tors           4           5           6           7    +178.963
tors           5           6           7           8    +172.939
tors           6           7           8           9    +101.224
tors           7           8           9          10     +53.436
tors           8           9          10          11    +178.558
tors           9          10          11          12    +137.120
tors          11          12          13          14    +142.449
ENDCONSTRAINT
$end

$rem
JOBTYPE                   OPT
METHOD                    B3LYP
DFT_D                     d3_op
BASIS                     STO-3G
GEOM_OPT_MAX_CYCLES       100
GEOM_OPT_TOL_GRADIENT     300
GEOM_OPT_TOL_DISPLACEMENT 1200
GEOM_OPT_TOL_ENERGY       100
SYMMETRY                  False
THRESH                    12
SCF_CONVERGENCE           8
MAX_SUB_FILE_NUM          128
MEM_STATIC                400
MEM_TOTAL                 4000
$end
--------------------------------------------------------------

   15   -1510.1442148352      7.32E-09 Convergence criterion met
 Total energy in the final basis set = -1510.14421484
   14   -1510.2150713093      4.69E-09 Convergence criterion met
 Total energy in the final basis set = -1510.21507131
   15   -1510.2532752450      1.41E-09 Convergence criterion met
 Total energy in the final basis set = -1510.25327525
   15   -1510.2685643566      1.83E-09 Convergence criterion met
 Total energy in the final basis set = -1510.26856436
   14   -1510.2790410834      6.06E-09 Convergence criterion met
 Total energy in the final basis set = -1510.27904108
   14   -1510.2807584782      4.66E-09 Convergence criterion met
 Total energy in the final basis set = -1510.28075848
   14   -1510.2847799615      4.07E-09 Convergence criterion met
 Total energy in the final basis set = -1510.28477996
   13   -1510.2864898093      6.69E-09 Convergence criterion met
    9   -1510.2910843287      9.84E-09 Convergence criterion met
 Total energy in the final basis set = -1510.29108433
   11   -1510.2910932406      3.39E-09 Convergence criterion met
 Total energy in the final basis set = -1510.29109324
   11   -1510.2910962543      1.81E-09 Convergence criterion met
 Total energy in the final basis set = -1510.29109625
   10   -1510.2910982877      7.96E-09 Convergence criterion met
 Total energy in the final basis set = -1510.29109829
   10   -1510.2910993330      3.39E-09 Convergence criterion met
 Total energy in the final basis set = -1510.29109933
    9   -1510.2911088435      5.08E-09 Convergence criterion met
 Total energy in the final basis set = -1510.29110884

             Standard Nuclear Orientation (Angstroms)
    I     Atom           X                Y                Z
 ----------------------------------------------------------------
    1      O       2.0083257980    -1.9592012858    -0.3972306796
    2      C       2.3862281260    -0.9283122046    -1.0037104858
    3      C       3.8133730709    -0.2782246311    -0.9470371101
    4      C       3.9298348705     0.9493868366     0.0638771525
    5      C       2.6416644358     1.1299966056     0.9420818994
    6      O       1.6566025464     1.7789726495     0.1363970034
    7      C       0.3955007658     1.9614993737     0.8979822748
    8      C      -0.5405251051     2.8403612292    -0.0144384225
    9      O      -1.5829796256     2.0665593633    -0.7349352817
   10      C      -2.3662204931     1.2548948476     0.1480294352
   11      C      -3.4427963970     0.5260510362    -0.7226773595
   12      C      -3.6370302062    -0.9999363359    -0.3441969099
   13      C      -2.6432882107    -1.6017472016     0.7149759355
   14      O      -2.9392882355    -2.4313696280     1.6007410652
   15      O       1.5827458831    -0.1714484020    -1.9013281583
   16      O      -1.3012060371    -1.1732875540     0.4422917302
   17      O      -2.2721886678     1.2513670992     1.3948198311
   18      C      -0.3370759510    -1.8067550767     1.3777319015
   19      C      -4.8950772351     1.0870121732    -0.3898972462
   20      C      -5.9014411667     0.5619987267    -1.4904353470
   21      C      -6.1033964388    -0.9313374145    -1.0354770722
   22      C      -5.1266921271    -1.0017750769     0.2014483874
   23      O      -5.2717303874     0.3340258059     0.8262660990
   24      H      -3.1823210762     0.6563944573    -1.7871285275
   25      H      -3.5541377576    -1.6263262531    -1.2526740849
   26      H      -4.9328267163     2.1772329846    -0.1996017013
   27      H      -6.8449015229     1.1292152331    -1.4506135255
   28      H      -5.4819386224     0.6449789259    -2.5058913016
   29      H      -7.1411192805    -1.1183225160    -0.7163922419
   30      H      -5.8380326077    -1.6580913209    -1.8198592204
   31      H      -5.3285026230    -1.8035882170     0.9383688861
   32      O       2.4645857575     0.7819705301     2.1290771954
   33      C       0.2279833907    -0.7629782616    -2.0533007933
   34      C       4.9025409707    -1.2648408693    -0.3496443184
   35      C       6.3238329572    -0.7395959656    -0.7927546101
   36      C       6.4724613302     0.5310642484     0.1242952797
   37      C       5.1372354990     0.4636214304     0.9656213271
   38      O       4.8748648490    -0.9882281360     1.1046067709
   39      H       4.0769263951     0.0487756666    -1.9688979340
   40      H       4.1364381240     1.8904681136    -0.4761935335
   41      H      -0.3447751572    -0.8077309739    -1.0946119648
   42      H       4.7013103043    -2.3363268204    -0.5426141645
   43      H       7.0973948839    -1.4909781387    -0.5674542011
   44      H       6.3654454587    -0.4991996619    -1.8670770613
   45      H       7.3501308463     0.4533152848     0.7850978541
   46      H       6.5484879803     1.4652688352    -0.4549969330
   47      H       5.1758249180     0.9422436366     1.9631572953
   48      H       0.2925366766    -1.7851282764    -2.4785953777
   49      H      -0.2978047977    -0.1032220470    -2.7672721267
   50      H       0.6061419508    -1.9464686701     0.8003882719
   51      H      -0.7349133812    -2.7744191696     1.7381904749
   52      H      -0.1641816272    -1.1428274424     2.2484468564
   53      H      -1.0207738326     3.6316041831     0.6025275618
   54      H       0.0678424998     3.3201307988    -0.8074927628
   55      H       0.5914220201     2.4764662926     1.8627797071
   56      H      -0.0749076586     0.9835574042     1.1235786088
 ----------------------------------------------------------------

    8   -1510.2911092617      7.58E-09 Convergence criterion met
 Total energy in the final basis set = -1510.29110926
 Final energy is   -1510.29110926170
 **  OPTIMIZATION CONVERGED  **

                    Orbital Energies (a.u.)
 --------------------------------------------------------------

 Alpha MOs
 -- Occupied --
-18.939 -18.938 -18.936 -18.932 -18.890 -18.886 -18.880 -18.879
-18.876 -18.874 -10.104 -10.104 -10.102 -10.098 -10.078 -10.070
-10.064 -10.059 -10.059 -10.058 -10.048 -10.041 -10.041 -10.040
-10.039 -10.038 -10.023 -10.021 -10.020 -10.019  -1.018  -1.014
 -1.011  -1.007  -0.972  -0.969  -0.942  -0.938  -0.937  -0.934
 -0.766  -0.763  -0.729  -0.724  -0.714  -0.706  -0.698  -0.659
 -0.653  -0.621  -0.597  -0.584  -0.548  -0.546  -0.539  -0.538
 -0.513  -0.511  -0.480  -0.477  -0.462  -0.459  -0.455  -0.453
 -0.436  -0.430  -0.425  -0.421  -0.415  -0.406  -0.405  -0.399
 -0.391  -0.380  -0.374  -0.369  -0.361  -0.358  -0.356  -0.350
 -0.347  -0.342  -0.337  -0.333  -0.331  -0.328  -0.327  -0.313
 -0.310  -0.307  -0.306  -0.298  -0.295  -0.291  -0.281  -0.278
 -0.272  -0.263  -0.252  -0.249  -0.240  -0.236  -0.233  -0.185
 -0.181  -0.175  -0.171  -0.159  -0.159  -0.152  -0.149  -0.146
 -0.143

          Ground-State Mulliken Net Atomic Charges

     Atom                 Charge (a.u.)
  ----------------------------------------
      1 O                    -0.217411
      2 C                     0.212052
      3 C                    -0.078522
      4 C                    -0.077432
      5 C                     0.204462
      6 O                    -0.174346
      7 C                    -0.052431
      8 C                    -0.048003
      9 O                    -0.172569
     10 C                     0.212436
     11 C                    -0.079844
     12 C                    -0.079210
     13 C                     0.218014
     14 O                    -0.206525
     15 O                    -0.164203
     16 O                    -0.179548
     17 O                    -0.213747
     18 C                    -0.149036
     19 C                     0.026177
     20 C                    -0.144135
     21 C                    -0.143555
     22 C                     0.024601
     23 O                    -0.186273
     24 H                     0.085624
     25 H                     0.084130
     26 H                     0.083005
     27 H                     0.078721
     28 H                     0.073530
     29 H                     0.079165
     30 H                     0.073276
     31 H                     0.092913
     32 O                    -0.208705
     33 C                    -0.146162
     34 C                     0.024583
     35 C                    -0.143351
     36 C                    -0.144756
     37 C                     0.025192
     38 O                    -0.185717
     39 H                     0.085382
     40 H                     0.085697
     41 H                     0.110286
     42 H                     0.087491
     43 H                     0.078296
     44 H                     0.072759
     45 H                     0.078422
     46 H                     0.072726
     47 H                     0.087487
     48 H                     0.079302
     49 H                     0.084862
     50 H                     0.113358
     51 H                     0.094683
     52 H                     0.086393
     53 H                     0.086591
     54 H                     0.099418
     55 H                     0.091689
     56 H                     0.102762
  ----------------------------------------
  Sum of atomic charges =    -0.000000

                    Cartesian Multipole Moments
 -----------------------------------------------------------------
    Charge (ESU x 10^10)
                -0.0000
    Dipole Moment (Debye)
         X       0.6219      Y       1.9613      Z      -4.5648
       Tot       5.0071
    Quadrupole Moments (Debye-Ang)
        XX    -147.4739     XY       4.7317     YY    -157.0010
        XZ       5.1132     YZ       5.7696     ZZ    -166.2901

 Total job time:  72.00s(wall), 3431.90s(cpu)
        *  Thank you very much for using Q-Chem.  Have a nice day.  *
