 Q-Chem 5.0, Q-Chem, Inc., Pleasanton, CA (2017)
 Q-Chem 5.0.1 for Intel X86 EM64T Linux

User input:
--------------------------------------------------------------
$molecule
0  1
O 2.008325798 -1.9592012858 -0.3972306796
C 2.386228126 -0.9283122046 -1.0037104858
C 3.8133730709 -0.2782246311 -0.9470371101
C 3.9298348705 0.9493868366 0.0638771525
C 2.6416644358 1.1299966056 0.9420818994
O 1.6566025464 1.7789726495 0.1363970034
C 0.3955007658 1.9614993737 0.8979822748
C -0.5405251051 2.8403612292 -0.0144384225
O -1.5829796256 2.0665593633 -0.7349352817
C -2.3662204931 1.2548948476 0.1480294352
C -3.442796397 0.5260510362 -0.7226773595
C -3.6370302062 -0.9999363359 -0.3441969099
C -2.6432882107 -1.6017472016 0.7149759355
O -2.9392882355 -2.431369628 1.6007410652
O 1.5827458831 -0.171448402 -1.9013281583
O -1.3012060371 -1.173287554 0.4422917302
O -2.2721886678 1.2513670992 1.3948198311
C -0.337075951 -1.8067550767 1.3777319015
C -4.8950772351 1.0870121732 -0.3898972462
C -5.9014411667 0.5619987267 -1.490435347
C -6.1033964388 -0.9313374145 -1.0354770722
C -5.1266921271 -1.0017750769 0.2014483874
O -5.2717303874 0.3340258059 0.826266099
H -3.1823210762 0.6563944573 -1.7871285275
H -3.5541377576 -1.6263262531 -1.2526740849
H -4.9328267163 2.1772329846 -0.1996017013
H -6.8449015229 1.1292152331 -1.4506135255
H -5.4819386224 0.6449789259 -2.5058913016
H -7.1411192805 -1.118322516 -0.7163922419
H -5.8380326077 -1.6580913209 -1.8198592204
H -5.328502623 -1.803588217 0.9383688861
O 2.4645857575 0.7819705301 2.1290771954
C 0.2279833907 -0.7629782616 -2.0533007933
C 4.9025409707 -1.2648408693 -0.3496443184
C 6.3238329572 -0.7395959656 -0.7927546101
C 6.4724613302 0.5310642484 0.1242952797
C 5.137235499 0.4636214304 0.9656213271
O 4.874864849 -0.988228136 1.1046067709
H 4.0769263951 0.0487756666 -1.968897934
H 4.136438124 1.8904681136 -0.4761935335
H -0.3447751572 -0.8077309739 -1.0946119648
H 4.7013103043 -2.3363268204 -0.5426141645
H 7.0973948839 -1.4909781387 -0.5674542011
H 6.3654454587 -0.4991996619 -1.8670770613
H 7.3501308463 0.4533152848 0.7850978541
H 6.5484879803 1.4652688352 -0.454996933
H 5.175824918 0.9422436366 1.9631572953
H 0.2925366766 -1.7851282764 -2.4785953777
H -0.2978047977 -0.103222047 -2.7672721267
H 0.6061419508 -1.9464686701 0.8003882719
H -0.7349133812 -2.7744191696 1.7381904749
H -0.1641816272 -1.1428274424 2.2484468564
H -1.0207738326 3.6316041831 0.6025275618
H 0.0678424998 3.3201307988 -0.8074927628
H 0.5914220201 2.4764662926 1.8627797071
H -0.0749076586 0.9835574042 1.1235786088
$end

$rem
JOBTYPE                   OPT
METHOD                    B3LYP
DFT_D                     d3_op
BASIS                     STO-3G
GEOM_OPT_MAX_CYCLES       100
GEOM_OPT_TOL_GRADIENT     300
GEOM_OPT_TOL_DISPLACEMENT 1200
GEOM_OPT_TOL_ENERGY       100
SYMMETRY                  False
THRESH                    12
SCF_CONVERGENCE           8
MAX_SUB_FILE_NUM          128
MEM_STATIC                400
MEM_TOTAL                 4000
$end
--------------------------------------------------------------

   16   -1510.2911082143      7.02E-09 Convergence criterion met
 Total energy in the final basis set = -1510.29110821
   15   -1510.2894853382      3.44E-09 Convergence criterion met
 Total energy in the final basis set = -1510.28948534
   15   -1510.2649424860      5.03E-09 Convergence criterion met
 Total energy in the final basis set = -1510.26494249
   15   -1510.2915810542      2.95E-09 Convergence criterion met
 Total energy in the final basis set = -1510.29158105
   15   -1510.2854058604      2.15E-09 Convergence criterion met
 Total energy in the final basis set = -1510.28540586
   15   -1510.2876329694      3.00E-09 Convergence criterion met
 Total energy in the final basis set = -1510.28763297
   15   -1510.2889375058      4.88E-09 Convergence criterion met
 Total energy in the final basis set = -1510.28893751
   15   -1510.2925324262      1.75E-09 Convergence criterion met
    9   -1510.2990637611      7.88E-09 Convergence criterion met
 Total energy in the final basis set = -1510.29906376
   11   -1510.2990643180      1.72E-09 Convergence criterion met
 Total energy in the final basis set = -1510.29906432
    9   -1510.2990631350      4.96E-09 Convergence criterion met
 Total energy in the final basis set = -1510.29906313
   10   -1510.2990593001      5.10E-09 Convergence criterion met
 Total energy in the final basis set = -1510.29905930
    9   -1510.2990558750      8.26E-09 Convergence criterion met
 Total energy in the final basis set = -1510.29905587
   10   -1510.2990529843      6.10E-09 Convergence criterion met
 Total energy in the final basis set = -1510.29905298

             Standard Nuclear Orientation (Angstroms)
    I     Atom           X                Y                Z
 ----------------------------------------------------------------
    1      O      -1.6996947596    -1.0114621837    -0.7469742058
    2      C      -2.0078455875    -1.0395830102     0.4681766443
    3      C      -3.1834755775    -0.2495621526     1.1350538085
    4      C      -3.6538497802     0.9880048734     0.2691198983
    5      C      -2.7389264126     1.2890591313    -0.9740283810
    6      O      -1.4871928353     1.7833758892    -0.4713033034
    7      C      -0.5603750712     2.0610538321    -1.5921454648
    8      C       0.5989387913     2.9530379281    -1.0330734714
    9      O       1.3365200117     2.2753039996     0.0620030544
   10      C       2.2949536665     1.3606386318    -0.4777204670
   11      C       3.0222658873     0.6385162915     0.7046436964
   12      C       3.3860420771    -0.8668237488     0.3649035803
   13      C       2.8505739748    -1.3379998781    -1.0338797589
   14      O       3.5017603875    -1.7505874772    -2.0137589995
   15      O      -1.3822952887    -1.8427781277     1.4594308906
   16      O       1.4155985126    -1.2695176647    -0.9844940111
   17      O       2.5084160021     1.2037878626    -1.7011168424
   18      C       0.8079408624    -1.6023454834    -2.2933277685
   19      C       4.4791388126     1.2424623981     0.9237620198
   20      C       5.0435356196     0.7012707761     2.2967740249
   21      C       5.4277386349    -0.7753582910     1.9100198693
   22      C       4.9682934846    -0.8211434701     0.4009155805
   23      O       5.2879084292     0.5388405828    -0.0957111711
   24      H       2.3992557826     0.7241057451     1.6118996011
   25      H       2.9788432854    -1.5458591069     1.1364241324
   26      H       4.5464244922     2.3393038612     0.7864119683
   27      H       5.9271568980     1.2827825895     2.6040802277
   28      H       4.2917769569     0.7497728404     3.1008905244
   29      H       6.5140838685    -0.9417146307     1.9860969392
   30      H       4.9103370939    -1.5268333480     2.5276497355
   31      H       5.4550601820    -1.5870350240    -0.2335918666
   32      O      -3.0506330931     1.2435909879    -2.1823713965
   33      C      -0.3164854302    -2.6886723541     0.8636218658
   34      C      -4.5032484597    -1.1390134560     1.1093044172
   35      C      -5.6004739643    -0.4465063266     2.0107933537
   36      C      -6.0739951473     0.7255184127     1.0721781856
   37      C      -5.1095437499     0.5296080254    -0.1613261952
   38      O      -4.9983464531    -0.9448501833    -0.2713621857
   39      H      -2.8974836080     0.0341712311     2.1629827202
   40      H      -3.6848881015     1.9003850118     0.8918373037
   41      H       0.4008164987    -2.0889585091     0.2473515587
   42      H      -4.3326571776    -2.2134105846     1.3171602678
   43      H      -6.4206888725    -1.1487390708     2.2284956341
   44      H      -5.1821472245    -0.0846790289     2.9636235500
   45      H      -7.1234154353     0.5943484883     0.7633775192
   46      H      -5.9643049066     1.7179045540     1.5380265713
   47      H      -5.4528162630     0.9619092622    -1.1213090899
   48      H      -0.7601221554    -3.4835941326     0.2301011300
   49      H       0.2022472005    -3.1578225379     1.7192989875
   50      H      -0.2830889472    -1.5240988979    -2.1082386456
   51      H       1.0792380780    -2.6265685955    -2.6195096503
   52      H       1.1295127461    -0.8801140344    -3.0701470765
   53      H       1.2863438898     3.2115092604    -1.8674426001
   54      H       0.1844895553     3.8788976192    -0.5861339771
   55      H      -1.0846915544     2.5895491595    -2.4186431765
   56      H      -0.1489366805     1.1110701566    -1.9969318308
 ----------------------------------------------------------------

    9   -1510.2990523136      7.38E-09 Convergence criterion met
 Total energy in the final basis set = -1510.29905231
 Final energy is   -1510.29905231356
 **  OPTIMIZATION CONVERGED  **

                    Orbital Energies (a.u.)
 --------------------------------------------------------------

 Alpha MOs
 -- Occupied --
-18.939 -18.938 -18.936 -18.921 -18.890 -18.886 -18.881 -18.879
-18.877 -18.866 -10.104 -10.103 -10.102 -10.093 -10.076 -10.068
-10.063 -10.061 -10.060 -10.056 -10.050 -10.046 -10.041 -10.039
-10.038 -10.033 -10.023 -10.022 -10.021 -10.019  -1.018  -1.014
 -1.009  -1.000  -0.972  -0.970  -0.941  -0.938  -0.938  -0.927
 -0.766  -0.762  -0.728  -0.723  -0.715  -0.706  -0.698  -0.658
 -0.657  -0.616  -0.597  -0.580  -0.548  -0.545  -0.539  -0.536
 -0.513  -0.509  -0.482  -0.478  -0.459  -0.455  -0.453  -0.452
 -0.438  -0.434  -0.431  -0.420  -0.411  -0.408  -0.405  -0.397
 -0.392  -0.379  -0.375  -0.365  -0.361  -0.357  -0.351  -0.348
 -0.345  -0.342  -0.335  -0.332  -0.332  -0.328  -0.325  -0.313
 -0.310  -0.307  -0.304  -0.298  -0.295  -0.287  -0.280  -0.277
 -0.271  -0.263  -0.255  -0.244  -0.241  -0.236  -0.234  -0.186
 -0.180  -0.172  -0.167  -0.159  -0.157  -0.152  -0.146  -0.146
 -0.143

          Ground-State Mulliken Net Atomic Charges

     Atom                 Charge (a.u.)
  ----------------------------------------
      1 O                    -0.214862
      2 C                     0.219132
      3 C                    -0.077573
      4 C                    -0.080447
      5 C                     0.215863
      6 O                    -0.179719
      7 C                    -0.050480
      8 C                    -0.048231
      9 O                    -0.167842
     10 C                     0.212218
     11 C                    -0.078491
     12 C                    -0.079894
     13 C                     0.219216
     14 O                    -0.202312
     15 O                    -0.169858
     16 O                    -0.178409
     17 O                    -0.214824
     18 C                    -0.139130
     19 C                     0.025700
     20 C                    -0.143881
     21 C                    -0.143700
     22 C                     0.024649
     23 O                    -0.186581
     24 H                     0.088197
     25 H                     0.083448
     26 H                     0.083104
     27 H                     0.078624
     28 H                     0.074110
     29 H                     0.078851
     30 H                     0.073033
     31 H                     0.090825
     32 O                    -0.214995
     33 C                    -0.149649
     34 C                     0.025027
     35 C                    -0.144025
     36 C                    -0.143581
     37 C                     0.024421
     38 O                    -0.188959
     39 H                     0.086880
     40 H                     0.083302
     41 H                     0.114049
     42 H                     0.082998
     43 H                     0.078045
     44 H                     0.073646
     45 H                     0.078068
     46 H                     0.072967
     47 H                     0.089986
     48 H                     0.078410
     49 H                     0.080274
     50 H                     0.114553
     51 H                     0.084877
     52 H                     0.090527
     53 H                     0.095564
     54 H                     0.091607
     55 H                     0.092126
     56 H                     0.093145
  ----------------------------------------
  Sum of atomic charges =    -0.000000

                    Cartesian Multipole Moments
 -----------------------------------------------------------------
    Charge (ESU x 10^10)
                -0.0000
    Dipole Moment (Debye)
         X      -0.5895      Y       0.7245      Z       4.2746
       Tot       4.3755
    Quadrupole Moments (Debye-Ang)
        XX    -164.4665     XY      -4.3843     YY    -150.4322
        XZ       2.7146     YZ      -3.0356     ZZ    -163.5701

 Total job time:  170.89s(wall), 8152.57s(cpu)
        *  Thank you very much for using Q-Chem.  Have a nice day.  *
