 Q-Chem 5.0, Q-Chem, Inc., Pleasanton, CA (2017)
 Q-Chem 5.0.1 for Intel X86 EM64T Linux

User input:
--------------------------------------------------------------
$molecule
0  1
O -3.94934 -3.66094 2.70899
C -3.26408 -4.56952 2.26188
C -3.36658 -6.02376 2.66595
C -2.29269 -6.56405 3.62444
C -1.33975 -5.54681 4.21198
O -0.3331 -5.28807 3.3259
C 0.60011 -4.31294 3.80284
C 1.86199 -4.33004 2.94639
O 1.76682 -3.33527 1.91477
C 1.6543 -2.05505 2.34781
C 1.61474 -1.05325 1.21843
C 0.59295 0.07968 1.3936
C 0.03039 0.25205 2.79021
O -0.2767 1.31797 3.30409
O -2.26898 -4.27366 1.38542
O -0.56408 -0.85106 3.3213
O 1.91206 -1.7156 3.49907
C -1.30142 -0.8646 4.48909
C 2.91721 -0.23677 1.08537
C 3.05052 0.27991 -0.34566
C 1.94013 1.3107 -0.37612
C 1.50419 1.28664 1.09494
O 2.67486 0.95048 1.79862
H 1.45819 -1.61125 0.26591
H -0.2718 -0.0184 0.7013
H 3.82629 -0.8071 1.37706
H 4.02936 0.80856 -0.40234
H 3.00592 -0.48769 -1.14793
H 2.38258 2.29334 -0.65251
H 1.08725 1.07068 -1.04758
H 1.03388 2.25651 1.36835
O -1.38205 -5.12691 5.36436
C -2.02453 -3.0151 0.87962
C -4.63837 -6.28525 3.50512
C -5.02192 -7.76289 3.435
C -3.94045 -8.37176 4.29711
C -3.20428 -7.10653 4.74844
O -4.21609 -6.13659 4.83532
H -3.45304 -6.60898 1.72327
H -1.68639 -7.39753 3.20387
H -1.80582 -2.30991 1.70396
H -5.5062 -5.66228 3.19515
H -5.99842 -7.88051 3.95744
H -5.10238 -8.1778 2.40725
H -4.42344 -8.86394 5.17073
H -3.26765 -9.09074 3.78162
H -2.64617 -7.31545 5.68803
H -2.90555 -2.65584 0.30648
H -1.14664 -3.05748 0.20273
H -1.67433 -1.89234 4.67588
H -2.17591 -0.18554 4.39887
H -0.66621 -0.55066 5.3446
H 2.74464 -4.07194 3.57668
H 2.05458 -5.34201 2.53062
H 0.96448 -4.68289 4.79032
H 0.13633 -3.3262 3.98822
$end

$opt
CONSTRAINT
tors           1           2           3           4    -102.756
tors           3           4           5           6     -82.650
tors           4           5           6           7    +178.963
tors           5           6           7           8    +165.727
tors           6           7           8           9     +94.670
tors           7           8           9          10     +61.497
tors           8           9          10          11    +177.669
tors           9          10          11          12    +138.329
tors          11          12          13          14    +145.672
ENDCONSTRAINT
$end

$rem
JOBTYPE                   OPT
METHOD                    B3LYP
DFT_D                     d3_op
BASIS                     STO-3G
GEOM_OPT_MAX_CYCLES       100
GEOM_OPT_TOL_GRADIENT     300
GEOM_OPT_TOL_DISPLACEMENT 1200
GEOM_OPT_TOL_ENERGY       100
SYMMETRY                  False
THRESH                    12
SCF_CONVERGENCE           8
MAX_SUB_FILE_NUM          128
MEM_STATIC                400
MEM_TOTAL                 4000
$end
--------------------------------------------------------------

   15   -1510.1450060839      6.99E-09 Convergence criterion met
 Total energy in the final basis set = -1510.14500608
   14   -1510.2154717840      5.75E-09 Convergence criterion met
 Total energy in the final basis set = -1510.21547178
   14   -1510.2541132646      7.52E-09 Convergence criterion met
 Total energy in the final basis set = -1510.25411326
   15   -1510.2703451230      1.58E-09 Convergence criterion met
 Total energy in the final basis set = -1510.27034512
   15   -1510.2737627737      2.28E-09 Convergence criterion met
 Total energy in the final basis set = -1510.27376277
   14   -1510.2795586721      2.17E-09 Convergence criterion met
 Total energy in the final basis set = -1510.27955867
   13   -1510.2822451899      9.59E-09 Convergence criterion met
 Total energy in the final basis set = -1510.28224519
   13   -1510.2854094646      7.67E-09 Convergence criterion met
   11   -1510.2911144784      7.27E-09 Convergence criterion met
 Total energy in the final basis set = -1510.29111448
   11   -1510.2911484449      4.82E-09 Convergence criterion met
 Total energy in the final basis set = -1510.29114844
   11   -1510.2911642042      2.74E-09 Convergence criterion met
 Total energy in the final basis set = -1510.29116420
    9   -1510.2911713170      8.72E-09 Convergence criterion met
 Total energy in the final basis set = -1510.29117132
    9   -1510.2911725920      6.29E-09 Convergence criterion met
 Total energy in the final basis set = -1510.29117259
    9   -1510.2911746996      9.31E-09 Convergence criterion met
 Total energy in the final basis set = -1510.29117470

             Standard Nuclear Orientation (Angstroms)
    I     Atom           X                Y                Z
 ----------------------------------------------------------------
    1      O      -2.0300107075    -2.0518205928     0.0458107766
    2      C      -2.4034356500    -1.1241284783     0.8031131920
    3      C      -3.8294742445    -0.4686474677     0.8697220560
    4      C      -3.9216702397     0.9524243706     0.1549264251
    5      C      -2.6686279474     1.2323868346    -0.7472926761
    6      O      -1.6184768494     1.7250641954     0.0865386688
    7      C      -0.4031952347     1.9799392970    -0.7249775172
    8      C       0.5686038402     2.8499593383     0.1530283637
    9      O       1.5592588446     2.0155320100     0.8782824494
   10      C       2.3908850112     1.2892349008    -0.0350363701
   11      C       3.4351209360     0.4907870697     0.8105948304
   12      C       3.6784613814    -0.9824560386     0.2813388392
   13      C       2.7131216797    -1.5096997048    -0.8424481911
   14      O       3.0343567798    -2.2833484370    -1.7691552307
   15      O      -1.6005874865    -0.5222905846     1.8121553952
   16      O       1.3596351655    -1.1044552585    -0.5790012917
   17      O       2.3448056018     1.3970145714    -1.2798202132
   18      C       0.4242612405    -1.6800889420    -1.5802899367
   19      C       4.8841703992     1.1116430018     0.5865326552
   20      C       5.8761525458     0.4870996281     1.6463844709
   21      C       6.1265422413    -0.9391442571     1.0300023262
   22      C       5.1776363685    -0.8918607025    -0.2295724460
   23      O       5.3039004775     0.5082337155    -0.6977005703
   24      H       3.1280267718     0.5080498495     1.8704686069
   25      H       3.5993205193    -1.6982244693     1.1218204279
   26      H       4.9018103228     2.2168928080     0.5204920838
   27      H       6.8056773698     1.0757065953     1.6974694448
   28      H       5.4293065755     0.4428024761     2.6524214579
   29      H       7.1751054100    -1.0635195542     0.7156691005
   30      H       5.8656817323    -1.7564752780     1.7212671182
   31      H       5.4139870677    -1.6024470442    -1.0456752969
   32      O      -2.5671469662     1.0676545299    -1.9821019775
   33      C      -0.2551917591    -1.1465990350     1.8880823215
   34      C      -4.9439984060    -1.2786864451     0.0831291362
   35      C      -6.3437239686    -0.8623162429     0.6811964323
   36      C      -6.4814947878     0.6027298432     0.1198875989
   37      C      -5.1828886119     0.7166514671    -0.7742464543
   38      O      -4.9597380495    -0.6645134009    -1.2636932142
   39      H      -4.0916258607    -0.3657969680     1.9382180952
   40      H      -4.0495122361     1.7689231438     0.8869158447
   41      H       0.3552974745    -0.9960264284     0.9639530929
   42      H      -4.7529634433    -2.3668689773     0.0097799962
   43      H      -7.1367265890    -1.5187875702     0.2887409023
   44      H      -6.3621674067    -0.9032662028     1.7820376319
   45      H      -7.3871152333     0.7178195903    -0.4964050866
   46      H      -6.4993445962     1.3618173841     0.9185384018
   47      H      -5.2506412475     1.4181949537    -1.6279469346
   48      H      -0.3384216046    -2.2344275412     2.0865371821
   49      H       0.2433250336    -0.6561692019     2.7439334558
   50      H      -0.5275153672    -1.8933390517    -1.0389869146
   51      H       0.8549962242    -2.6018615967    -2.0156190080
   52      H       0.2489645793    -0.9474337018    -2.3933738377
   53      H       1.0881670713     3.5911123329    -0.4927509465
   54      H      -0.0061637735     3.3822387178     0.9372250732
   55      H      -0.6689859437     2.5173072049    -1.6604485924
   56      H       0.0831187772     1.0246483727    -1.0095087352
 ----------------------------------------------------------------

    9   -1510.2911753333      3.03E-09 Convergence criterion met
 Total energy in the final basis set = -1510.29117533
 Final energy is   -1510.29117533332
 **  OPTIMIZATION CONVERGED  **

                    Orbital Energies (a.u.)
 --------------------------------------------------------------

 Alpha MOs
 -- Occupied --
-18.939 -18.938 -18.935 -18.932 -18.890 -18.886 -18.881 -18.880
-18.875 -18.873 -10.105 -10.104 -10.101 -10.097 -10.078 -10.069
-10.064 -10.060 -10.059 -10.058 -10.048 -10.042 -10.041 -10.040
-10.039 -10.038 -10.023 -10.022 -10.021 -10.019  -1.018  -1.014
 -1.011  -1.007  -0.973  -0.969  -0.941  -0.939  -0.937  -0.933
 -0.766  -0.763  -0.729  -0.724  -0.714  -0.706  -0.698  -0.659
 -0.653  -0.620  -0.598  -0.584  -0.548  -0.546  -0.539  -0.537
 -0.513  -0.511  -0.480  -0.478  -0.461  -0.459  -0.455  -0.453
 -0.436  -0.430  -0.426  -0.421  -0.416  -0.407  -0.405  -0.398
 -0.390  -0.380  -0.374  -0.369  -0.360  -0.358  -0.357  -0.350
 -0.347  -0.343  -0.338  -0.333  -0.331  -0.328  -0.327  -0.314
 -0.310  -0.308  -0.306  -0.299  -0.295  -0.290  -0.281  -0.278
 -0.271  -0.263  -0.253  -0.247  -0.242  -0.236  -0.233  -0.185
 -0.182  -0.174  -0.170  -0.160  -0.159  -0.152  -0.150  -0.146
 -0.142

          Ground-State Mulliken Net Atomic Charges

     Atom                 Charge (a.u.)
  ----------------------------------------
      1 O                    -0.216922
      2 C                     0.211967
      3 C                    -0.078568
      4 C                    -0.077235
      5 C                     0.204264
      6 O                    -0.173630
      7 C                    -0.052973
      8 C                    -0.047798
      9 O                    -0.172431
     10 C                     0.211935
     11 C                    -0.079847
     12 C                    -0.078928
     13 C                     0.217786
     14 O                    -0.206579
     15 O                    -0.164333
     16 O                    -0.179099
     17 O                    -0.214334
     18 C                    -0.149478
     19 C                     0.026201
     20 C                    -0.144345
     21 C                    -0.143345
     22 C                     0.024715
     23 O                    -0.186154
     24 H                     0.086150
     25 H                     0.084092
     26 H                     0.082933
     27 H                     0.078874
     28 H                     0.073717
     29 H                     0.079195
     30 H                     0.073346
     31 H                     0.092801
     32 O                    -0.208714
     33 C                    -0.145895
     34 C                     0.024193
     35 C                    -0.142875
     36 C                    -0.145023
     37 C                     0.025588
     38 O                    -0.185401
     39 H                     0.085280
     40 H                     0.086390
     41 H                     0.109829
     42 H                     0.087955
     43 H                     0.078377
     44 H                     0.072750
     45 H                     0.078329
     46 H                     0.072745
     47 H                     0.086808
     48 H                     0.079699
     49 H                     0.084279
     50 H                     0.112504
     51 H                     0.095197
     52 H                     0.085809
     53 H                     0.089135
     54 H                     0.098040
     55 H                     0.093050
     56 H                     0.099976
  ----------------------------------------
  Sum of atomic charges =    -0.000000

                    Cartesian Multipole Moments
 -----------------------------------------------------------------
    Charge (ESU x 10^10)
                -0.0000
    Dipole Moment (Debye)
         X      -0.5496      Y       1.2775      Z       4.7878
       Tot       4.9857
    Quadrupole Moments (Debye-Ang)
        XX    -148.5468     XY      -4.4458     YY    -155.5123
        XZ       3.7974     YZ      -4.5039     ZZ    -167.2762

 Total job time:  70.22s(wall), 3336.61s(cpu)
        *  Thank you very much for using Q-Chem.  Have a nice day.  *
