 Q-Chem 5.0, Q-Chem, Inc., Pleasanton, CA (2017)
 Q-Chem 5.0.1 for Intel X86 EM64T Linux

User input:
--------------------------------------------------------------
$molecule
0  1
O -2.0300107075 -2.0518205928 0.0458107766
C -2.40343565 -1.1241284783 0.803113192
C -3.8294742445 -0.4686474677 0.869722056
C -3.9216702397 0.9524243706 0.1549264251
C -2.6686279474 1.2323868346 -0.7472926761
O -1.6184768494 1.7250641954 0.0865386688
C -0.4031952347 1.979939297 -0.7249775172
C 0.5686038402 2.8499593383 0.1530283637
O 1.5592588446 2.01553201 0.8782824494
C 2.3908850112 1.2892349008 -0.0350363701
C 3.435120936 0.4907870697 0.8105948304
C 3.6784613814 -0.9824560386 0.2813388392
C 2.7131216797 -1.5096997048 -0.8424481911
O 3.0343567798 -2.283348437 -1.7691552307
O -1.6005874865 -0.5222905846 1.8121553952
O 1.3596351655 -1.1044552585 -0.5790012917
O 2.3448056018 1.3970145714 -1.2798202132
C 0.4242612405 -1.680088942 -1.5802899367
C 4.8841703992 1.1116430018 0.5865326552
C 5.8761525458 0.4870996281 1.6463844709
C 6.1265422413 -0.9391442571 1.0300023262
C 5.1776363685 -0.8918607025 -0.229572446
O 5.3039004775 0.5082337155 -0.6977005703
H 3.1280267718 0.5080498495 1.8704686069
H 3.5993205193 -1.6982244693 1.1218204279
H 4.9018103228 2.216892808 0.5204920838
H 6.8056773698 1.0757065953 1.6974694448
H 5.4293065755 0.4428024761 2.6524214579
H 7.17510541 -1.0635195542 0.7156691005
H 5.8656817323 -1.756475278 1.7212671182
H 5.4139870677 -1.6024470442 -1.0456752969
O -2.5671469662 1.0676545299 -1.9821019775
C -0.2551917591 -1.146599035 1.8880823215
C -4.943998406 -1.2786864451 0.0831291362
C -6.3437239686 -0.8623162429 0.6811964323
C -6.4814947878 0.6027298432 0.1198875989
C -5.1828886119 0.7166514671 -0.7742464543
O -4.9597380495 -0.6645134009 -1.2636932142
H -4.0916258607 -0.365796968 1.9382180952
H -4.0495122361 1.7689231438 0.8869158447
H 0.3552974745 -0.9960264284 0.9639530929
H -4.7529634433 -2.3668689773 0.0097799962
H -7.136726589 -1.5187875702 0.2887409023
H -6.3621674067 -0.9032662028 1.7820376319
H -7.3871152333 0.7178195903 -0.4964050866
H -6.4993445962 1.3618173841 0.9185384018
H -5.2506412475 1.4181949537 -1.6279469346
H -0.3384216046 -2.2344275412 2.0865371821
H 0.2433250336 -0.6561692019 2.7439334558
H -0.5275153672 -1.8933390517 -1.0389869146
H 0.8549962242 -2.6018615967 -2.015619008
H 0.2489645793 -0.9474337018 -2.3933738377
H 1.0881670713 3.5911123329 -0.4927509465
H -0.0061637735 3.3822387178 0.9372250732
H -0.6689859437 2.5173072049 -1.6604485924
H 0.0831187772 1.0246483727 -1.0095087352
$end

$rem
JOBTYPE                   OPT
METHOD                    B3LYP
DFT_D                     d3_op
BASIS                     STO-3G
GEOM_OPT_MAX_CYCLES       100
GEOM_OPT_TOL_GRADIENT     300
GEOM_OPT_TOL_DISPLACEMENT 1200
GEOM_OPT_TOL_ENERGY       100
SYMMETRY                  False
THRESH                    12
SCF_CONVERGENCE           8
MAX_SUB_FILE_NUM          128
MEM_STATIC                400
MEM_TOTAL                 4000
$end
--------------------------------------------------------------

   16   -1510.2911138201      6.89E-09 Convergence criterion met
 Total energy in the final basis set = -1510.29111382
   15   -1510.2894448877      2.80E-09 Convergence criterion met
 Total energy in the final basis set = -1510.28944489
   15   -1510.2859466670      4.56E-09 Convergence criterion met
 Total energy in the final basis set = -1510.28594667
   14   -1510.2912080177      5.62E-09 Convergence criterion met
 Total energy in the final basis set = -1510.29120802
   15   -1510.2928234047      2.26E-09 Convergence criterion met
 Total energy in the final basis set = -1510.29282340
   14   -1510.2925815413      6.50E-09 Convergence criterion met
 Total energy in the final basis set = -1510.29258154
   15   -1510.2902374868      1.98E-09 Convergence criterion met
 Total energy in the final basis set = -1510.29023749
   15   -1510.2564333832      4.68E-09 Convergence criterion met
   12   -1510.2990152476      6.99E-09 Convergence criterion met
 Total energy in the final basis set = -1510.29901525
   11   -1510.2990253468      5.35E-09 Convergence criterion met
 Total energy in the final basis set = -1510.29902535
   12   -1510.2990243701      3.54E-09 Convergence criterion met
 Total energy in the final basis set = -1510.29902437
   12   -1510.2990144519      3.33E-09 Convergence criterion met
 Total energy in the final basis set = -1510.29901445
   11   -1510.2990108948      3.47E-09 Convergence criterion met
 Total energy in the final basis set = -1510.29901089
   11   -1510.2990055896      5.19E-09 Convergence criterion met
 Total energy in the final basis set = -1510.29900559

             Standard Nuclear Orientation (Angstroms)
    I     Atom           X                Y                Z
 ----------------------------------------------------------------
    1      O      -1.6752150521    -0.9477824215    -0.8240730247
    2      C      -1.9763320419    -1.0680476765     0.3869522929
    3      C      -3.1584882171    -0.3454303114     1.1154987236
    4      C      -3.6552440169     0.9383399303     0.3358133512
    5      C      -2.7396397172     1.3541451344    -0.8736659953
    6      O      -1.4999198062     1.8258210793    -0.3223235041
    7      C      -0.5691789824     2.2129308680    -1.4068105620
    8      C       0.5799889583     3.0527375405    -0.7540023519
    9      O       1.3077340476     2.2749532059     0.2796167758
   10      C       2.2735291499     1.4171312780    -0.3342641734
   11      C       2.9828343106     0.5747777155     0.7776106443
   12      C       3.3897510639    -0.8691227359     0.2668327677
   13      C       2.8613103288    -1.1977894843    -1.1751746276
   14      O       3.5180556435    -1.4979926037    -2.1915584453
   15      O      -1.3331353497    -1.9316581210     1.3145711087
   16      O       1.4253955181    -1.1585489315    -1.1189229070
   17      O       2.5055570910     1.3829943588    -1.5638991658
   18      C       0.8197034725    -1.3871658583    -2.4506288886
   19      C       4.4201756621     1.1753275606     1.1060772489
   20      C       4.9803725768     0.4610820896     2.4006422964
   21      C       5.4245820449    -0.9320656573     1.8160853144
   22      C       4.9704879859    -0.7841953041     0.3127953833
   23      O       5.2560518349     0.6384292991     0.0098937495
   24      H       2.3334884734     0.5400362737     1.6695916365
   25      H       3.0045618076    -1.6424914042     0.9564341742
   26      H       4.4617853566     2.2818476175     1.1233233056
   27      H       5.8355054200     1.0211866162     2.8108646746
   28      H       4.2106673994     0.3665080454     3.1831714113
   29      H       6.5166724863    -1.0640192832     1.8766281059
   30      H       4.9363652642    -1.7818460716     2.3197000938
   31      H       5.4782128754    -1.4435192370    -0.4177170218
   32      O      -3.0432903395     1.4014941897    -2.0839194965
   33      C      -0.2617374050    -2.7194462025     0.6532220241
   34      C      -4.4634833995    -1.2527009383     1.0369852584
   35      C      -5.5736372581    -0.6327235011     1.9750435107
   36      C      -6.0717543103     0.5793455186     1.1029486639
   37      C      -5.0980161873     0.4775390194    -0.1344055293
   38      O      -4.9592133379    -0.9857543458    -0.3315728989
   39      H      -2.8685298699    -0.1264500390     2.1579578008
   40      H      -3.7135484859     1.8019310036     1.0230917481
   41      H       0.4339817894    -2.0709205930     0.0620579202
   42      H      -4.2758646879    -2.3346219769     1.1817787793
   43      H      -6.3789030632    -1.3627705458     2.1530741391
   44      H      -5.1620436155    -0.3156898962     2.9465980203
   45      H      -7.1165225919     0.4407183482     0.7817938261
   46      H      -5.9883624277     1.5455218759     1.6258637034
   47      H      -5.4433135394     0.9611043241    -1.0687503227
   48      H      -0.7012179904    -3.4845162000    -0.0187901112
   49      H       0.2802578156    -3.2277057247     1.4713166812
   50      H      -0.2716703589    -1.3349471624    -2.2603955642
   51      H       1.1001030181    -2.3787715680    -2.8592963079
   52      H       1.1332819825    -0.6011117959    -3.1662938538
   53      H       1.2760408893     3.3926622158    -1.5512433637
   54      H       0.1559518989     3.9298780550    -0.2252943548
   55      H      -1.0901656072     2.8163546592    -2.1824027408
   56      H      -0.1493743438     1.3083258271    -1.8980619932
 ----------------------------------------------------------------

   10   -1510.2990047778      7.90E-09 Convergence criterion met
 Total energy in the final basis set = -1510.29900478
 Final energy is   -1510.29900477780
 **  OPTIMIZATION CONVERGED  **

                    Orbital Energies (a.u.)
 --------------------------------------------------------------

 Alpha MOs
 -- Occupied --
-18.939 -18.937 -18.936 -18.921 -18.889 -18.886 -18.881 -18.879
-18.877 -18.866 -10.103 -10.103 -10.102 -10.093 -10.076 -10.068
-10.064 -10.061 -10.060 -10.056 -10.051 -10.045 -10.041 -10.039
-10.038 -10.033 -10.023 -10.021 -10.021 -10.019  -1.019  -1.013
 -1.009  -1.000  -0.972  -0.969  -0.941  -0.938  -0.938  -0.928
 -0.766  -0.762  -0.729  -0.723  -0.715  -0.706  -0.698  -0.658
 -0.657  -0.617  -0.597  -0.580  -0.548  -0.545  -0.539  -0.536
 -0.513  -0.509  -0.482  -0.478  -0.459  -0.456  -0.453  -0.452
 -0.438  -0.434  -0.431  -0.419  -0.411  -0.408  -0.405  -0.397
 -0.392  -0.380  -0.376  -0.365  -0.361  -0.357  -0.351  -0.348
 -0.345  -0.341  -0.335  -0.332  -0.332  -0.328  -0.325  -0.313
 -0.310  -0.307  -0.304  -0.298  -0.294  -0.286  -0.280  -0.277
 -0.271  -0.263  -0.255  -0.244  -0.241  -0.236  -0.233  -0.186
 -0.180  -0.172  -0.168  -0.159  -0.156  -0.152  -0.146  -0.146
 -0.143

          Ground-State Mulliken Net Atomic Charges

     Atom                 Charge (a.u.)
  ----------------------------------------
      1 O                    -0.214979
      2 C                     0.219083
      3 C                    -0.077536
      4 C                    -0.080352
      5 C                     0.215843
      6 O                    -0.179776
      7 C                    -0.050220
      8 C                    -0.048083
      9 O                    -0.167807
     10 C                     0.212587
     11 C                    -0.078276
     12 C                    -0.080060
     13 C                     0.219399
     14 O                    -0.202779
     15 O                    -0.170167
     16 O                    -0.178299
     17 O                    -0.214375
     18 C                    -0.138460
     19 C                     0.025593
     20 C                    -0.144014
     21 C                    -0.143471
     22 C                     0.024631
     23 O                    -0.186956
     24 H                     0.088288
     25 H                     0.083300
     26 H                     0.083203
     27 H                     0.078669
     28 H                     0.074076
     29 H                     0.078817
     30 H                     0.072992
     31 H                     0.091077
     32 O                    -0.214946
     33 C                    -0.149929
     34 C                     0.024963
     35 C                    -0.144135
     36 C                    -0.143433
     37 C                     0.024205
     38 O                    -0.189119
     39 H                     0.086944
     40 H                     0.083150
     41 H                     0.114335
     42 H                     0.083018
     43 H                     0.078031
     44 H                     0.073641
     45 H                     0.078008
     46 H                     0.072912
     47 H                     0.090093
     48 H                     0.078142
     49 H                     0.079815
     50 H                     0.114423
     51 H                     0.084866
     52 H                     0.090601
     53 H                     0.095740
     54 H                     0.091752
     55 H                     0.091803
     56 H                     0.093173
  ----------------------------------------
  Sum of atomic charges =    -0.000000

                    Cartesian Multipole Moments
 -----------------------------------------------------------------
    Charge (ESU x 10^10)
                -0.0000
    Dipole Moment (Debye)
         X      -0.6088      Y       0.3196      Z       4.2724
       Tot       4.3274
    Quadrupole Moments (Debye-Ang)
        XX    -164.4345     XY      -5.3344     YY    -150.1930
        XZ       2.3174     YZ      -1.7779     ZZ    -163.8656

 Total job time:  148.29s(wall), 7078.19s(cpu)
        *  Thank you very much for using Q-Chem.  Have a nice day.  *
