 Q-Chem 5.0, Q-Chem, Inc., Pleasanton, CA (2017)
 Q-Chem 5.0.1 for Intel X86 EM64T Linux

User input:
--------------------------------------------------------------
$molecule
0  1
O -3.94934 -3.66094 2.70899
C -3.26408 -4.56952 2.26188
C -3.36658 -6.02376 2.66595
C -2.31869 -6.55263 3.65896
C -1.39355 -5.52586 4.27374
O -0.33251 -5.30124 3.44359
C 0.53462 -4.26074 3.90695
C 1.78445 -4.19114 3.03562
O 1.58678 -3.24778 1.97078
C 1.35882 -1.96875 2.35971
C 1.1652 -1.02562 1.19623
C 0.06736 0.02975 1.3942
C -0.41697 0.22044 2.81749
O -0.69931 1.29265 3.33248
O -2.27781 -4.27998 1.37447
O -0.92131 -0.88937 3.42219
O 1.63575 -1.55778 3.48268
C -1.56132 -0.89854 4.64523
C 2.38357 -0.11196 0.94398
C 2.38501 0.34241 -0.51414
C 1.18897 1.27319 -0.51891
C 0.84985 1.2903 0.97773
O 2.08625 1.08675 1.6168
H 0.99983 -1.63677 0.27868
H -0.82809 -0.17557 0.7683
H 3.35403 -0.59045 1.20093
H 3.30896 0.9483 -0.65586
H 2.35997 -0.46407 -1.2782
H 1.52527 2.27307 -0.8722
H 0.31942 0.92599 -1.11828
H 0.31629 2.2309 1.23677
O -1.49269 -5.08035 5.41282
C -2.06781 -3.03523 0.82434
C -4.66101 -6.28914 3.46925
C -5.03439 -7.76919 3.39479
C -3.97497 -8.36799 4.29045
C -3.26013 -7.09626 4.75762
O -4.27953 -6.13215 4.81054
H -3.42742 -6.61337 1.72396
H -1.69513 -7.38578 3.26357
H -1.8693 -2.29811 1.62293
H -5.52286 -5.67247 3.13105
H -6.02487 -7.88965 3.88957
H -5.08323 -8.18948 2.36724
H -4.48022 -8.85995 5.15151
H -3.28287 -9.08455 3.79766
H -2.72853 -7.29742 5.71419
H -2.95901 -2.71999 0.24116
H -1.19101 -3.07884 0.14666
H -1.87178 -1.93555 4.88744
H -2.46833 -0.25827 4.60847
H -0.87376 -0.5343 5.43803
H 2.64347 -3.83169 3.64791
H 2.0646 -5.19544 2.65253
H 0.91194 -4.58935 4.90336
H 0.00636 -3.30085 4.06506
$end

$opt
CONSTRAINT
tors           1           2           3           4    -100.883
tors           3           4           5           6     -85.153
tors           4           5           6           7    +175.280
tors           5           6           7           8    +172.563
tors           6           7           8           9     +92.378
tors           7           8           9          10     +61.497
tors           8           9          10          11    +179.750
tors           9          10          11          12    +140.139
tors          11          12          13          14    +140.940
ENDCONSTRAINT
$end

$rem
JOBTYPE                   OPT
METHOD                    B3LYP
DFT_D                     d3_op
BASIS                     STO-3G
GEOM_OPT_MAX_CYCLES       100
GEOM_OPT_TOL_GRADIENT     300
GEOM_OPT_TOL_DISPLACEMENT 1200
GEOM_OPT_TOL_ENERGY       100
SYMMETRY                  False
THRESH                    12
SCF_CONVERGENCE           8
MAX_SUB_FILE_NUM          128
MEM_STATIC                400
MEM_TOTAL                 4000
$end
--------------------------------------------------------------

   15   -1510.1480702745      7.31E-09 Convergence criterion met
 Total energy in the final basis set = -1510.14807027
   14   -1510.2189371901      4.33E-09 Convergence criterion met
 Total energy in the final basis set = -1510.21893719
   15   -1510.2557139307      1.80E-09 Convergence criterion met
 Total energy in the final basis set = -1510.25571393
   15   -1510.2698791505      2.44E-09 Convergence criterion met
 Total energy in the final basis set = -1510.26987915
   14   -1510.2795295156      3.50E-09 Convergence criterion met
 Total energy in the final basis set = -1510.27952952
   14   -1510.2844091746      4.85E-09 Convergence criterion met
 Total energy in the final basis set = -1510.28440917
    2   -1510.2844091745      1.98E-09 Convergence criterion met
 Total energy in the final basis set = -1510.28440917
   12   -1510.2867612173      9.94E-09 Convergence criterion met
   11   -1510.2927857885      6.54E-09 Convergence criterion met
 Total energy in the final basis set = -1510.29278579
   10   -1510.2928039649      9.02E-09 Convergence criterion met
 Total energy in the final basis set = -1510.29280396
   10   -1510.2928102690      3.23E-09 Convergence criterion met
 Total energy in the final basis set = -1510.29281027
   10   -1510.2928145396      6.72E-09 Convergence criterion met
 Total energy in the final basis set = -1510.29281454
    9   -1510.2928164943      4.32E-09 Convergence criterion met
 Total energy in the final basis set = -1510.29281649
    9   -1510.2928177770      7.34E-09 Convergence criterion met
 Total energy in the final basis set = -1510.29281778

             Standard Nuclear Orientation (Angstroms)
    I     Atom           X                Y                Z
 ----------------------------------------------------------------
    1      O       1.9146866793     2.0575899572    -0.0948459690
    2      C       2.2890635215     1.1990480525     0.7388624536
    3      C       3.7212932532     0.5759720158     0.8817586524
    4      C       3.8688917333    -0.8740877455     0.2443650937
    5      C       2.6499169637    -1.2896836042    -0.6530924622
    6      O       1.6326425425    -1.8465499846     0.1842987590
    7      C       0.4220099125    -2.1437120532    -0.6243579200
    8      C      -0.5726645430    -2.9236324983     0.3102175795
    9      O      -1.5311300917    -2.0282942138     1.0075937060
   10      C      -2.3473320733    -1.3279396323     0.0586609565
   11      C      -3.3367322310    -0.4097060486     0.8464813493
   12      C      -3.5452171965     1.0090380307     0.1727153232
   13      C      -2.6346857941     1.3494517244    -1.0628515416
   14      O      -2.9925278357     1.9602731189    -2.0915787248
   15      O       1.4751522630     0.6429214546     1.7646216004
   16      O      -1.2738512559     0.9867325486    -0.7865274628
   17      O      -2.3261220002    -1.5263963510    -1.1760062830
   18      C      -0.3596723126     1.4247293050    -1.8711156720
   19      C      -4.8170814294    -0.9904956631     0.7490005757
   20      C      -5.7292912645    -0.2254533235     1.7884186974
   21      C      -5.9475439531     1.1482917262     1.0516723519
   22      C      -5.0738414967     0.9360585231    -0.2447222313
   23      O      -5.2800142772    -0.4958953394    -0.5654894688
   24      H      -2.9908876154    -0.3250870563     1.8911017006
   25      H      -3.3802311086     1.8083800757     0.9198279640
   26      H      -4.8784350416    -2.0953932657     0.7927992889
   27      H      -6.6794959895    -0.7629825653     1.9355692215
   28      H      -5.2333996157    -0.1107799805     2.7655811101
   29      H      -7.0053975706     1.2971996349     0.7825320672
   30      H      -5.6087133246     2.0111146758     1.6468132758
   31      H      -5.3278744208     1.5720290962    -1.1152562737
   32      O       2.5402707038    -1.1584808607    -1.8914825914
   33      C       0.1083146689     1.2233801241     1.7577942291
   34      C       4.8357917407     1.3755486611     0.0845387554
   35      C       6.2328347715     1.0166199272     0.7240369071
   36      C       6.4188018112    -0.4635498251     0.2199051143
   37      C       5.1346125860    -0.6468577281    -0.6829190843
   38      O       4.8861772221     0.7055896398    -1.2346633399
   39      H       3.9530484055     0.5324806666     1.9611569761
   40      H       4.0257112349    -1.6398737934     1.0242801784
   41      H      -0.4268089541     1.0684972467     0.7869524419
   42      H       4.6224295460     2.4550347104    -0.0383490892
   43      H       7.0174039712     1.6786285773     0.3241234275
   44      H       6.2267991302     1.0974055450     1.8227547904
   45      H       7.3344834639    -0.5755792179    -0.3819087769
   46      H       6.4475387180    -1.1922419537     1.0459262080
   47      H       5.2294896321    -1.3837668256    -1.5035120646
   48      H       0.1438423385     2.3088700956     1.9821459612
   49      H      -0.4315501171     0.7018463708     2.5689810116
   50      H       0.5802491038     1.7432960147    -1.3645424835
   51      H      -0.8175077074     2.2559985487    -2.4403593805
   52      H      -0.1617467993     0.5788061159    -2.5592686232
   53      H      -1.1246793447    -3.6789973527    -0.2909552439
   54      H      -0.0072475975    -3.4367129516     1.1138044643
   55      H       0.6865902577    -2.7656734988    -1.5066557500
   56      H      -0.0450179216    -1.2083579150    -0.9942924291
 ----------------------------------------------------------------

    9   -1510.2928186806      4.73E-09 Convergence criterion met
 Total energy in the final basis set = -1510.29281868
 Final energy is   -1510.29281868062
 **  OPTIMIZATION CONVERGED  **

                    Orbital Energies (a.u.)
 --------------------------------------------------------------

 Alpha MOs
 -- Occupied --
-18.941 -18.936 -18.936 -18.932 -18.891 -18.886 -18.883 -18.878
-18.875 -18.874 -10.106 -10.103 -10.102 -10.097 -10.078 -10.070
-10.065 -10.060 -10.058 -10.058 -10.044 -10.044 -10.043 -10.041
-10.039 -10.037 -10.024 -10.022 -10.020 -10.019  -1.018  -1.013
 -1.011  -1.007  -0.973  -0.969  -0.942  -0.939  -0.937  -0.933
 -0.767  -0.763  -0.729  -0.724  -0.714  -0.706  -0.698  -0.657
 -0.655  -0.620  -0.598  -0.584  -0.548  -0.546  -0.540  -0.537
 -0.513  -0.512  -0.479  -0.479  -0.461  -0.458  -0.455  -0.453
 -0.437  -0.430  -0.426  -0.423  -0.416  -0.407  -0.405  -0.399
 -0.391  -0.380  -0.375  -0.368  -0.360  -0.359  -0.356  -0.350
 -0.348  -0.343  -0.337  -0.334  -0.331  -0.328  -0.327  -0.314
 -0.311  -0.308  -0.305  -0.299  -0.296  -0.291  -0.280  -0.277
 -0.272  -0.264  -0.254  -0.249  -0.240  -0.236  -0.233  -0.185
 -0.180  -0.174  -0.172  -0.161  -0.159  -0.153  -0.149  -0.147
 -0.142

          Ground-State Mulliken Net Atomic Charges

     Atom                 Charge (a.u.)
  ----------------------------------------
      1 O                    -0.218044
      2 C                     0.211455
      3 C                    -0.078848
      4 C                    -0.077448
      5 C                     0.203701
      6 O                    -0.172946
      7 C                    -0.052456
      8 C                    -0.047811
      9 O                    -0.170936
     10 C                     0.211155
     11 C                    -0.079801
     12 C                    -0.079188
     13 C                     0.219949
     14 O                    -0.205326
     15 O                    -0.165934
     16 O                    -0.178614
     17 O                    -0.213847
     18 C                    -0.147279
     19 C                     0.026386
     20 C                    -0.144143
     21 C                    -0.143557
     22 C                     0.024667
     23 O                    -0.186297
     24 H                     0.085785
     25 H                     0.084404
     26 H                     0.083244
     27 H                     0.078969
     28 H                     0.073761
     29 H                     0.079332
     30 H                     0.073385
     31 H                     0.092993
     32 O                    -0.209224
     33 C                    -0.149389
     34 C                     0.024386
     35 C                    -0.143129
     36 C                    -0.144982
     37 C                     0.025668
     38 O                    -0.185454
     39 H                     0.085559
     40 H                     0.085884
     41 H                     0.112277
     42 H                     0.087613
     43 H                     0.078252
     44 H                     0.072785
     45 H                     0.078206
     46 H                     0.072733
     47 H                     0.086389
     48 H                     0.076970
     49 H                     0.082181
     50 H                     0.113733
     51 H                     0.096040
     52 H                     0.087198
     53 H                     0.089367
     54 H                     0.097932
     55 H                     0.091812
     56 H                     0.100485
  ----------------------------------------
  Sum of atomic charges =    -0.000000

                    Cartesian Multipole Moments
 -----------------------------------------------------------------
    Charge (ESU x 10^10)
                -0.0000
    Dipole Moment (Debye)
         X       0.5406      Y      -0.8591      Z       4.7006
       Tot       4.8089
    Quadrupole Moments (Debye-Ang)
        XX    -149.9747     XY      -5.2143     YY    -154.5699
        XZ      -3.7775     YZ       3.9086     ZZ    -167.6169

 Total job time:  70.28s(wall), 3351.71s(cpu)
        *  Thank you very much for using Q-Chem.  Have a nice day.  *
