 Q-Chem 5.0, Q-Chem, Inc., Pleasanton, CA (2017)
 Q-Chem 5.0.1 for Intel X86 EM64T Linux

User input:
--------------------------------------------------------------
$molecule
0  1
O 1.9146866793 2.0575899572 -0.094845969
C 2.2890635215 1.1990480525 0.7388624536
C 3.7212932532 0.5759720158 0.8817586524
C 3.8688917333 -0.8740877455 0.2443650937
C 2.6499169637 -1.2896836042 -0.6530924622
O 1.6326425425 -1.8465499846 0.184298759
C 0.4220099125 -2.1437120532 -0.62435792
C -0.572664543 -2.9236324983 0.3102175795
O -1.5311300917 -2.0282942138 1.007593706
C -2.3473320733 -1.3279396323 0.0586609565
C -3.336732231 -0.4097060486 0.8464813493
C -3.5452171965 1.0090380307 0.1727153232
C -2.6346857941 1.3494517244 -1.0628515416
O -2.9925278357 1.9602731189 -2.0915787248
O 1.475152263 0.6429214546 1.7646216004
O -1.2738512559 0.9867325486 -0.7865274628
O -2.3261220002 -1.526396351 -1.176006283
C -0.3596723126 1.424729305 -1.871115672
C -4.8170814294 -0.9904956631 0.7490005757
C -5.7292912645 -0.2254533235 1.7884186974
C -5.9475439531 1.1482917262 1.0516723519
C -5.0738414967 0.9360585231 -0.2447222313
O -5.2800142772 -0.4958953394 -0.5654894688
H -2.9908876154 -0.3250870563 1.8911017006
H -3.3802311086 1.8083800757 0.919827964
H -4.8784350416 -2.0953932657 0.7927992889
H -6.6794959895 -0.7629825653 1.9355692215
H -5.2333996157 -0.1107799805 2.7655811101
H -7.0053975706 1.2971996349 0.7825320672
H -5.6087133246 2.0111146758 1.6468132758
H -5.3278744208 1.5720290962 -1.1152562737
O 2.5402707038 -1.1584808607 -1.8914825914
C 0.1083146689 1.2233801241 1.7577942291
C 4.8357917407 1.3755486611 0.0845387554
C 6.2328347715 1.0166199272 0.7240369071
C 6.4188018112 -0.4635498251 0.2199051143
C 5.134612586 -0.6468577281 -0.6829190843
O 4.8861772221 0.7055896398 -1.2346633399
H 3.9530484055 0.5324806666 1.9611569761
H 4.0257112349 -1.6398737934 1.0242801784
H -0.4268089541 1.0684972467 0.7869524419
H 4.622429546 2.4550347104 -0.0383490892
H 7.0174039712 1.6786285773 0.3241234275
H 6.2267991302 1.097405545 1.8227547904
H 7.3344834639 -0.5755792179 -0.3819087769
H 6.447538718 -1.1922419537 1.045926208
H 5.2294896321 -1.3837668256 -1.5035120646
H 0.1438423385 2.3088700956 1.9821459612
H -0.4315501171 0.7018463708 2.5689810116
H 0.5802491038 1.7432960147 -1.3645424835
H -0.8175077074 2.2559985487 -2.4403593805
H -0.1617467993 0.5788061159 -2.5592686232
H -1.1246793447 -3.6789973527 -0.2909552439
H -0.0072475975 -3.4367129516 1.1138044643
H 0.6865902577 -2.7656734988 -1.50665575
H -0.0450179216 -1.208357915 -0.9942924291
$end

$rem
JOBTYPE                   OPT
METHOD                    B3LYP
DFT_D                     d3_op
BASIS                     STO-3G
GEOM_OPT_MAX_CYCLES       100
GEOM_OPT_TOL_GRADIENT     300
GEOM_OPT_TOL_DISPLACEMENT 1200
GEOM_OPT_TOL_ENERGY       100
SYMMETRY                  False
THRESH                    12
SCF_CONVERGENCE           8
MAX_SUB_FILE_NUM          128
MEM_STATIC                400
MEM_TOTAL                 4000
$end
--------------------------------------------------------------

   16   -1510.2927840640      7.88E-09 Convergence criterion met
 Total energy in the final basis set = -1510.29278406
   15   -1510.2871596951      4.72E-09 Convergence criterion met
 Total energy in the final basis set = -1510.28715970
   15   -1510.2856602246      2.14E-09 Convergence criterion met
 Total energy in the final basis set = -1510.28566022
   15   -1510.2309114009      6.82E-09 Convergence criterion met
 Total energy in the final basis set = -1510.23091140
   15   -1510.2866176234      4.25E-09 Convergence criterion met
 Total energy in the final basis set = -1510.28661762
   15   -1510.2865842294      2.42E-09 Convergence criterion met
 Total energy in the final basis set = -1510.28658423
   14   -1510.2887842446      9.37E-09 Convergence criterion met
 Total energy in the final basis set = -1510.28878424
   14   -1510.2907670190      5.52E-09 Convergence criterion met
   10   -1510.2990250043      8.51E-09 Convergence criterion met
 Total energy in the final basis set = -1510.29902500
    9   -1510.2990229826      7.24E-09 Convergence criterion met
 Total energy in the final basis set = -1510.29902298
   11   -1510.2990170281      4.89E-09 Convergence criterion met
 Total energy in the final basis set = -1510.29901703
    9   -1510.2990167274      8.47E-09 Convergence criterion met
 Total energy in the final basis set = -1510.29901673
   10   -1510.2990119299      8.42E-09 Convergence criterion met
 Total energy in the final basis set = -1510.29901193
    9   -1510.2990146790      8.28E-09 Convergence criterion met
 Total energy in the final basis set = -1510.29901468

             Standard Nuclear Orientation (Angstroms)
    I     Atom           X                Y                Z
 ----------------------------------------------------------------
    1      O      -1.6935270100    -0.9472407410    -0.8222920471
    2      C      -1.9992054049    -1.0649168176     0.3879136063
    3      C      -3.1842352968    -0.3396904410     1.1088891455
    4      C      -3.6665922003     0.9507875989     0.3310701831
    5      C      -2.7380044364     1.3661650285    -0.8683924263
    6      O      -1.4982442560     1.8232505493    -0.3050479736
    7      C      -0.5566554037     2.2089762276    -1.3806638556
    8      C       0.5963196309     3.0342888083    -0.7161456806
    9      O       1.3198100448     2.2417495689     0.3089503484
   10      C       2.2872370449     1.3916767032    -0.3138576921
   11      C       2.9980994511     0.5410504704     0.7908150421
   12      C       3.3901702982    -0.9056752000     0.2758471049
   13      C       2.8518031573    -1.2259708536    -1.1642098738
   14      O       3.5012265124    -1.5294361532    -2.1843287103
   15      O      -1.3608936699    -1.9276616802     1.3195452644
   16      O       1.4168571728    -1.1684970964    -1.1032968339
   17      O       2.5196352042     1.3710021036    -1.5436000082
   18      C       0.8049425312    -1.3866821470    -2.4340024448
   19      C       4.4426889765     1.1295694422     1.1098140709
   20      C       5.0052642259     0.4099742764     2.4005252199
   21      C       5.4342429823    -0.9865005019     1.8123145660
   22      C       4.9716140519    -0.8339814319     0.3121974572
   23      O       5.2668863178     0.5863893698     0.0080105857
   24      H       2.3550141601     0.5101702670     1.6874412563
   25      H       3.0020628749    -1.6770174681     0.9660782601
   26      H       4.4938041859     2.2356825229     1.1271600606
   27      H       5.8674374293     0.9626330202     2.8060895742
   28      H       4.2394505237     0.3210615127     3.1875032552
   29      H       6.5256021277    -1.1272703037     1.8656093392
   30      H       4.9425207711    -1.8325708436     2.3187776771
   31      H       5.4690624283    -1.4970821758    -0.4219458736
   32      O      -3.0313148625     1.4224294560    -2.0808006887
   33      C      -0.2879969486    -2.7182981564     0.6638464600
   34      C      -4.4932217915    -1.2399004096     1.0128096195
   35      C      -5.6086928066    -0.6197035118     1.9441550823
   36      C      -6.0912901155     0.6011977692     1.0755765734
   37      C      -5.1077635187     0.5009653218    -0.1541717050
   38      O      -4.9748967388    -0.9619109912    -0.3585493392
   39      H      -2.9034397359    -0.1278939473     2.1552969619
   40      H      -3.7259384764     1.8115160423     1.0218888586
   41      H       0.4125623434    -2.0720269381     0.0759775750
   42      H      -4.3125469089    -2.3236449737     1.1527364577
   43      H      -6.4199134596    -1.3462082947     2.1094062278
   44      H      -5.2048049520    -0.3118532727     2.9218875712
   45      H      -7.1341252774     0.4715908458     0.7445735278
   46      H      -6.0058472351     1.5634567613     1.6053342136
   47      H      -5.4423788604     0.9919463518    -1.0885469929
   48      H      -0.7258667407    -3.4825191153    -0.0101890227
   49      H       0.2485065928    -3.2276214426     1.4849091583
   50      H      -0.2854551149    -1.3271351824    -2.2393133689
   51      H       1.0766589759    -2.3784607296    -2.8479372028
   52      H       1.1223509893    -0.5998052013    -3.1470704413
   53      H       1.2947320396     3.3799571985    -1.5088689614
   54      H       0.1759192933     3.9074080803    -0.1779476640
   55      H      -1.0671545918     2.8225141542    -2.1552971153
   56      H      -0.1422148702     1.3039543778    -1.8755982325
 ----------------------------------------------------------------

    9   -1510.2990152104      9.18E-09 Convergence criterion met
 Total energy in the final basis set = -1510.29901521
 Final energy is   -1510.29901521042
 **  OPTIMIZATION CONVERGED  **

                    Orbital Energies (a.u.)
 --------------------------------------------------------------

 Alpha MOs
 -- Occupied --
-18.939 -18.937 -18.936 -18.921 -18.889 -18.886 -18.881 -18.879
-18.877 -18.866 -10.103 -10.103 -10.102 -10.094 -10.076 -10.068
-10.064 -10.061 -10.060 -10.056 -10.051 -10.045 -10.041 -10.039
-10.038 -10.033 -10.023 -10.021 -10.021 -10.019  -1.019  -1.013
 -1.009  -1.001  -0.972  -0.969  -0.941  -0.938  -0.938  -0.928
 -0.766  -0.762  -0.729  -0.723  -0.715  -0.706  -0.698  -0.658
 -0.657  -0.617  -0.597  -0.580  -0.548  -0.545  -0.539  -0.536
 -0.513  -0.509  -0.482  -0.478  -0.459  -0.456  -0.453  -0.452
 -0.438  -0.434  -0.431  -0.419  -0.411  -0.408  -0.405  -0.397
 -0.392  -0.380  -0.376  -0.365  -0.362  -0.357  -0.351  -0.348
 -0.345  -0.341  -0.335  -0.332  -0.332  -0.328  -0.325  -0.313
 -0.310  -0.307  -0.304  -0.298  -0.294  -0.287  -0.280  -0.277
 -0.271  -0.263  -0.255  -0.244  -0.241  -0.236  -0.233  -0.186
 -0.180  -0.173  -0.168  -0.159  -0.156  -0.152  -0.146  -0.146
 -0.143

          Ground-State Mulliken Net Atomic Charges

     Atom                 Charge (a.u.)
  ----------------------------------------
      1 O                    -0.215102
      2 C                     0.219209
      3 C                    -0.077542
      4 C                    -0.080293
      5 C                     0.215792
      6 O                    -0.179778
      7 C                    -0.050194
      8 C                    -0.048175
      9 O                    -0.167895
     10 C                     0.212401
     11 C                    -0.078300
     12 C                    -0.080036
     13 C                     0.219248
     14 O                    -0.202612
     15 O                    -0.169973
     16 O                    -0.178314
     17 O                    -0.214507
     18 C                    -0.138907
     19 C                     0.025606
     20 C                    -0.144010
     21 C                    -0.143487
     22 C                     0.024641
     23 O                    -0.186870
     24 H                     0.088232
     25 H                     0.083324
     26 H                     0.083158
     27 H                     0.078660
     28 H                     0.074052
     29 H                     0.078825
     30 H                     0.072990
     31 H                     0.091091
     32 O                    -0.214826
     33 C                    -0.149806
     34 C                     0.024993
     35 C                    -0.144113
     36 C                    -0.143441
     37 C                     0.024228
     38 O                    -0.189065
     39 H                     0.086977
     40 H                     0.083161
     41 H                     0.114301
     42 H                     0.082991
     43 H                     0.078045
     44 H                     0.073660
     45 H                     0.078020
     46 H                     0.072927
     47 H                     0.090147
     48 H                     0.078207
     49 H                     0.079932
     50 H                     0.114786
     51 H                     0.084867
     52 H                     0.090430
     53 H                     0.095717
     54 H                     0.091690
     55 H                     0.091784
     56 H                     0.093154
  ----------------------------------------
  Sum of atomic charges =    -0.000000

                    Cartesian Multipole Moments
 -----------------------------------------------------------------
    Charge (ESU x 10^10)
                -0.0000
    Dipole Moment (Debye)
         X      -0.6248      Y       0.2994      Z       4.2971
       Tot       4.3526
    Quadrupole Moments (Debye-Ang)
        XX    -164.1702     XY      -5.2271     YY    -150.1216
        XZ       2.3268     YZ      -1.7958     ZZ    -164.0217

 Total job time:  147.45s(wall), 7038.10s(cpu)
        *  Thank you very much for using Q-Chem.  Have a nice day.  *
