 Q-Chem 5.0, Q-Chem, Inc., Pleasanton, CA (2017)
 Q-Chem 5.0.1 for Intel X86 EM64T Linux

User input:
--------------------------------------------------------------
$molecule
0  1
O -3.94934 -3.66094 2.70899
C -3.26408 -4.56952 2.26188
C -3.36658 -6.02376 2.66595
C -2.24815 -6.58537 3.55901
C -1.24669 -5.58607 4.09432
O -0.25832 -5.38132 3.1742
C 0.68495 -4.3815 3.57402
C 1.80568 -4.27478 2.54509
O 1.46873 -3.29066 1.55471
C 1.18914 -2.05317 2.03387
C 0.98139 -1.03208 0.94077
C -0.15634 -0.03277 1.19618
C -0.67054 0.03329 2.62023
O -1.00465 1.05264 3.20662
O -2.3356 -4.29469 1.30981
O -1.11148 -1.13955 3.15085
O 1.49455 -1.69033 3.16652
C -1.74916 -1.26546 4.36827
C 2.17019 -0.0628 0.7706
C 2.17066 0.49761 -0.65011
C 0.94517 1.388 -0.60101
C 0.58814 1.28096 0.88764
O 1.82394 1.07166 1.52655
H 0.84209 -1.58048 -0.01992
H -1.03323 -0.22072 0.53958
H 3.15353 -0.52662 1.00428
H 3.07568 1.14122 -0.73683
H 2.17865 -0.25169 -1.47067
H 1.2532 2.42219 -0.8717
H 0.09477 1.06118 -1.2381
H 0.01968 2.18114 1.2086
O -1.2259 -5.15774 5.24408
C -2.2733 -3.11344 0.60398
C -4.59285 -6.27081 3.57433
C -5.00038 -7.74284 3.52191
C -3.88238 -8.36922 4.32248
C -3.10284 -7.11613 4.73256
O -4.09386 -6.13187 4.87863
H -3.51284 -6.60341 1.72715
H -1.68271 -7.42983 3.10452
H -2.17114 -2.25728 1.29082
H -5.46849 -5.63566 3.31548
H -5.94874 -7.84946 4.096
H -5.14163 -8.15257 2.49865
H -4.32356 -8.85363 5.22219
H -3.25133 -9.09912 3.77084
H -2.49548 -7.3355 5.63866
H -3.19736 -2.98416 0.00157
H -1.39969 -3.14065 -0.07893
H -1.99519 -2.33299 4.54165
H -2.69296 -0.67968 4.36945
H -1.08418 -0.91303 5.18527
H 2.727 -3.91737 3.05984
H 2.04848 -5.25908 2.09141
H 1.17979 -4.77639 4.49153
H 0.18495 -3.44337 3.87797
$end

$opt
CONSTRAINT
tors           1           2           3           4    -106.191
tors           3           4           5           6     -85.153
tors           4           5           6           7    +176.263
tors           5           6           7           8    +176.214
tors           6           7           8           9     +90.906
tors           7           8           9          10     +56.173
tors           8           9          10          11    +174.133
tors           9          10          11          12    +140.139
tors          11          12          13          14    +141.275
ENDCONSTRAINT
$end

$rem
JOBTYPE                   OPT
METHOD                    B3LYP
DFT_D                     d3_op
BASIS                     STO-3G
GEOM_OPT_MAX_CYCLES       100
GEOM_OPT_TOL_GRADIENT     300
GEOM_OPT_TOL_DISPLACEMENT 1200
GEOM_OPT_TOL_ENERGY       100
SYMMETRY                  False
THRESH                    12
SCF_CONVERGENCE           8
MAX_SUB_FILE_NUM          128
MEM_STATIC                400
MEM_TOTAL                 4000
$end
--------------------------------------------------------------

   15   -1510.1448840703      8.01E-09 Convergence criterion met
 Total energy in the final basis set = -1510.14488407
   14   -1510.2163509986      1.88E-09 Convergence criterion met
 Total energy in the final basis set = -1510.21635100
   15   -1510.2531786717      1.92E-09 Convergence criterion met
 Total energy in the final basis set = -1510.25317867
   15   -1510.2667778118      2.31E-09 Convergence criterion met
 Total energy in the final basis set = -1510.26677781
   14   -1510.2766149960      3.59E-09 Convergence criterion met
 Total energy in the final basis set = -1510.27661500
   13   -1510.2827927422      9.80E-09 Convergence criterion met
 Total energy in the final basis set = -1510.28279274
   12   -1510.2848440645      7.47E-09 Convergence criterion met
 Total energy in the final basis set = -1510.28484406
   13   -1510.2864713172      3.59E-09 Convergence criterion met
   11   -1510.2903545717      3.95E-09 Convergence criterion met
 Total energy in the final basis set = -1510.29035457
   10   -1510.2903588096      8.70E-09 Convergence criterion met
 Total energy in the final basis set = -1510.29035881
    9   -1510.2903606750      7.19E-09 Convergence criterion met
 Total energy in the final basis set = -1510.29036067
   10   -1510.2903619611      4.42E-09 Convergence criterion met
 Total energy in the final basis set = -1510.29036196
    9   -1510.2903633251      8.44E-09 Convergence criterion met
 Total energy in the final basis set = -1510.29036333
    9   -1510.2903648778      4.57E-09 Convergence criterion met
 Total energy in the final basis set = -1510.29036488

             Standard Nuclear Orientation (Angstroms)
    I     Atom           X                Y                Z
 ----------------------------------------------------------------
    1      O      -1.9164827365    -2.0994839359     0.0592680735
    2      C      -2.2779121829    -1.1677259956     0.8165164363
    3      C      -3.7089676520    -0.5355477126     0.9198225254
    4      C      -3.8567158051     0.9096862187     0.2748020435
    5      C      -2.6597965843     1.3399844503    -0.6487046462
    6      O      -1.6281913221     1.9058665903     0.1631514915
    7      C      -0.4456226784     2.2394987202    -0.6745500463
    8      C       0.5878555568     2.9408382479     0.2808882276
    9      O       1.5523865173     2.0158330295     0.9308704016
   10      C       2.2799499273     1.2395475056    -0.0325051928
   11      C       3.3616906098     0.4201896469     0.7456840485
   12      C       3.5642360672    -1.0641873965     0.2273782214
   13      C       2.6295079246    -1.5439385275    -0.9425142609
   14      O       2.9688765597    -2.2686039859    -1.9016410794
   15      O      -1.4606000215    -0.5390206479     1.7953568906
   16      O       1.2785092975    -1.1438824897    -0.6858287438
   17      O       2.1624185027     1.3452670448    -1.2732317832
   18      C       0.3504658827    -1.6225884181    -1.7394770137
   19      C       4.8128783056     1.0192816131     0.4739814217
   20      C       5.8040961793     0.4320342420     1.5553773547
   21      C       6.0078189840    -1.0333420820     1.0184721844
   22      C       5.0743954408    -1.0221407237    -0.2535897988
   23      O       5.2245912190     0.3546841693    -0.7812112942
   24      H       3.1071001475     0.4425553424     1.8194369683
   25      H       3.4307447369    -1.7784282512     1.0617845095
   26      H       4.8398580284     2.1202444416     0.3583624841
   27      H       6.7493968922     0.9975682129     1.5561100240
   28      H       5.3742750492     0.4592921431     2.5693818691
   29      H       7.0543168800    -1.2136928616     0.7254698726
   30      H       5.7081981091    -1.8017969144     1.7490578011
   31      H       5.3097058154    -1.7683914613    -1.0374814036
   32      O      -2.5813316788     1.2173170940    -1.8903895746
   33      C      -0.1079597474    -1.1483874874     1.8551973918
   34      C      -4.8176653757    -1.3451678003     0.1233834656
   35      C      -6.2153164718    -1.0010316958     0.7689194857
   36      C      -6.4091645352     0.4828463483     0.2788404214
   37      C      -5.1348593730     0.6768693045    -0.6361863374
   38      O      -4.8824231446    -0.6725258243    -1.1937893161
   39      H      -3.9571989586    -0.4808630627     1.9953511755
   40      H      -4.0069834706     1.6782725161     1.0534091997
   41      H       0.4405377714    -1.0837481433     0.8815892105
   42      H      -4.5923314316    -2.4219423589    -0.0025183533
   43      H      -6.9968059494    -1.6631993820     0.3631321808
   44      H      -6.2080922054    -1.0925561622     1.8667857844
   45      H      -7.3313225369     0.5982267258    -0.3123513817
   46      H      -6.4309715280     1.2043601351     1.1113610393
   47      H      -5.2444699902     1.4147581904    -1.4539797169
   48      H      -0.1725899357    -2.2111882459     2.1652110634
   49      H       0.4336228128    -0.5756303091     2.6296714126
   50      H      -0.5869496811    -1.9121856878    -1.2109300533
   51      H       0.7990254749    -2.4793625482    -2.2775702499
   52      H       0.1527006389    -0.8014653151    -2.4572237564
   53      H       1.1440298132     3.7137329141    -0.2947505213
   54      H       0.0457529462     3.4316904685     1.1142010897
   55      H      -0.7345268169     2.9359038486    -1.4915463860
   56      H      -0.0037751121     1.3344763816    -1.1383078259
 ----------------------------------------------------------------

    8   -1510.2903654942      6.14E-09 Convergence criterion met
 Total energy in the final basis set = -1510.29036549
 Final energy is   -1510.29036549420
 **  OPTIMIZATION CONVERGED  **

                    Orbital Energies (a.u.)
 --------------------------------------------------------------

 Alpha MOs
 -- Occupied --
-18.941 -18.937 -18.936 -18.931 -18.891 -18.885 -18.882 -18.878
-18.875 -18.873 -10.106 -10.103 -10.103 -10.096 -10.079 -10.069
-10.064 -10.060 -10.057 -10.057 -10.043 -10.042 -10.042 -10.041
-10.038 -10.037 -10.024 -10.022 -10.020 -10.019  -1.018  -1.013
 -1.011  -1.007  -0.973  -0.968  -0.943  -0.938  -0.937  -0.933
 -0.767  -0.762  -0.729  -0.723  -0.715  -0.705  -0.698  -0.657
 -0.654  -0.620  -0.598  -0.584  -0.547  -0.546  -0.540  -0.537
 -0.514  -0.511  -0.480  -0.478  -0.460  -0.458  -0.453  -0.452
 -0.436  -0.429  -0.427  -0.423  -0.415  -0.408  -0.405  -0.398
 -0.392  -0.380  -0.374  -0.369  -0.360  -0.358  -0.357  -0.349
 -0.346  -0.343  -0.337  -0.334  -0.330  -0.328  -0.327  -0.314
 -0.311  -0.307  -0.305  -0.300  -0.296  -0.292  -0.280  -0.276
 -0.272  -0.263  -0.253  -0.249  -0.238  -0.236  -0.232  -0.184
 -0.180  -0.174  -0.171  -0.160  -0.159  -0.152  -0.149  -0.147
 -0.142

          Ground-State Mulliken Net Atomic Charges

     Atom                 Charge (a.u.)
  ----------------------------------------
      1 O                    -0.218187
      2 C                     0.212520
      3 C                    -0.079065
      4 C                    -0.077294
      5 C                     0.203784
      6 O                    -0.172771
      7 C                    -0.052953
      8 C                    -0.047690
      9 O                    -0.171041
     10 C                     0.212719
     11 C                    -0.079941
     12 C                    -0.079209
     13 C                     0.220151
     14 O                    -0.206482
     15 O                    -0.165834
     16 O                    -0.177238
     17 O                    -0.213843
     18 C                    -0.147492
     19 C                     0.026260
     20 C                    -0.143800
     21 C                    -0.143933
     22 C                     0.024519
     23 O                    -0.186486
     24 H                     0.085660
     25 H                     0.084451
     26 H                     0.083084
     27 H                     0.078931
     28 H                     0.073896
     29 H                     0.079313
     30 H                     0.073411
     31 H                     0.092932
     32 O                    -0.209358
     33 C                    -0.150009
     34 C                     0.024021
     35 C                    -0.143004
     36 C                    -0.145197
     37 C                     0.025655
     38 O                    -0.185844
     39 H                     0.085233
     40 H                     0.085477
     41 H                     0.113161
     42 H                     0.088151
     43 H                     0.078173
     44 H                     0.072578
     45 H                     0.078115
     46 H                     0.072562
     47 H                     0.086238
     48 H                     0.076828
     49 H                     0.082383
     50 H                     0.114065
     51 H                     0.096276
     52 H                     0.086411
     53 H                     0.086733
     54 H                     0.098284
     55 H                     0.090135
     56 H                     0.104562
  ----------------------------------------
  Sum of atomic charges =    -0.000000

                    Cartesian Multipole Moments
 -----------------------------------------------------------------
    Charge (ESU x 10^10)
                -0.0000
    Dipole Moment (Debye)
         X      -0.3146      Y       1.3113      Z       4.7368
       Tot       4.9250
    Quadrupole Moments (Debye-Ang)
        XX    -149.0524     XY      -3.4047     YY    -154.7884
        XZ       3.4162     YZ      -4.3131     ZZ    -167.4655

 Total job time:  71.48s(wall), 3404.81s(cpu)
        *  Thank you very much for using Q-Chem.  Have a nice day.  *
