 Q-Chem 5.0, Q-Chem, Inc., Pleasanton, CA (2017)
 Q-Chem 5.0.1 for Intel X86 EM64T Linux

User input:
--------------------------------------------------------------
$molecule
0  1
O -1.9164827365 -2.0994839359 0.0592680735
C -2.2779121829 -1.1677259956 0.8165164363
C -3.708967652 -0.5355477126 0.9198225254
C -3.8567158051 0.9096862187 0.2748020435
C -2.6597965843 1.3399844503 -0.6487046462
O -1.6281913221 1.9058665903 0.1631514915
C -0.4456226784 2.2394987202 -0.6745500463
C 0.5878555568 2.9408382479 0.2808882276
O 1.5523865173 2.0158330295 0.9308704016
C 2.2799499273 1.2395475056 -0.0325051928
C 3.3616906098 0.4201896469 0.7456840485
C 3.5642360672 -1.0641873965 0.2273782214
C 2.6295079246 -1.5439385275 -0.9425142609
O 2.9688765597 -2.2686039859 -1.9016410794
O -1.4606000215 -0.5390206479 1.7953568906
O 1.2785092975 -1.1438824897 -0.6858287438
O 2.1624185027 1.3452670448 -1.2732317832
C 0.3504658827 -1.6225884181 -1.7394770137
C 4.8128783056 1.0192816131 0.4739814217
C 5.8040961793 0.432034242 1.5553773547
C 6.007818984 -1.033342082 1.0184721844
C 5.0743954408 -1.0221407237 -0.2535897988
O 5.224591219 0.3546841693 -0.7812112942
H 3.1071001475 0.4425553424 1.8194369683
H 3.4307447369 -1.7784282512 1.0617845095
H 4.8398580284 2.1202444416 0.3583624841
H 6.7493968922 0.9975682129 1.556110024
H 5.3742750492 0.4592921431 2.5693818691
H 7.05431688 -1.2136928616 0.7254698726
H 5.7081981091 -1.8017969144 1.7490578011
H 5.3097058154 -1.7683914613 -1.0374814036
O -2.5813316788 1.217317094 -1.8903895746
C -0.1079597474 -1.1483874874 1.8551973918
C -4.8176653757 -1.3451678003 0.1233834656
C -6.2153164718 -1.0010316958 0.7689194857
C -6.4091645352 0.4828463483 0.2788404214
C -5.134859373 0.6768693045 -0.6361863374
O -4.8824231446 -0.6725258243 -1.1937893161
H -3.9571989586 -0.4808630627 1.9953511755
H -4.0069834706 1.6782725161 1.0534091997
H 0.4405377714 -1.0837481433 0.8815892105
H -4.5923314316 -2.4219423589 -0.0025183533
H -6.9968059494 -1.663199382 0.3631321808
H -6.2080922054 -1.0925561622 1.8667857844
H -7.3313225369 0.5982267258 -0.3123513817
H -6.430971528 1.2043601351 1.1113610393
H -5.2444699902 1.4147581904 -1.4539797169
H -0.1725899357 -2.2111882459 2.1652110634
H 0.4336228128 -0.5756303091 2.6296714126
H -0.5869496811 -1.9121856878 -1.2109300533
H 0.7990254749 -2.4793625482 -2.2775702499
H 0.1527006389 -0.8014653151 -2.4572237564
H 1.1440298132 3.7137329141 -0.2947505213
H 0.0457529462 3.4316904685 1.1142010897
H -0.7345268169 2.9359038486 -1.491546386
H -0.0037751121 1.3344763816 -1.1383078259
$end

$rem
JOBTYPE                   OPT
METHOD                    B3LYP
DFT_D                     d3_op
BASIS                     STO-3G
GEOM_OPT_MAX_CYCLES       100
GEOM_OPT_TOL_GRADIENT     300
GEOM_OPT_TOL_DISPLACEMENT 1200
GEOM_OPT_TOL_ENERGY       100
SYMMETRY                  False
THRESH                    12
SCF_CONVERGENCE           8
MAX_SUB_FILE_NUM          128
MEM_STATIC                400
MEM_TOTAL                 4000
$end
--------------------------------------------------------------

   15   -1510.2903115583      9.62E-09 Convergence criterion met
 Total energy in the final basis set = -1510.29031156
   15   -1510.2833723933      5.25E-09 Convergence criterion met
 Total energy in the final basis set = -1510.28337239
   15   -1510.2865175505      2.05E-09 Convergence criterion met
 Total energy in the final basis set = -1510.28651755
   15   -1510.2869485902      3.52E-09 Convergence criterion met
 Total energy in the final basis set = -1510.28694859
   15   -1510.2885020979      2.82E-09 Convergence criterion met
 Total energy in the final basis set = -1510.28850210
   14   -1510.2894715271      8.13E-09 Convergence criterion met
 Total energy in the final basis set = -1510.28947153
   14   -1510.2892826222      8.56E-09 Convergence criterion met
 Total energy in the final basis set = -1510.28928262
   15   -1510.2819461402      4.89E-09 Convergence criterion met
   11   -1510.2971797429      8.90E-09 Convergence criterion met
 Total energy in the final basis set = -1510.29717974
   11   -1510.2971902681      9.07E-09 Convergence criterion met
 Total energy in the final basis set = -1510.29719027
   12   -1510.2972052670      3.73E-09 Convergence criterion met
 Total energy in the final basis set = -1510.29720527
   11   -1510.2972043790      7.73E-09 Convergence criterion met
 Total energy in the final basis set = -1510.29720438
   11   -1510.2972127356      4.14E-09 Convergence criterion met
 Total energy in the final basis set = -1510.29721274
   11   -1510.2972153925      4.86E-09 Convergence criterion met
 Total energy in the final basis set = -1510.29721539

             Standard Nuclear Orientation (Angstroms)
    I     Atom           X                Y                Z
 ----------------------------------------------------------------
    1      O      -1.6723849818    -2.0833612153     0.6319465347
    2      C      -2.0954718308    -1.0467245737     1.1921829122
    3      C      -3.5561594005    -0.4754168107     1.1508596414
    4      C      -3.7516001061     0.7352804429     0.1325947184
    5      C      -2.4697345019     1.0959984053    -0.6959424902
    6      O      -1.6553284901     1.9915502313     0.0632601049
    7      C      -0.4914088979     2.4369081368    -0.7454680935
    8      C       0.5917084747     3.0325817969     0.2184896037
    9      O       1.4448497441     2.0043583764     0.8590575418
   10      C       2.3932906980     1.4820724317    -0.0865262185
   11      C       3.3432996567     0.4987894095     0.6749863867
   12      C       3.3359820499    -0.9927446143     0.1352695519
   13      C       2.3643572635    -1.3020141052    -1.0583107536
   14      O       2.6419911672    -1.9392023676    -2.0960850907
   15      O      -1.3056797696    -0.1818615309     2.0012259190
   16      O       1.0590371491    -0.7926182923    -0.7529287050
   17      O       2.4508690978     1.8306108608    -1.2852491837
   18      C       0.0434615062    -1.3000704778    -1.7137145141
   19      C       4.8683213597     0.8856648941     0.4285595771
   20      C       5.7498887462     0.1556584197     1.5172440582
   21      C       5.7388318731    -1.3224350487     0.9758633702
   22      C       4.8448633709    -1.1663358296    -0.3148788231
   23      O       5.2018763081     0.1778230082    -0.8266758826
   24      H       3.0804591412     0.5336190181     1.7461888012
   25      H       3.0755559955    -1.6899075984     0.9540801025
   26      H       5.0527130000     1.9721583754     0.3210850400
   27      H       6.7687084403     0.5746042086     1.5295411888
   28      H       5.3196823962     0.2436565766     2.5278246673
   29      H       6.7515175050    -1.6608557705     0.7048440140
   30      H       5.3079960744    -2.0361531516     1.6961179741
   31      H       4.9858824444    -1.9321069750    -1.1024247443
   32      O      -2.1832453411     0.6951407866    -1.8481743064
   33      C       0.1068077414    -0.6381476510     2.0142588740
   34      C      -4.5746809131    -1.5346786308     0.5545962387
   35      C      -6.0405099944    -1.0874712591     0.9337487173
   36      C      -6.2458548375     0.1303528622    -0.0421584672
   37      C      -4.8706464321     0.1364417762    -0.8187446031
   38      O      -4.5066857786    -1.2959830313    -0.9056401635
   39      H      -3.8352895955    -0.1602662572     2.1723477769
   40      H      -4.0890667426     1.6414340554     0.6664834555
   41      H       0.5061591783    -0.7343593263     0.9741561532
   42      H      -4.3172207274    -2.5867753591     0.7838988297
   43      H      -6.7558773390    -1.8982266266     0.7229387791
   44      H      -6.1293384653    -0.8044668941     1.9948437899
   45      H      -7.0799697667    -0.0468081384    -0.7394626600
   46      H      -6.4264864349     1.0777614129     0.4906752412
   47      H      -4.8952220834     0.5883449901    -1.8291552718
   48      H       0.2064713657    -1.6067851761     2.5451446811
   49      H       0.6637871957     0.1445342989     2.5594629619
   50      H      -0.5701495188    -2.0601236318    -1.1864505378
   51      H       0.5507771401    -1.7385169597    -2.5938239132
   52      H      -0.6194735567    -0.4567557774    -2.0024338526
   53      H       1.2178721105     3.7461571062    -0.3601609688
   54      H       0.0950546538     3.5696149308     1.0520654316
   55      H      -0.8164079293     3.2230660576    -1.4626164996
   56      H      -0.0608431017     1.5980344572    -1.3293233938
 ----------------------------------------------------------------

   11   -1510.2972144791      2.87E-09 Convergence criterion met
 Total energy in the final basis set = -1510.29721448
 Final energy is   -1510.29721447910
 **  OPTIMIZATION CONVERGED  **

                    Orbital Energies (a.u.)
 --------------------------------------------------------------

 Alpha MOs
 -- Occupied --
-18.941 -18.939 -18.936 -18.929 -18.889 -18.886 -18.883 -18.882
-18.876 -18.869 -10.105 -10.105 -10.102 -10.095 -10.079 -10.075
-10.063 -10.059 -10.059 -10.058 -10.042 -10.041 -10.040 -10.038
-10.038 -10.037 -10.022 -10.021 -10.021 -10.019  -1.020  -1.015
 -1.010  -1.005  -0.972  -0.969  -0.944  -0.939  -0.937  -0.930
 -0.766  -0.763  -0.730  -0.724  -0.715  -0.706  -0.700  -0.653
 -0.651  -0.620  -0.599  -0.583  -0.549  -0.545  -0.539  -0.537
 -0.512  -0.512  -0.480  -0.475  -0.461  -0.456  -0.454  -0.453
 -0.435  -0.430  -0.429  -0.421  -0.418  -0.407  -0.402  -0.399
 -0.395  -0.376  -0.371  -0.369  -0.366  -0.357  -0.354  -0.348
 -0.345  -0.343  -0.336  -0.333  -0.331  -0.330  -0.328  -0.314
 -0.310  -0.307  -0.305  -0.300  -0.296  -0.288  -0.280  -0.275
 -0.273  -0.260  -0.254  -0.251  -0.238  -0.235  -0.233  -0.186
 -0.178  -0.174  -0.170  -0.161  -0.161  -0.153  -0.148  -0.145
 -0.143

          Ground-State Mulliken Net Atomic Charges

     Atom                 Charge (a.u.)
  ----------------------------------------
      1 O                    -0.218035
      2 C                     0.205905
      3 C                    -0.078437
      4 C                    -0.077637
      5 C                     0.210691
      6 O                    -0.166994
      7 C                    -0.051363
      8 C                    -0.047241
      9 O                    -0.170459
     10 C                     0.209779
     11 C                    -0.079870
     12 C                    -0.078799
     13 C                     0.218162
     14 O                    -0.204073
     15 O                    -0.169104
     16 O                    -0.177565
     17 O                    -0.213219
     18 C                    -0.152005
     19 C                     0.026260
     20 C                    -0.143958
     21 C                    -0.144008
     22 C                     0.024328
     23 O                    -0.185684
     24 H                     0.085373
     25 H                     0.085433
     26 H                     0.083244
     27 H                     0.078681
     28 H                     0.073327
     29 H                     0.079155
     30 H                     0.073301
     31 H                     0.092728
     32 O                    -0.212904
     33 C                    -0.148677
     34 C                     0.024619
     35 C                    -0.143911
     36 C                    -0.144350
     37 C                     0.025480
     38 O                    -0.186131
     39 H                     0.085409
     40 H                     0.086012
     41 H                     0.110582
     42 H                     0.087833
     43 H                     0.078246
     44 H                     0.072976
     45 H                     0.078364
     46 H                     0.072758
     47 H                     0.086509
     48 H                     0.074355
     49 H                     0.084588
     50 H                     0.100652
     51 H                     0.098149
     52 H                     0.102667
     53 H                     0.092012
     54 H                     0.095769
     55 H                     0.086292
     56 H                     0.104783
  ----------------------------------------
  Sum of atomic charges =     0.000000

                    Cartesian Multipole Moments
 -----------------------------------------------------------------
    Charge (ESU x 10^10)
                 0.0000
    Dipole Moment (Debye)
         X      -1.0335      Y       1.9026      Z       4.0879
       Tot       4.6259
    Quadrupole Moments (Debye-Ang)
        XX    -147.7609     XY      -5.9853     YY    -156.1433
        XZ       7.3760     YZ      -4.5554     ZZ    -166.3549

 Total job time:  116.32s(wall), 5551.59s(cpu)
        *  Thank you very much for using Q-Chem.  Have a nice day.  *
