 Q-Chem 5.0, Q-Chem, Inc., Pleasanton, CA (2017)
 Q-Chem 5.0.1 for Intel X86 EM64T Linux

User input:
--------------------------------------------------------------
$molecule
0  1
O 1.8640117482 2.0763356558 -0.2563068593
C 2.2116270299 1.3020300905 0.6662053091
C 3.6288492915 0.6822607025 0.8982310117
C 3.794503052 -0.8331668344 0.4530993919
C 2.6618314923 -1.4131751527 -0.4719891676
O 1.5780399565 -1.8765418837 0.3399446676
C 0.4480200164 -2.3246351813 -0.5201864916
C -0.6023878033 -2.9887509619 0.443484133
O -1.6003493406 -2.0616946953 1.037112606
C -2.3028309936 -1.3256889075 0.0221814534
C -3.3290110499 -0.3877471494 0.7405083717
C -3.4373374073 1.0803284101 0.1513006666
C -2.5452601155 1.421972439 -1.0974412197
O -2.890198706 2.1216006953 -2.0733300721
O 1.3823693305 0.8774533026 1.7406883673
O -1.2162628202 0.9242679263 -0.9053699196
O -2.2006123056 -1.5384185335 -1.2060008833
C -0.322348753 1.2984762092 -2.0296834358
C -4.822908395 -0.9016455395 0.5181352252
C -5.743088283 -0.2269051769 1.6100106558
C -5.8413552683 1.2426488651 1.0558214634
C -4.9687110657 1.1343460768 -0.2549723602
O -5.2317989264 -0.2412657599 -0.7400801101
H -3.071004042 -0.3650166653 1.8135344954
H -3.2001641515 1.8231810521 0.9363617412
H -4.9218092806 -2.0011476744 0.4307945496
H -6.72967447 -0.7166180186 1.634512493
H -5.2990968045 -0.2756999229 2.6170351419
H -6.879845609 1.5121847966 0.8062824508
H -5.4410392877 1.9899675373 1.7594347682
H -5.1882671055 1.8753046369 -1.0483472356
O 2.6687867969 -1.473720375 -1.7207779779
C 0.0201870683 1.458143942 1.6383208075
C 4.7747038585 1.382913389 0.0521977574
C 6.1370810248 1.1374916283 0.808971289
C 6.345762523 -0.4004966484 0.5445759511
C 5.1246265175 -0.7224514739 -0.4061102042
O 4.9069390041 0.5373498685 -1.1552128007
H 3.8374769809 0.7593566774 1.9803781726
H 3.8976055349 -1.4886173453 1.3364202309
H -0.4732563523 1.2019936431 0.6663517978
H 4.5559505364 2.4307879823 -0.2306183854
H 6.9417428188 1.7362963761 0.3530885414
H 6.0747816658 1.3843855973 1.8808156499
H 7.2996012178 -0.5998009663 0.0310953296
H 6.3123905383 -0.9972776731 1.4703036062
H 5.2773255138 -1.5640727222 -1.1087369401
H 0.05499932 2.5607682198 1.7519230906
H -0.5476045637 1.023103357 2.4805418599
H 0.6167960937 1.6746597142 -1.5639203817
H -0.8127214744 2.0740872568 -2.6485663516
H -0.1209880453 0.4009890258 -2.6473043869
H -1.131170013 -3.7956639099 -0.111688806
H -0.0736471063 -3.4380247393 1.3083255353
H 0.7980544389 -3.0725981113 -1.2641768521
H -0.0051198397 -1.475304438 -1.0711758335
$end

$rem
JOBTYPE                   OPT
METHOD                    B3LYP
DFT_D                     d3_op
BASIS                     STO-3G
GEOM_OPT_MAX_CYCLES       100
GEOM_OPT_TOL_GRADIENT     300
GEOM_OPT_TOL_DISPLACEMENT 1200
GEOM_OPT_TOL_ENERGY       100
SYMMETRY                  False
THRESH                    12
SCF_CONVERGENCE           8
MAX_SUB_FILE_NUM          128
MEM_STATIC                400
MEM_TOTAL                 4000
$end
--------------------------------------------------------------

   16   -1510.2896475329      8.26E-09 Convergence criterion met
 Total energy in the final basis set = -1510.28964753
   15   -1510.2800627364      4.81E-09 Convergence criterion met
 Total energy in the final basis set = -1510.28006274
   14   -1510.2852666421      7.65E-09 Convergence criterion met
 Total energy in the final basis set = -1510.28526664
   15   -1510.2778859512      3.39E-09 Convergence criterion met
 Total energy in the final basis set = -1510.27788595
   15   -1510.2889357254      2.63E-09 Convergence criterion met
 Total energy in the final basis set = -1510.28893573
   15   -1510.2897485689      5.07E-09 Convergence criterion met
 Total energy in the final basis set = -1510.28974857
   15   -1510.2722928269      3.62E-09 Convergence criterion met
 Total energy in the final basis set = -1510.27229283
   15   -1510.2864486864      5.52E-09 Convergence criterion met
   12   -1510.2970185885      9.86E-09 Convergence criterion met
 Total energy in the final basis set = -1510.29701859
   12   -1510.2970818485      6.25E-09 Convergence criterion met
 Total energy in the final basis set = -1510.29708185
   11   -1510.2970869426      8.59E-09 Convergence criterion met
 Total energy in the final basis set = -1510.29708694
   11   -1510.2970946913      3.66E-09 Convergence criterion met
 Total energy in the final basis set = -1510.29709469
   11   -1510.2970923181      5.58E-09 Convergence criterion met
 Total energy in the final basis set = -1510.29709232
   10   -1510.2970943210      7.45E-09 Convergence criterion met
 Total energy in the final basis set = -1510.29709432

             Standard Nuclear Orientation (Angstroms)
    I     Atom           X                Y                Z
 ----------------------------------------------------------------
    1      O       1.7560355359     1.8796397259     0.0571865555
    2      C       2.1237648688     1.0753300740     0.9457896069
    3      C       3.5629033404     0.4869975834     1.1350978000
    4      C       3.8514302175    -0.7714813268     0.2050531585
    5      C       2.6397394843    -1.1994533083    -0.6969634771
    6      O       1.6377235757    -1.7775554037     0.1471545558
    7      C       0.5249566482    -2.3137785464    -0.6747115974
    8      C      -0.5520198292    -2.8989541925     0.3012288598
    9      O      -1.3993928792    -1.8526949512     0.9202358330
   10      C      -2.4170565379    -1.4347247326    -0.0039923050
   11      C      -3.3536159069    -0.4174067899     0.7301915476
   12      C      -3.4315424037     1.0136099110     0.0529443310
   13      C      -2.5040124163     1.2454694232    -1.1910928317
   14      O      -2.8077597148     1.8429737131    -2.2447422573
   15      O       1.2801746175     0.5510563201     1.9638288921
   16      O      -1.1947730967     0.7317270360    -0.9101058823
   17      O      -2.5399821160    -1.8897613797    -1.1615972309
   18      C      -0.2241586827     1.1113331524    -1.9695381556
   19      C      -4.8746109720    -0.8736681786     0.6088365900
   20      C      -5.7306373443    -0.0520594309     1.6524994002
   21      C      -5.8138097519     1.3507653680     0.9420456289
   22      C      -4.9614792866     1.0811070901    -0.3579920777
   23      O      -5.2875408418    -0.3226013727    -0.7003373386
   24      H      -3.0264920908    -0.3450809267     1.7815724499
   25      H      -3.1831546840     1.7968185823     0.7939061460
   26      H      -5.0257201090    -1.9702834344     0.6325660293
   27      H      -6.7275225580    -0.5049087533     1.7730634411
   28      H      -5.2435083483    -0.0012566756     2.6392489932
   29      H      -6.8516001522     1.6067646618     0.6754697566
   30      H      -5.3943874484     2.1652750059     1.5537515739
   31      H      -5.1603347476     1.7489602648    -1.2189171350
   32      O       2.5384168526    -1.0987662306    -1.9384834211
   33      C      -0.1098960506     1.0488315527     1.8034563230
   34      C       4.6668107316     1.4981809083     0.6067104710
   35      C       6.0750954805     1.0260063765     1.1454641073
   36      C       6.3560609614    -0.2138095047     0.2159007169
   37      C       5.0524264599    -0.2283136371    -0.6731719095
   38      O       4.7303341837     1.2072071628    -0.8431748292
   39      H       3.7001197013     0.2292094854     2.1999078525
   40      H       4.1448711189    -1.6429303093     0.8182127109
   41      H      -0.5034599795     0.8760684174     0.7710859645
   42      H       4.4248923214     2.5653241288     0.7750066192
   43      H       6.8275099855     1.8175753307     1.0022904382
   44      H       6.0416058966     0.7580576764     2.2135936533
   45      H       7.2472812762    -0.0531778396    -0.4114836797
   46      H       6.4860051744    -1.1502722104     0.7817250496
   47      H       5.1459184451    -0.7201425927    -1.6607901001
   48      H      -0.1674233746     2.1311497455     2.0397112987
   49      H      -0.7110884958     0.4812245434     2.5361853315
   50      H       0.6817085160     1.4749263233    -1.4345917183
   51      H      -0.6632467454     1.8976078266    -2.6127119333
   52      H       0.0207252910     0.2259264827    -2.5886024132
   53      H      -1.1827318976    -3.6191148934    -0.2637867748
   54      H      -0.0513120948    -3.4201338894     1.1422206904
   55      H       0.8945125877    -3.1189998256    -1.3475151194
   56      H       0.0692442028    -1.5230417684    -1.3054865068
 ----------------------------------------------------------------

    9   -1510.2970933852      6.01E-09 Convergence criterion met
 Total energy in the final basis set = -1510.29709339
 Final energy is   -1510.29709338520
 **  OPTIMIZATION CONVERGED  **

                    Orbital Energies (a.u.)
 --------------------------------------------------------------

 Alpha MOs
 -- Occupied --
-18.943 -18.934 -18.934 -18.934 -18.890 -18.886 -18.885 -18.878
-18.874 -18.873 -10.107 -10.100 -10.100 -10.099 -10.077 -10.073
-10.063 -10.060 -10.059 -10.058 -10.044 -10.043 -10.043 -10.040
-10.039 -10.037 -10.023 -10.022 -10.020 -10.019  -1.019  -1.015
 -1.010  -1.007  -0.973  -0.969  -0.943  -0.940  -0.934  -0.933
 -0.767  -0.763  -0.730  -0.724  -0.715  -0.706  -0.699  -0.656
 -0.655  -0.619  -0.598  -0.583  -0.549  -0.545  -0.539  -0.537
 -0.513  -0.512  -0.481  -0.477  -0.460  -0.458  -0.455  -0.453
 -0.436  -0.431  -0.429  -0.424  -0.416  -0.406  -0.404  -0.399
 -0.394  -0.380  -0.373  -0.370  -0.361  -0.357  -0.353  -0.349
 -0.345  -0.345  -0.336  -0.333  -0.330  -0.329  -0.326  -0.314
 -0.311  -0.308  -0.305  -0.301  -0.295  -0.289  -0.281  -0.277
 -0.272  -0.262  -0.255  -0.249  -0.240  -0.236  -0.233  -0.181
 -0.180  -0.177  -0.172  -0.163  -0.158  -0.153  -0.149  -0.146
 -0.143

          Ground-State Mulliken Net Atomic Charges

     Atom                 Charge (a.u.)
  ----------------------------------------
      1 O                    -0.220442
      2 C                     0.211307
      3 C                    -0.078532
      4 C                    -0.078102
      5 C                     0.205820
      6 O                    -0.172855
      7 C                    -0.049761
      8 C                    -0.047854
      9 O                    -0.170298
     10 C                     0.210100
     11 C                    -0.079766
     12 C                    -0.078974
     13 C                     0.218456
     14 O                    -0.204217
     15 O                    -0.164602
     16 O                    -0.176318
     17 O                    -0.215100
     18 C                    -0.147270
     19 C                     0.026381
     20 C                    -0.144245
     21 C                    -0.143777
     22 C                     0.024540
     23 O                    -0.185739
     24 H                     0.085240
     25 H                     0.085207
     26 H                     0.083500
     27 H                     0.078827
     28 H                     0.073413
     29 H                     0.079259
     30 H                     0.073209
     31 H                     0.092458
     32 O                    -0.209954
     33 C                    -0.146729
     34 C                     0.025632
     35 C                    -0.144100
     36 C                    -0.144015
     37 C                     0.024583
     38 O                    -0.185953
     39 H                     0.086269
     40 H                     0.084928
     41 H                     0.112121
     42 H                     0.085181
     43 H                     0.078140
     44 H                     0.073040
     45 H                     0.078325
     46 H                     0.072697
     47 H                     0.088821
     48 H                     0.075244
     49 H                     0.082995
     50 H                     0.114911
     51 H                     0.098231
     52 H                     0.086575
     53 H                     0.093477
     54 H                     0.094291
     55 H                     0.087162
     56 H                     0.098259
  ----------------------------------------
  Sum of atomic charges =    -0.000000

                    Cartesian Multipole Moments
 -----------------------------------------------------------------
    Charge (ESU x 10^10)
                -0.0000
    Dipole Moment (Debye)
         X       0.7829      Y      -1.1214      Z       4.4612
       Tot       4.6662
    Quadrupole Moments (Debye-Ang)
        XX    -150.4124     XY      -7.1889     YY    -155.1358
        XZ      -5.1199     YZ       3.5710     ZZ    -166.9870

 Total job time:  96.77s(wall), 4616.46s(cpu)
        *  Thank you very much for using Q-Chem.  Have a nice day.  *
