 Q-Chem 5.0, Q-Chem, Inc., Pleasanton, CA (2017)
 Q-Chem 5.0.1 for Intel X86 EM64T Linux

User input:
--------------------------------------------------------------
$molecule
0  1
O -3.94934 -3.66094 2.70899
C -3.26408 -4.56952 2.26188
C -3.36658 -6.02376 2.66595
C -2.30095 -6.56035 3.63566
C -1.35687 -5.54002 4.23209
O -0.31528 -5.31629 3.37742
C 0.56721 -4.28135 3.82393
C 1.79587 -4.21325 2.92289
O 1.53966 -3.34089 1.81103
C 1.13811 -2.08657 2.13445
C 0.89099 -1.21753 0.92435
C -0.36438 -0.33677 1.00539
C -0.97496 -0.18176 2.38375
O -1.45208 0.84906 2.83578
O -2.3544 -4.2983 1.29396
O -1.32771 -1.33408 3.01608
O 1.32925 -1.5862 3.23908
C -2.03161 -1.39103 4.20303
C 1.97801 -0.14342 0.71412
C 2.01071 0.26823 -0.75612
C 0.6995 1.01936 -0.86587
C 0.25817 1.01674 0.604
O 1.4646 1.01291 1.32733
H 0.87489 -1.87637 0.02508
H -1.16151 -0.65862 0.30603
H 2.98795 -0.46835 1.04759
H 2.84798 0.99479 -0.86498
H 2.14719 -0.55568 -1.48918
H 0.91644 2.05125 -1.22078
H -0.06774 0.54393 -1.51479
H -0.42169 1.87557 0.79595
O -1.42336 -5.10398 5.37721
C -2.42894 -3.19659 0.47267
C -4.64428 -6.28132 3.49907
C -5.03044 -7.75839 3.43072
C -3.95417 -8.36699 4.29912
C -3.22069 -7.10128 4.75359
O -4.23161 -6.13015 4.83175
H -3.4567 -6.61319 1.72608
H -1.69021 -7.3951 3.22402
H -2.50199 -2.27362 1.07205
H -5.50974 -5.65843 3.18221
H -6.00937 -7.87183 3.94961
H -5.10819 -8.17685 2.40422
H -4.44219 -8.85978 5.16957
H -3.27768 -9.08517 3.78736
H -2.66905 -7.30867 5.69739
H -3.3337 -3.26788 -0.16753
H -1.53108 -3.16124 -0.17761
H -2.18354 -2.45081 4.49001
H -3.02695 -0.91268 4.08229
H -1.46232 -0.88065 5.00892
H 2.63617 -3.76785 3.5033
H 2.12434 -5.22135 2.59198
H 0.97285 -4.61953 4.8059
H 0.03279 -3.33817 4.0297
$end

$opt
CONSTRAINT
tors           1           2           3           4    -102.152
tors           3           4           5           6     -84.906
tors           4           5           6           7    +175.280
tors           5           6           7           8    +172.563
tors           6           7           8           9     +88.068
tors           7           8           9          10     +55.183
tors           8           9          10          11    +179.750
tors           9          10          11          12    +138.023
tors          11          12          13          14    +140.940
ENDCONSTRAINT
$end

$rem
JOBTYPE                   OPT
METHOD                    B3LYP
DFT_D                     d3_op
BASIS                     STO-3G
GEOM_OPT_MAX_CYCLES       100
GEOM_OPT_TOL_GRADIENT     300
GEOM_OPT_TOL_DISPLACEMENT 1200
GEOM_OPT_TOL_ENERGY       100
SYMMETRY                  False
THRESH                    12
SCF_CONVERGENCE           8
MAX_SUB_FILE_NUM          128
MEM_STATIC                400
MEM_TOTAL                 4000
$end
--------------------------------------------------------------

   15   -1510.1433743545      7.66E-09 Convergence criterion met
 Total energy in the final basis set = -1510.14337435
   14   -1510.2142589691      5.37E-09 Convergence criterion met
 Total energy in the final basis set = -1510.21425897
   14   -1510.2520001111      5.43E-09 Convergence criterion met
 Total energy in the final basis set = -1510.25200011
   15   -1510.2655400244      2.08E-09 Convergence criterion met
 Total energy in the final basis set = -1510.26554002
   14   -1510.2779687355      6.14E-09 Convergence criterion met
 Total energy in the final basis set = -1510.27796874
   14   -1510.2776344833      5.71E-09 Convergence criterion met
 Total energy in the final basis set = -1510.27763448
   14   -1510.2818088504      5.37E-09 Convergence criterion met
 Total energy in the final basis set = -1510.28180885
   13   -1510.2831602302      8.59E-09 Convergence criterion met
   11   -1510.2895857837      3.87E-09 Convergence criterion met
 Total energy in the final basis set = -1510.28958578
   10   -1510.2895928559      9.96E-09 Convergence criterion met
 Total energy in the final basis set = -1510.28959286
   10   -1510.2895964805      6.97E-09 Convergence criterion met
 Total energy in the final basis set = -1510.28959648
    9   -1510.2895979451      4.03E-09 Convergence criterion met
 Total energy in the final basis set = -1510.28959795
    9   -1510.2895991406      2.53E-09 Convergence criterion met
 Total energy in the final basis set = -1510.28959914
    8   -1510.2896003550      9.83E-09 Convergence criterion met
 Total energy in the final basis set = -1510.28960035

             Standard Nuclear Orientation (Angstroms)
    I     Atom           X                Y                Z
 ----------------------------------------------------------------
    1      O       1.8640117482     2.0763356558    -0.2563068593
    2      C       2.2116270299     1.3020300905     0.6662053091
    3      C       3.6288492915     0.6822607025     0.8982310117
    4      C       3.7945030520    -0.8331668344     0.4530993919
    5      C       2.6618314923    -1.4131751527    -0.4719891676
    6      O       1.5780399565    -1.8765418837     0.3399446676
    7      C       0.4480200164    -2.3246351813    -0.5201864916
    8      C      -0.6023878033    -2.9887509619     0.4434841330
    9      O      -1.6003493406    -2.0616946953     1.0371126060
   10      C      -2.3028309936    -1.3256889075     0.0221814534
   11      C      -3.3290110499    -0.3877471494     0.7405083717
   12      C      -3.4373374073     1.0803284101     0.1513006666
   13      C      -2.5452601155     1.4219724390    -1.0974412197
   14      O      -2.8901987060     2.1216006953    -2.0733300721
   15      O       1.3823693305     0.8774533026     1.7406883673
   16      O      -1.2162628202     0.9242679263    -0.9053699196
   17      O      -2.2006123056    -1.5384185335    -1.2060008833
   18      C      -0.3223487530     1.2984762092    -2.0296834358
   19      C      -4.8229083950    -0.9016455395     0.5181352252
   20      C      -5.7430882830    -0.2269051769     1.6100106558
   21      C      -5.8413552683     1.2426488651     1.0558214634
   22      C      -4.9687110657     1.1343460768    -0.2549723602
   23      O      -5.2317989264    -0.2412657599    -0.7400801101
   24      H      -3.0710040420    -0.3650166653     1.8135344954
   25      H      -3.2001641515     1.8231810521     0.9363617412
   26      H      -4.9218092806    -2.0011476744     0.4307945496
   27      H      -6.7296744700    -0.7166180186     1.6345124930
   28      H      -5.2990968045    -0.2756999229     2.6170351419
   29      H      -6.8798456090     1.5121847966     0.8062824508
   30      H      -5.4410392877     1.9899675373     1.7594347682
   31      H      -5.1882671055     1.8753046369    -1.0483472356
   32      O       2.6687867969    -1.4737203750    -1.7207779779
   33      C       0.0201870683     1.4581439420     1.6383208075
   34      C       4.7747038585     1.3829133890     0.0521977574
   35      C       6.1370810248     1.1374916283     0.8089712890
   36      C       6.3457625230    -0.4004966484     0.5445759511
   37      C       5.1246265175    -0.7224514739    -0.4061102042
   38      O       4.9069390041     0.5373498685    -1.1552128007
   39      H       3.8374769809     0.7593566774     1.9803781726
   40      H       3.8976055349    -1.4886173453     1.3364202309
   41      H      -0.4732563523     1.2019936431     0.6663517978
   42      H       4.5559505364     2.4307879823    -0.2306183854
   43      H       6.9417428188     1.7362963761     0.3530885414
   44      H       6.0747816658     1.3843855973     1.8808156499
   45      H       7.2996012178    -0.5998009663     0.0310953296
   46      H       6.3123905383    -0.9972776731     1.4703036062
   47      H       5.2773255138    -1.5640727222    -1.1087369401
   48      H       0.0549993200     2.5607682198     1.7519230906
   49      H      -0.5476045637     1.0231033570     2.4805418599
   50      H       0.6167960937     1.6746597142    -1.5639203817
   51      H      -0.8127214744     2.0740872568    -2.6485663516
   52      H      -0.1209880453     0.4009890258    -2.6473043869
   53      H      -1.1311700130    -3.7956639099    -0.1116888060
   54      H      -0.0736471063    -3.4380247393     1.3083255353
   55      H       0.7980544389    -3.0725981113    -1.2641768521
   56      H      -0.0051198397    -1.4753044380    -1.0711758335
 ----------------------------------------------------------------

    8   -1510.2896009238      6.97E-09 Convergence criterion met
 Total energy in the final basis set = -1510.28960092
 Final energy is   -1510.28960092381
 **  OPTIMIZATION CONVERGED  **

                    Orbital Energies (a.u.)
 --------------------------------------------------------------

 Alpha MOs
 -- Occupied --
-18.944 -18.937 -18.936 -18.931 -18.891 -18.885 -18.884 -18.878
-18.876 -18.874 -10.107 -10.103 -10.103 -10.097 -10.078 -10.070
-10.064 -10.061 -10.058 -10.057 -10.044 -10.043 -10.043 -10.041
-10.038 -10.037 -10.024 -10.023 -10.020 -10.019  -1.019  -1.013
 -1.011  -1.007  -0.974  -0.968  -0.944  -0.938  -0.937  -0.933
 -0.767  -0.763  -0.729  -0.724  -0.715  -0.706  -0.699  -0.657
 -0.655  -0.620  -0.598  -0.584  -0.548  -0.545  -0.540  -0.537
 -0.514  -0.512  -0.480  -0.478  -0.459  -0.458  -0.453  -0.452
 -0.436  -0.430  -0.428  -0.425  -0.416  -0.409  -0.405  -0.399
 -0.392  -0.380  -0.373  -0.370  -0.359  -0.358  -0.357  -0.350
 -0.347  -0.343  -0.336  -0.334  -0.331  -0.328  -0.327  -0.314
 -0.311  -0.308  -0.305  -0.301  -0.297  -0.292  -0.278  -0.277
 -0.272  -0.264  -0.254  -0.249  -0.240  -0.237  -0.232  -0.185
 -0.180  -0.173  -0.171  -0.163  -0.158  -0.152  -0.149  -0.147
 -0.142

          Ground-State Mulliken Net Atomic Charges

     Atom                 Charge (a.u.)
  ----------------------------------------
      1 O                    -0.218938
      2 C                     0.212686
      3 C                    -0.079624
      4 C                    -0.077160
      5 C                     0.203576
      6 O                    -0.173198
      7 C                    -0.053429
      8 C                    -0.047884
      9 O                    -0.170385
     10 C                     0.212341
     11 C                    -0.080434
     12 C                    -0.078945
     13 C                     0.220563
     14 O                    -0.205843
     15 O                    -0.166425
     16 O                    -0.175450
     17 O                    -0.213282
     18 C                    -0.148328
     19 C                     0.026371
     20 C                    -0.143562
     21 C                    -0.144266
     22 C                     0.024497
     23 O                    -0.186530
     24 H                     0.085799
     25 H                     0.084772
     26 H                     0.083598
     27 H                     0.079018
     28 H                     0.074066
     29 H                     0.079457
     30 H                     0.073324
     31 H                     0.092919
     32 O                    -0.209236
     33 C                    -0.151233
     34 C                     0.024246
     35 C                    -0.142876
     36 C                    -0.145343
     37 C                     0.025665
     38 O                    -0.185830
     39 H                     0.085771
     40 H                     0.085149
     41 H                     0.112851
     42 H                     0.087834
     43 H                     0.078144
     44 H                     0.072639
     45 H                     0.078122
     46 H                     0.072591
     47 H                     0.086386
     48 H                     0.076194
     49 H                     0.080613
     50 H                     0.114390
     51 H                     0.098523
     52 H                     0.086807
     53 H                     0.086720
     54 H                     0.097272
     55 H                     0.091654
     56 H                     0.103643
  ----------------------------------------
  Sum of atomic charges =    -0.000000

                    Cartesian Multipole Moments
 -----------------------------------------------------------------
    Charge (ESU x 10^10)
                -0.0000
    Dipole Moment (Debye)
         X       0.2777      Y      -0.7840      Z       4.7454
       Tot       4.8177
    Quadrupole Moments (Debye-Ang)
        XX    -150.9975     XY      -3.0338     YY    -154.0331
        XZ      -2.4909     YZ       3.3039     ZZ    -167.8722

 Total job time:  88.30s(wall), 4211.22s(cpu)
        *  Thank you very much for using Q-Chem.  Have a nice day.  *
