 Q-Chem 5.0, Q-Chem, Inc., Pleasanton, CA (2017)
 Q-Chem 5.0.1 for Intel X86 EM64T Linux

User input:
--------------------------------------------------------------
$molecule
0  1
O 1.875418389 2.0265971496 -0.1974826177
C 2.2414464706 1.2098970166 0.6807279976
C 3.6755020759 0.6105745911 0.8789598878
C 3.8673568405 -0.8632170472 0.3149896936
C 2.7012696757 -1.3595172188 -0.6133278992
O 1.6590342268 -1.9012659309 0.2045649372
C 0.4497398581 -2.1668487351 -0.6197855692
C -0.5641427663 -2.9321256519 0.3079119641
O -1.5225634671 -2.0342895286 1.0005029076
C -2.3251160044 -1.3272061832 0.0410097342
C -3.3154776021 -0.406220287 0.8266170755
C -3.5333446446 1.0256972737 0.1842259298
C -2.6268224336 1.438305092 -1.0312836982
O -2.9599044071 2.2206624169 -1.9469845435
O 1.41723881 0.6952086808 1.7195111689
O -1.2979498349 0.9229362028 -0.8721119398
O -2.3094708457 -1.5522321028 -1.1887391936
C -0.3954401277 1.400260273 -1.951166729
C -4.7938239988 -0.992184832 0.7172563941
C -5.7112895798 -0.2535423447 1.7707961168
C -5.9404275893 1.1315155838 1.0597036238
C -5.0621599166 0.9512490856 -0.2385557217
O -5.2584405112 -0.4748885236 -0.5881654347
H -2.974565883 -0.3365870955 1.874000202
H -3.3861604182 1.8045929116 0.9566780182
H -4.8490242994 -2.0980291744 0.7391557358
H -6.6572887858 -0.8007218079 1.909092216
H -5.2152120003 -0.1528194844 2.7493696888
H -6.9988551184 1.2754655206 0.7900179498
H -5.6117830703 1.9864376247 1.6717984751
H -5.3193290886 1.6053121102 -1.0946876424
O 2.6430296951 -1.28374114 -1.8597393039
C 0.047744211 1.2657373819 1.6688655471
C 4.8011997466 1.3946740838 0.0801390301
C 6.1804210733 1.1019012604 0.7879613584
C 6.4091422083 -0.4012422447 0.3792794731
C 5.1695679558 -0.6580409531 -0.5667869557
O 4.9176611184 0.6584345734 -1.1986864538
H 3.8806329272 0.6160386449 1.9645716235
H 4.0045609791 -1.5868420118 1.1380498968
H -0.4701040541 1.0626473971 0.6975011626
H 4.568193561 2.4606987588 -0.1074578432
H 6.9669364325 1.7540389917 0.375762489
H 6.1345070726 1.2473035474 1.8790038553
H 7.35312337 -0.5340207855 -0.17244209
H 6.4088384638 -1.0797691993 1.2473769657
H 5.3150184536 -1.4341848437 -1.3424426107
H 0.0737647009 2.3606078498 1.8435652237
H -0.5006809245 0.7781910523 2.495181572
H 0.545160283 1.7246621247 -1.4486665991
H -0.8788060063 2.2350966391 -2.4939765089
H -0.1958093416 0.5670879224 -2.6532706987
H -1.117362657 -3.6834009754 -0.2974384958
H -0.0085188521 -3.4510328543 1.1146685417
H 0.7076506103 -2.7890519107 -1.5038100826
H 0.0080676245 -1.216781027 -0.9849628984
$end

$rem
JOBTYPE                   OPT
METHOD                    B3LYP
DFT_D                     d3_op
BASIS                     STO-3G
GEOM_OPT_MAX_CYCLES       100
GEOM_OPT_TOL_GRADIENT     300
GEOM_OPT_TOL_DISPLACEMENT 1200
GEOM_OPT_TOL_ENERGY       100
SYMMETRY                  False
THRESH                    12
SCF_CONVERGENCE           8
MAX_SUB_FILE_NUM          128
MEM_STATIC                400
MEM_TOTAL                 4000
$end
--------------------------------------------------------------

   16   -1510.2909229153      7.10E-09 Convergence criterion met
 Total energy in the final basis set = -1510.29092292
   15   -1510.2831221515      3.93E-09 Convergence criterion met
 Total energy in the final basis set = -1510.28312215
   15   -1510.2868331399      1.78E-09 Convergence criterion met
 Total energy in the final basis set = -1510.28683314
   15   -1510.2802207262      4.39E-09 Convergence criterion met
 Total energy in the final basis set = -1510.28022073
   15   -1510.2884056937      3.38E-09 Convergence criterion met
 Total energy in the final basis set = -1510.28840569
   15   -1510.2832071953      2.25E-09 Convergence criterion met
 Total energy in the final basis set = -1510.28320720
   14   -1510.2902330400      5.96E-09 Convergence criterion met
 Total energy in the final basis set = -1510.29023304
   15   -1510.2908064135      1.62E-09 Convergence criterion met
   12   -1510.2969951630      2.71E-09 Convergence criterion met
 Total energy in the final basis set = -1510.29699516
   12   -1510.2968687525      4.82E-09 Convergence criterion met
 Total energy in the final basis set = -1510.29686875
   12   -1510.2970085769      2.15E-09 Convergence criterion met
 Total energy in the final basis set = -1510.29700858
   11   -1510.2970117716      4.69E-09 Convergence criterion met
 Total energy in the final basis set = -1510.29701177
   11   -1510.2970132748      3.78E-09 Convergence criterion met
 Total energy in the final basis set = -1510.29701327
    9   -1510.2970129689      5.11E-09 Convergence criterion met
 Total energy in the final basis set = -1510.29701297

             Standard Nuclear Orientation (Angstroms)
    I     Atom           X                Y                Z
 ----------------------------------------------------------------
    1      O      -1.7281241831    -1.8880805909     0.0978955611
    2      C      -2.1093341711    -1.0577511290     0.9563939930
    3      C      -3.5556850916    -0.4781204881     1.1158587833
    4      C      -3.8449621721     0.7622962949     0.1616935428
    5      C      -2.6347564163     1.1703634856    -0.7527354012
    6      O      -1.6332133196     1.7788122069     0.0703252732
    7      C      -0.5257868911     2.2915915976    -0.7739352592
    8      C       0.5509863211     2.9199236720     0.1744311338
    9      O       1.4024513974     1.9029060747     0.8345577959
   10      C       2.4347499980     1.4629708360    -0.0635584585
   11      C       3.3632626877     0.4749303513     0.7196380857
   12      C       3.4004029748    -1.0042280542     0.1493952992
   13      C       2.4966710413    -1.2953426388    -1.0998210331
   14      O       2.8108363271    -1.9713076550    -2.1018860535
   15      O      -1.2796442986    -0.4956222208     1.9649466576
   16      O       1.1950554140    -0.7295186862    -0.8915319751
   17      O       2.5701691886     1.8811224547    -1.2334278846
   18      C       0.2409166927    -1.1658156843    -1.9452311994
   19      C       4.8927360211     0.8849969615     0.5547613225
   20      C       5.7300678647     0.1451027538     1.6709394048
   21      C       5.7633685064    -1.3226946047     1.1031318842
   22      C       4.9319164012    -1.1525288597    -0.2276710692
   23      O       5.2960235351     0.2051040220    -0.6959725110
   24      H       3.0480316362     0.4821579909     1.7773752672
   25      H       3.1071539920    -1.7226333952     0.9383781018
   26      H       5.0673742847     1.9754767009     0.4759019158
   27      H       6.7419434049     0.5752269456     1.7399715751
   28      H       5.2510695161     0.2090661549     2.6609865296
   29      H       6.7919949992    -1.6449566378     0.8761089713
   30      H       5.3062803707    -2.0547239921     1.7879826049
   31      H       5.1214595517    -1.9024233849    -1.0203680357
   32      O      -2.5354344728     1.0327432442    -1.9909617235
   33      C       0.1153438952    -0.9851484040     1.8257096861
   34      C      -4.6476867320    -1.5073720941     0.5956968163
   35      C      -6.0617655195    -1.0433517856     1.1253925635
   36      C      -6.3482194950     0.1876942514     0.1859778154
   37      C      -5.0457891246     0.2001699141    -0.7055165675
   38      O      -4.7127533290    -1.2348472801    -0.8576511390
   39      H      -3.7084424101    -0.2023797189     2.1740688909
   40      H      -4.1381297592     1.6458973346     0.7572488376
   41      H       0.5094335450    -0.8351233914     0.7898382188
   42      H      -4.3953259883    -2.5699628050     0.7770199663
   43      H      -6.8067281594    -1.8421699269     0.9830951423
   44      H      -6.0362571537    -0.7687033690     2.1920167197
   45      H      -7.2397684330     0.0190613387    -0.4388595495
   46      H      -6.4808268981     1.1281521436     0.7444669995
   47      H      -5.1458166473     0.6781396660    -1.6992634916
   48      H       0.1803632991    -2.0606237040     2.0896726602
   49      H       0.7082877785    -0.3937559572     2.5460977091
   50      H      -0.6631800475    -1.5300411108    -1.4074574338
   51      H       0.7048935015    -1.9642450579    -2.5551525029
   52      H      -0.0153662143    -0.3058512817    -2.5942276852
   53      H       1.1785527358     3.6174234912    -0.4216611330
   54      H       0.0499367224     3.4743588924     0.9937140392
   55      H      -0.9033246936     3.0683679325    -1.4752138471
   56      H      -0.0678456194     1.4802872143    -1.3762209424
 ----------------------------------------------------------------

    9   -1510.2970135548      4.72E-09 Convergence criterion met
 Total energy in the final basis set = -1510.29701355
 Final energy is   -1510.29701355482
 **  OPTIMIZATION CONVERGED  **

                    Orbital Energies (a.u.)
 --------------------------------------------------------------

 Alpha MOs
 -- Occupied --
-18.943 -18.935 -18.934 -18.934 -18.890 -18.886 -18.886 -18.878
-18.874 -18.873 -10.107 -10.101 -10.100 -10.099 -10.077 -10.073
-10.063 -10.060 -10.059 -10.058 -10.044 -10.044 -10.043 -10.040
-10.039 -10.037 -10.023 -10.022 -10.020 -10.019  -1.019  -1.015
 -1.010  -1.007  -0.972  -0.969  -0.943  -0.941  -0.934  -0.933
 -0.767  -0.763  -0.730  -0.724  -0.715  -0.706  -0.699  -0.656
 -0.655  -0.619  -0.598  -0.583  -0.549  -0.545  -0.539  -0.537
 -0.513  -0.512  -0.481  -0.477  -0.460  -0.458  -0.454  -0.453
 -0.436  -0.431  -0.429  -0.425  -0.416  -0.406  -0.404  -0.399
 -0.395  -0.380  -0.373  -0.370  -0.361  -0.357  -0.353  -0.349
 -0.345  -0.345  -0.336  -0.333  -0.330  -0.329  -0.327  -0.314
 -0.310  -0.308  -0.305  -0.302  -0.295  -0.289  -0.281  -0.277
 -0.272  -0.262  -0.255  -0.249  -0.240  -0.236  -0.233  -0.181
 -0.180  -0.177  -0.173  -0.164  -0.158  -0.153  -0.149  -0.146
 -0.143

          Ground-State Mulliken Net Atomic Charges

     Atom                 Charge (a.u.)
  ----------------------------------------
      1 O                    -0.220630
      2 C                     0.211393
      3 C                    -0.078674
      4 C                    -0.077996
      5 C                     0.205630
      6 O                    -0.172635
      7 C                    -0.049781
      8 C                    -0.047985
      9 O                    -0.170392
     10 C                     0.210180
     11 C                    -0.079980
     12 C                    -0.078695
     13 C                     0.218468
     14 O                    -0.204041
     15 O                    -0.164549
     16 O                    -0.175934
     17 O                    -0.214760
     18 C                    -0.148058
     19 C                     0.026243
     20 C                    -0.144022
     21 C                    -0.144007
     22 C                     0.024366
     23 O                    -0.185849
     24 H                     0.085289
     25 H                     0.085315
     26 H                     0.083881
     27 H                     0.078814
     28 H                     0.073400
     29 H                     0.079294
     30 H                     0.073121
     31 H                     0.092539
     32 O                    -0.210071
     33 C                    -0.146984
     34 C                     0.025585
     35 C                    -0.144026
     36 C                    -0.144123
     37 C                     0.024681
     38 O                    -0.186036
     39 H                     0.086123
     40 H                     0.084925
     41 H                     0.112109
     42 H                     0.085297
     43 H                     0.078136
     44 H                     0.073026
     45 H                     0.078311
     46 H                     0.072692
     47 H                     0.088676
     48 H                     0.075095
     49 H                     0.082859
     50 H                     0.114870
     51 H                     0.099022
     52 H                     0.086708
     53 H                     0.093665
     54 H                     0.094151
     55 H                     0.087182
     56 H                     0.098183
  ----------------------------------------
  Sum of atomic charges =    -0.000000

                    Cartesian Multipole Moments
 -----------------------------------------------------------------
    Charge (ESU x 10^10)
                -0.0000
    Dipole Moment (Debye)
         X      -0.8337      Y       1.3261      Z       4.4243
       Tot       4.6934
    Quadrupole Moments (Debye-Ang)
        XX    -150.7614     XY      -6.3481     YY    -155.4710
        XZ       5.5101     YZ      -4.1882     ZZ    -166.6047

 Total job time:  99.59s(wall), 4751.24s(cpu)
        *  Thank you very much for using Q-Chem.  Have a nice day.  *
