 Q-Chem 5.0, Q-Chem, Inc., Pleasanton, CA (2017)
 Q-Chem 5.0.1 for Intel X86 EM64T Linux

User input:
--------------------------------------------------------------
$molecule
0  1
O -3.94934 -3.66094 2.70899
C -3.26408 -4.56952 2.26188
C -3.36658 -6.02376 2.66595
C -2.31869 -6.55263 3.65896
C -1.39355 -5.52586 4.27374
O -0.33251 -5.30124 3.44359
C 0.47317 -4.18914 3.84778
C 1.73126 -4.1119 2.98909
O 1.50686 -3.24079 1.8694
C 1.21563 -1.95352 2.18127
C 0.99674 -1.08809 0.96317
C -0.15048 -0.07473 1.08676
C -0.66383 0.17424 2.49075
O -1.15693 1.21914 2.89025
O -2.30867 -4.28984 1.33942
O -1.04011 -0.93351 3.18795
O 1.4781 -1.46568 3.27699
C -1.72489 -0.91762 4.38844
C 2.1814 -0.14206 0.67908
C 2.18275 0.24538 -0.79824
C 0.958 1.13517 -0.85531
C 0.59572 1.19725 0.63436
O 1.82973 1.07015 1.29697
H 0.87024 -1.75692 0.08063
H -1.0238 -0.31871 0.44452
H 3.1661 -0.57142 0.96699
H 3.08778 0.8737 -0.96225
H 2.18974 -0.59771 -1.52212
H 1.26817 2.13299 -1.23737
H 0.11077 0.74003 -1.45688
H 0.02457 2.12748 0.84722
O -1.50084 -5.06598 5.40618
C -2.19005 -3.08152 0.69171
C -4.66052 -6.28693 3.47132
C -5.03591 -7.76663 3.39909
C -3.97612 -8.36563 4.29407
C -3.25959 -7.09408 4.75905
O -4.27777 -6.12881 4.81201
H -3.43212 -6.61454 1.72496
H -1.69571 -7.38699 3.26528
H -2.05592 -2.27051 1.42647
H -5.52223 -5.6699 3.1334
H -6.02587 -7.8851 3.89541
H -5.08683 -8.18829 2.37221
H -4.48084 -8.85639 5.15612
H -3.28516 -9.08318 3.80111
H -2.72703 -7.2944 5.7153
H -3.10194 -2.88194 0.08984
H -1.31238 -3.11406 0.01481
H -1.90993 -1.95854 4.72248
H -2.70651 -0.41272 4.26389
H -1.12553 -0.39208 5.16207
H 2.56441 -3.67934 3.58977
H 2.0627 -5.12238 2.66822
H 0.85175 -4.43176 4.868
H -0.10311 -3.25052 3.93496
$end

$opt
CONSTRAINT
tors           1           2           3           4    -100.883
tors           3           4           5           6     -85.153
tors           4           5           6           7    +170.430
tors           5           6           7           8    +172.563
tors           6           7           8           9     +92.967
tors           7           8           9          10     +61.497
tors           8           9          10          11    +179.750
tors           9          10          11          12    +140.139
tors          11          12          13          14    +150.602
ENDCONSTRAINT
$end

$rem
JOBTYPE                   OPT
METHOD                    B3LYP
DFT_D                     d3_op
BASIS                     STO-3G
GEOM_OPT_MAX_CYCLES       100
GEOM_OPT_TOL_GRADIENT     300
GEOM_OPT_TOL_DISPLACEMENT 1200
GEOM_OPT_TOL_ENERGY       100
SYMMETRY                  False
THRESH                    12
SCF_CONVERGENCE           8
MAX_SUB_FILE_NUM          128
MEM_STATIC                400
MEM_TOTAL                 4000
$end
--------------------------------------------------------------

   15   -1510.1417352232      6.87E-09 Convergence criterion met
 Total energy in the final basis set = -1510.14173522
   14   -1510.2136780124      2.74E-09 Convergence criterion met
 Total energy in the final basis set = -1510.21367801
   14   -1510.2504689918      8.21E-09 Convergence criterion met
 Total energy in the final basis set = -1510.25046899
   15   -1510.2664832124      2.81E-09 Convergence criterion met
 Total energy in the final basis set = -1510.26648321
   13   -1510.2760691810      7.10E-09 Convergence criterion met
 Total energy in the final basis set = -1510.27606918
   13   -1510.2818312305      6.10E-09 Convergence criterion met
 Total energy in the final basis set = -1510.28183123
   13   -1510.2836987230      3.58E-09 Convergence criterion met
 Total energy in the final basis set = -1510.28369872
   13   -1510.2856262164      4.40E-09 Convergence criterion met
   10   -1510.2908133196      9.11E-09 Convergence criterion met
 Total energy in the final basis set = -1510.29081332
   10   -1510.2908292195      8.21E-09 Convergence criterion met
 Total energy in the final basis set = -1510.29082922
   11   -1510.2908407165      2.69E-09 Convergence criterion met
 Total energy in the final basis set = -1510.29084072
    9   -1510.2908478100      7.42E-09 Convergence criterion met
 Total energy in the final basis set = -1510.29084781
    9   -1510.2908500993      8.70E-09 Convergence criterion met
 Total energy in the final basis set = -1510.29085010
    9   -1510.2908518340      7.01E-09 Convergence criterion met
 Total energy in the final basis set = -1510.29085183

             Standard Nuclear Orientation (Angstroms)
    I     Atom           X                Y                Z
 ----------------------------------------------------------------
    1      O       1.8754183890     2.0265971496    -0.1974826177
    2      C       2.2414464706     1.2098970166     0.6807279976
    3      C       3.6755020759     0.6105745911     0.8789598878
    4      C       3.8673568405    -0.8632170472     0.3149896936
    5      C       2.7012696757    -1.3595172188    -0.6133278992
    6      O       1.6590342268    -1.9012659309     0.2045649372
    7      C       0.4497398581    -2.1668487351    -0.6197855692
    8      C      -0.5641427663    -2.9321256519     0.3079119641
    9      O      -1.5225634671    -2.0342895286     1.0005029076
   10      C      -2.3251160044    -1.3272061832     0.0410097342
   11      C      -3.3154776021    -0.4062202870     0.8266170755
   12      C      -3.5333446446     1.0256972737     0.1842259298
   13      C      -2.6268224336     1.4383050920    -1.0312836982
   14      O      -2.9599044071     2.2206624169    -1.9469845435
   15      O       1.4172388100     0.6952086808     1.7195111689
   16      O      -1.2979498349     0.9229362028    -0.8721119398
   17      O      -2.3094708457    -1.5522321028    -1.1887391936
   18      C      -0.3954401277     1.4002602730    -1.9511667290
   19      C      -4.7938239988    -0.9921848320     0.7172563941
   20      C      -5.7112895798    -0.2535423447     1.7707961168
   21      C      -5.9404275893     1.1315155838     1.0597036238
   22      C      -5.0621599166     0.9512490856    -0.2385557217
   23      O      -5.2584405112    -0.4748885236    -0.5881654347
   24      H      -2.9745658830    -0.3365870955     1.8740002020
   25      H      -3.3861604182     1.8045929116     0.9566780182
   26      H      -4.8490242994    -2.0980291744     0.7391557358
   27      H      -6.6572887858    -0.8007218079     1.9090922160
   28      H      -5.2152120003    -0.1528194844     2.7493696888
   29      H      -6.9988551184     1.2754655206     0.7900179498
   30      H      -5.6117830703     1.9864376247     1.6717984751
   31      H      -5.3193290886     1.6053121102    -1.0946876424
   32      O       2.6430296951    -1.2837411400    -1.8597393039
   33      C       0.0477442110     1.2657373819     1.6688655471
   34      C       4.8011997466     1.3946740838     0.0801390301
   35      C       6.1804210733     1.1019012604     0.7879613584
   36      C       6.4091422083    -0.4012422447     0.3792794731
   37      C       5.1695679558    -0.6580409531    -0.5667869557
   38      O       4.9176611184     0.6584345734    -1.1986864538
   39      H       3.8806329272     0.6160386449     1.9645716235
   40      H       4.0045609791    -1.5868420118     1.1380498968
   41      H      -0.4701040541     1.0626473971     0.6975011626
   42      H       4.5681935610     2.4606987588    -0.1074578432
   43      H       6.9669364325     1.7540389917     0.3757624890
   44      H       6.1345070726     1.2473035474     1.8790038553
   45      H       7.3531233700    -0.5340207855    -0.1724420900
   46      H       6.4088384638    -1.0797691993     1.2473769657
   47      H       5.3150184536    -1.4341848437    -1.3424426107
   48      H       0.0737647009     2.3606078498     1.8435652237
   49      H      -0.5006809245     0.7781910523     2.4951815720
   50      H       0.5451602830     1.7246621247    -1.4486665991
   51      H      -0.8788060063     2.2350966391    -2.4939765089
   52      H      -0.1958093416     0.5670879224    -2.6532706987
   53      H      -1.1173626570    -3.6834009754    -0.2974384958
   54      H      -0.0085188521    -3.4510328543     1.1146685417
   55      H       0.7076506103    -2.7890519107    -1.5038100826
   56      H       0.0080676245    -1.2167810270    -0.9849628984
 ----------------------------------------------------------------

    9   -1510.2908523073      3.72E-09 Convergence criterion met
 Total energy in the final basis set = -1510.29085231
 Final energy is   -1510.29085230726
 **  OPTIMIZATION CONVERGED  **

                    Orbital Energies (a.u.)
 --------------------------------------------------------------

 Alpha MOs
 -- Occupied --
-18.944 -18.937 -18.935 -18.930 -18.892 -18.886 -18.884 -18.879
-18.875 -18.874 -10.108 -10.104 -10.101 -10.097 -10.077 -10.069
-10.065 -10.061 -10.058 -10.058 -10.045 -10.044 -10.043 -10.041
-10.039 -10.038 -10.024 -10.023 -10.020 -10.019  -1.019  -1.014
 -1.012  -1.007  -0.974  -0.969  -0.943  -0.938  -0.938  -0.932
 -0.767  -0.763  -0.729  -0.724  -0.715  -0.706  -0.698  -0.658
 -0.655  -0.620  -0.598  -0.583  -0.548  -0.546  -0.540  -0.537
 -0.514  -0.512  -0.480  -0.479  -0.461  -0.459  -0.454  -0.452
 -0.437  -0.430  -0.427  -0.423  -0.416  -0.409  -0.406  -0.398
 -0.392  -0.381  -0.375  -0.368  -0.359  -0.358  -0.356  -0.350
 -0.348  -0.343  -0.337  -0.334  -0.331  -0.328  -0.327  -0.315
 -0.311  -0.308  -0.305  -0.302  -0.296  -0.292  -0.279  -0.277
 -0.272  -0.264  -0.254  -0.249  -0.241  -0.237  -0.233  -0.185
 -0.180  -0.173  -0.172  -0.163  -0.159  -0.152  -0.149  -0.147
 -0.142

          Ground-State Mulliken Net Atomic Charges

     Atom                 Charge (a.u.)
  ----------------------------------------
      1 O                    -0.217918
      2 C                     0.212086
      3 C                    -0.079117
      4 C                    -0.077195
      5 C                     0.203695
      6 O                    -0.173636
      7 C                    -0.052360
      8 C                    -0.047970
      9 O                    -0.171578
     10 C                     0.211483
     11 C                    -0.079995
     12 C                    -0.079183
     13 C                     0.219579
     14 O                    -0.206761
     15 O                    -0.165919
     16 O                    -0.176106
     17 O                    -0.213110
     18 C                    -0.149924
     19 C                     0.026497
     20 C                    -0.144268
     21 C                    -0.143437
     22 C                     0.024955
     23 O                    -0.186342
     24 H                     0.085660
     25 H                     0.084819
     26 H                     0.083470
     27 H                     0.079065
     28 H                     0.073863
     29 H                     0.079454
     30 H                     0.073547
     31 H                     0.092590
     32 O                    -0.208486
     33 C                    -0.149864
     34 C                     0.024432
     35 C                    -0.143046
     36 C                    -0.145125
     37 C                     0.025588
     38 O                    -0.185495
     39 H                     0.085805
     40 H                     0.085648
     41 H                     0.111356
     42 H                     0.087668
     43 H                     0.078276
     44 H                     0.072761
     45 H                     0.078190
     46 H                     0.072731
     47 H                     0.086359
     48 H                     0.076821
     49 H                     0.082065
     50 H                     0.114302
     51 H                     0.098344
     52 H                     0.087038
     53 H                     0.088870
     54 H                     0.097481
     55 H                     0.092701
     56 H                     0.099639
  ----------------------------------------
  Sum of atomic charges =    -0.000000

                    Cartesian Multipole Moments
 -----------------------------------------------------------------
    Charge (ESU x 10^10)
                -0.0000
    Dipole Moment (Debye)
         X       0.3910      Y      -0.7487      Z       4.6786
       Tot       4.7542
    Quadrupole Moments (Debye-Ang)
        XX    -150.3328     XY      -4.0881     YY    -155.5936
        XZ      -2.7874     YZ       3.8483     ZZ    -167.0544

 Total job time:  74.51s(wall), 3549.80s(cpu)
        *  Thank you very much for using Q-Chem.  Have a nice day.  *
