 Q-Chem 5.0, Q-Chem, Inc., Pleasanton, CA (2017)
 Q-Chem 5.0.1 for Intel X86 EM64T Linux

User input:
--------------------------------------------------------------
$molecule
0  1
O 1.8496892381 2.019820608 -0.2272897282
C 2.2304489177 1.2129347828 0.6535751981
C 3.6755608906 0.6371749493 0.8481124285
C 3.8934639512 -0.8385516992 0.2976666804
C 2.7246397363 -1.3750412383 -0.6036606686
O 1.6553119281 -1.8236402288 0.2356862298
C 0.471681204 -2.1649012589 -0.5963468162
C -0.5470454685 -2.9183428511 0.3331997362
O -1.4827492421 -2.0072893319 1.0395230168
C -2.3115378715 -1.317015749 0.093490722
C -3.282204796 -0.3767480666 0.8796508551
C -3.5562847327 0.9977811137 0.1427818309
C -2.6867040546 1.3062625632 -1.1296137692
O -3.0807668469 1.8726229168 -2.1703145923
O 1.4212245358 0.7064261245 1.7078613344
O -1.3131931441 0.9864110019 -0.8686466761
O -2.311236578 -1.538313652 -1.1374467634
C -0.4301896796 1.3921352967 -1.9890355612
C -4.7506158263 -0.9947682603 0.8772125998
C -5.643646677 -0.1862226025 1.9006828463
C -5.9319163317 1.1293387534 1.0855468151
C -5.0931918203 0.8591425645 -0.2231429689
O -5.2723363546 -0.5947007191 -0.4477697339
H -2.8938778828 -0.2321055963 1.9024407333
H -3.3973873876 1.8372893847 0.8458223676
H -4.7837861324 -2.095776126 0.9922665249
H -6.5706704956 -0.7386914453 2.1221464696
H -5.1131977445 0.0063580102 2.8470888415
H -7.0022518678 1.2271330997 0.8438161867
H -5.6020072853 2.039101096 1.6116542174
H -5.3899021017 1.4337500111 -1.1223421927
O 2.6903908736 -1.4039412667 -1.8530120623
C 0.0517336633 1.2786858226 1.6722645144
C 4.7800679713 1.4336388373 0.032116599
C 6.1727370916 1.1662643982 0.724348307
C 6.4255922723 -0.3322701351 0.3136001415
C 5.174911805 -0.6160365811 -0.6091588543
O 4.8901639069 0.6921054273 -1.2441911394
H 3.8881902499 0.6583875824 1.9320396483
H 4.0632552173 -1.5478007042 1.1274422133
H -0.4690734398 1.1049092996 0.6970443797
H 4.5285560339 2.4949817609 -0.1581868857
H 6.9425234251 1.833278956 0.3044212947
H 6.1355323283 1.3107911535 1.8158540829
H 7.3616414765 -0.4453094577 -0.2557634825
H 6.4557958043 -1.0098679063 1.1817516035
H 5.3176998906 -1.3946648712 -1.3828252348
H 0.0803403448 2.3681940525 1.8778101662
H -0.4959757811 0.7701215354 2.4862981058
H 0.5299258931 1.6967246224 -1.5135896036
H -0.8868123227 2.2275200057 -2.5534325344
H -0.2730969262 0.53557761 -2.6748827432
H -1.1181939882 -3.6521578503 -0.2768692226
H 0.0031284308 -3.4553849373 1.131762166
H 0.7693653137 -2.8187068353 -1.4443672934
H 0.008529002 -1.2482492279 -1.0167926186
$end

$rem
JOBTYPE                   OPT
METHOD                    B3LYP
DFT_D                     d3_op
BASIS                     STO-3G
GEOM_OPT_MAX_CYCLES       100
GEOM_OPT_TOL_GRADIENT     300
GEOM_OPT_TOL_DISPLACEMENT 1200
GEOM_OPT_TOL_ENERGY       100
SYMMETRY                  False
THRESH                    12
SCF_CONVERGENCE           8
MAX_SUB_FILE_NUM          128
MEM_STATIC                400
MEM_TOTAL                 4000
$end
--------------------------------------------------------------

   16   -1510.2925926294      6.90E-09 Convergence criterion met
 Total energy in the final basis set = -1510.29259263
   15   -1510.2852410858      3.60E-09 Convergence criterion met
 Total energy in the final basis set = -1510.28524109
   15   -1510.2875971107      1.72E-09 Convergence criterion met
 Total energy in the final basis set = -1510.28759711
   15   -1510.2537562965      6.86E-09 Convergence criterion met
 Total energy in the final basis set = -1510.25375630
   14   -1510.2894618540      7.56E-09 Convergence criterion met
 Total energy in the final basis set = -1510.28946185
   14   -1510.2888655758      7.41E-09 Convergence criterion met
 Total energy in the final basis set = -1510.28886558
   14   -1510.2894694535      4.60E-09 Convergence criterion met
 Total energy in the final basis set = -1510.28946945
   14   -1510.2917988482      2.28E-09 Convergence criterion met
   11   -1510.2990160021      9.28E-09 Convergence criterion met
 Total energy in the final basis set = -1510.29901600
   11   -1510.2990175871      2.30E-09 Convergence criterion met
 Total energy in the final basis set = -1510.29901759
    9   -1510.2990164292      8.29E-09 Convergence criterion met
 Total energy in the final basis set = -1510.29901643
    9   -1510.2990121734      8.09E-09 Convergence criterion met
 Total energy in the final basis set = -1510.29901217
   10   -1510.2990099872      5.58E-09 Convergence criterion met
 Total energy in the final basis set = -1510.29900999
   11   -1510.2990041266      3.90E-09 Convergence criterion met
 Total energy in the final basis set = -1510.29900413

             Standard Nuclear Orientation (Angstroms)
    I     Atom           X                Y                Z
 ----------------------------------------------------------------
    1      O      -1.6757036827    -0.9655021136    -0.8092513490
    2      C      -1.9770745059    -1.0862672761     0.4016730478
    3      C      -3.1583256973    -0.3623197195     1.1303898288
    4      C      -3.6582008425     0.9181014082     0.3470486280
    5      C      -2.7456465477     1.3301361595    -0.8659140510
    6      O      -1.5060583518     1.8068775959    -0.3183690587
    7      C      -0.5764394497     2.1869835889    -1.4061428957
    8      C       0.5772052637     3.0253911549    -0.7593170538
    9      O       1.3052321485     2.2493984130     0.2752252957
   10      C       2.2705959811     1.3905244087    -0.3380255814
   11      C       2.9809509034     0.5512175426     0.7754863515
   12      C       3.3854258187    -0.8954225282     0.2701515644
   13      C       2.8556838397    -1.2278620396    -1.1704924808
   14      O       3.5112853050    -1.5304871092    -2.1868661142
   15      O      -1.3357660960    -1.9523248333     1.3281912498
   16      O       1.4198401739    -1.1867820417    -1.1131775771
   17      O       2.5012211553     1.3540529572    -1.5677990224
   18      C       0.8133231757    -1.4153738040    -2.4443937958
   19      C       4.4196999901     1.1511097607     1.0996535139
   20      C       4.9800386962     0.4416590403     2.3968596733
   21      C       5.4215717541    -0.9546766970     1.8179005026
   22      C       4.9661912951    -0.8125726761     0.3144460161
   23      O       5.2536033517     0.6082770616     0.0049852771
   24      H       2.3331507637     0.5208316229     1.6687385480
   25      H       2.9992237339    -1.6655758250     0.9627705200
   26      H       4.4631168494     2.2576284417     1.1119106656
   27      H       5.8363159258     1.0021652661     2.8041204340
   28      H       4.2107187346     0.3514415947     3.1802673820
   29      H       6.5135232453    -1.0880045836     1.8778881302
   30      H       4.9325735656    -1.8014912223     2.3257566775
   31      H       5.4723762407    -1.4758012846    -0.4135764984
   32      O      -3.0511390914     1.3719511385    -2.0758649867
   33      C      -0.2670937312    -2.7425546290     0.6652060796
   34      C      -4.4621831611    -1.2715830963     1.0583527053
   35      C      -5.5710041510    -0.6500716437     1.9968453288
   36      C      -6.0718886365     0.5593294813     1.1225001551
   37      C      -5.1018394314     0.4542053759    -0.1173844266
   38      O      -4.9618029590    -1.0095854853    -0.3098684312
   39      H      -2.8661626732    -0.1390893819     2.1713434724
   40      H      -3.7156388471     1.7841694436     1.0312734741
   41      H       0.4275476422    -2.0958429117     0.0707539115
   42      H      -4.2726000778    -2.3527436500     1.2062323076
   43      H      -6.3753902142    -1.3802299508     2.1783664576
   44      H      -5.1577946328    -0.3302018633     2.9667794428
   45      H      -7.1174661198     0.4191975135     0.8046748761
   46      H      -5.9875206096     1.5271264358     1.6422422531
   47      H      -5.4508711621     0.9341079489    -1.0522676553
   48      H      -0.7095787903    -3.5081481449    -0.0042289133
   49      H       0.2765985423    -3.2503184322     1.4825008919
   50      H      -0.2777662671    -1.3589327204    -2.2541744977
   51      H       1.0900102064    -2.4086267600    -2.8516126145
   52      H       1.1296770697    -0.6314514294    -3.1611994539
   53      H       1.2720572182     3.3602300219    -1.5597590021
   54      H       0.1571848974     3.9057812430    -0.2328099605
   55      H      -1.0969519636     2.7895645613    -2.1827781325
   56      H      -0.1609764032     1.2791761843    -1.8952552143
 ----------------------------------------------------------------

    9   -1510.2990041769      4.45E-09 Convergence criterion met
 Total energy in the final basis set = -1510.29900418
 Final energy is   -1510.29900417691
 **  OPTIMIZATION CONVERGED  **

                    Orbital Energies (a.u.)
 --------------------------------------------------------------

 Alpha MOs
 -- Occupied --
-18.939 -18.937 -18.936 -18.921 -18.890 -18.886 -18.881 -18.879
-18.877 -18.866 -10.103 -10.103 -10.102 -10.093 -10.076 -10.068
-10.064 -10.061 -10.060 -10.056 -10.051 -10.045 -10.041 -10.039
-10.038 -10.033 -10.023 -10.021 -10.021 -10.019  -1.019  -1.013
 -1.009  -1.000  -0.972  -0.969  -0.941  -0.938  -0.938  -0.928
 -0.766  -0.762  -0.729  -0.723  -0.715  -0.706  -0.698  -0.658
 -0.657  -0.617  -0.597  -0.580  -0.548  -0.545  -0.539  -0.536
 -0.513  -0.509  -0.482  -0.478  -0.459  -0.456  -0.453  -0.452
 -0.438  -0.434  -0.431  -0.419  -0.411  -0.408  -0.405  -0.397
 -0.392  -0.379  -0.376  -0.365  -0.361  -0.357  -0.351  -0.348
 -0.345  -0.341  -0.335  -0.332  -0.332  -0.328  -0.325  -0.313
 -0.310  -0.307  -0.304  -0.298  -0.294  -0.286  -0.280  -0.277
 -0.271  -0.263  -0.255  -0.244  -0.241  -0.236  -0.233  -0.186
 -0.180  -0.172  -0.168  -0.159  -0.156  -0.152  -0.146  -0.145
 -0.143

          Ground-State Mulliken Net Atomic Charges

     Atom                 Charge (a.u.)
  ----------------------------------------
      1 O                    -0.214936
      2 C                     0.219111
      3 C                    -0.077520
      4 C                    -0.080367
      5 C                     0.215902
      6 O                    -0.179854
      7 C                    -0.050150
      8 C                    -0.048132
      9 O                    -0.167816
     10 C                     0.212567
     11 C                    -0.078278
     12 C                    -0.080062
     13 C                     0.219387
     14 O                    -0.202701
     15 O                    -0.170176
     16 O                    -0.178248
     17 O                    -0.214405
     18 C                    -0.138343
     19 C                     0.025603
     20 C                    -0.144016
     21 C                    -0.143475
     22 C                     0.024629
     23 O                    -0.186931
     24 H                     0.088281
     25 H                     0.083330
     26 H                     0.083195
     27 H                     0.078670
     28 H                     0.074074
     29 H                     0.078818
     30 H                     0.072993
     31 H                     0.091053
     32 O                    -0.215037
     33 C                    -0.149889
     34 C                     0.024931
     35 C                    -0.144121
     36 C                    -0.143445
     37 C                     0.024212
     38 O                    -0.189181
     39 H                     0.086931
     40 H                     0.083147
     41 H                     0.114358
     42 H                     0.083068
     43 H                     0.078037
     44 H                     0.073637
     45 H                     0.077992
     46 H                     0.072920
     47 H                     0.090072
     48 H                     0.078155
     49 H                     0.079839
     50 H                     0.114314
     51 H                     0.084895
     52 H                     0.090707
     53 H                     0.095775
     54 H                     0.091698
     55 H                     0.091676
     56 H                     0.093107
  ----------------------------------------
  Sum of atomic charges =    -0.000000

                    Cartesian Multipole Moments
 -----------------------------------------------------------------
    Charge (ESU x 10^10)
                -0.0000
    Dipole Moment (Debye)
         X      -0.6000      Y       0.3232      Z       4.2693
       Tot       4.3234
    Quadrupole Moments (Debye-Ang)
        XX    -164.4531     XY      -5.2927     YY    -150.2263
        XZ       2.3231     YZ      -1.8949     ZZ    -163.7803

 Total job time:  132.78s(wall), 6336.38s(cpu)
        *  Thank you very much for using Q-Chem.  Have a nice day.  *
