 Q-Chem 5.0, Q-Chem, Inc., Pleasanton, CA (2017)
 Q-Chem 5.0.1 for Intel X86 EM64T Linux

User input:
--------------------------------------------------------------
$molecule
0  1
O -3.94934 -3.66094 2.70899
C -3.26408 -4.56952 2.26188
C -3.36658 -6.02376 2.66595
C -2.31485 -6.55427 3.65401
C -1.38563 -5.52887 4.26491
O -0.3903 -5.22034 3.38199
C 0.43188 -4.13255 3.81786
C 1.67331 -4.02667 2.93822
O 1.40039 -3.18668 1.80561
C 1.11065 -1.8938 2.09484
C 0.83963 -1.06199 0.86386
C -0.25774 -0.00043 1.02865
C -0.6623 0.31592 2.45447
O -0.94989 1.42528 2.88011
O -2.32276 -4.29446 1.32468
O -1.10988 -0.74079 3.18672
O 1.41758 -1.37827 3.16558
C -1.67464 -0.64915 4.44268
C 2.03265 -0.16589 0.46701
C 1.95138 0.15935 -1.02305
C 0.74682 1.07843 -1.04361
C 0.48849 1.22362 0.4622
O 1.75928 1.0848 1.04839
H 0.64004 -1.75317 0.01357
H -1.18353 -0.25594 0.46976
H 3.02084 -0.61388 0.71117
H 2.85975 0.75635 -1.26666
H 1.8944 -0.71083 -1.71179
H 1.05272 2.04581 -1.49999
H -0.14971 0.67485 -1.56251
H -0.04008 2.18036 0.66679
O -1.45047 -5.11453 5.41804
C -2.1742 -3.0706 0.71591
C -4.65591 -6.28722 3.47942
C -5.03492 -7.76573 3.40344
C -3.96783 -8.37161 4.28526
C -3.24846 -7.10344 4.75542
O -4.265 -6.13707 4.81904
H -3.43941 -6.61476 1.72556
H -1.68854 -7.37922 3.24647
H -1.96047 -2.30016 1.47638
H -5.51883 -5.66721 3.15019
H -6.0201 -7.88298 3.9095
H -5.09819 -8.18381 2.37578
H -4.4657 -8.87213 5.14562
H -3.27863 -9.08235 3.78006
H -2.71085 -7.31032 5.70732
H -3.1007 -2.80257 0.16496
H -1.33364 -3.12357 -0.00406
H -1.94611 -1.66531 4.79511
H -2.59572 -0.02935 4.4052
H -0.94837 -0.20365 5.15546
H 2.50789 -3.56687 3.5161
H 2.02007 -5.03416 2.62402
H 0.84103 -4.41809 4.81515
H -0.13661 -3.19067 3.95651
$end

$opt
CONSTRAINT
tors           1           2           3           4    -101.154
tors           3           4           5           6     -79.989
tors           4           5           6           7    +172.481
tors           5           6           7           8    +168.634
tors           6           7           8           9     +88.554
tors           7           8           9          10     +63.613
tors           8           9          10          11    +179.750
tors           9          10          11          12    +143.384
tors          11          12          13          14    +142.273
ENDCONSTRAINT
$end

$rem
JOBTYPE                   OPT
METHOD                    B3LYP
DFT_D                     d3_op
BASIS                     STO-3G
GEOM_OPT_MAX_CYCLES       100
GEOM_OPT_TOL_GRADIENT     300
GEOM_OPT_TOL_DISPLACEMENT 1200
GEOM_OPT_TOL_ENERGY       100
SYMMETRY                  False
THRESH                    12
SCF_CONVERGENCE           8
MAX_SUB_FILE_NUM          128
MEM_STATIC                400
MEM_TOTAL                 4000
$end
--------------------------------------------------------------

   15   -1510.1467071097      6.80E-09 Convergence criterion met
 Total energy in the final basis set = -1510.14670711
   14   -1510.2179893180      1.87E-09 Convergence criterion met
 Total energy in the final basis set = -1510.21798932
   14   -1510.2531590587      4.25E-09 Convergence criterion met
 Total energy in the final basis set = -1510.25315906
   15   -1510.2707539536      2.53E-09 Convergence criterion met
 Total energy in the final basis set = -1510.27075395
   14   -1510.2794426199      4.22E-09 Convergence criterion met
 Total energy in the final basis set = -1510.27944262
   14   -1510.2841527498      4.35E-09 Convergence criterion met
 Total energy in the final basis set = -1510.28415275
   13   -1510.2864141886      2.94E-09 Convergence criterion met
 Total energy in the final basis set = -1510.28641419
    2   -1510.2864141884      2.89E-09 Convergence criterion met
   11   -1510.2924879217      7.86E-09 Convergence criterion met
 Total energy in the final basis set = -1510.29248792
   11   -1510.2925085610      3.41E-09 Convergence criterion met
 Total energy in the final basis set = -1510.29250856
   11   -1510.2925231146      3.42E-09 Convergence criterion met
 Total energy in the final basis set = -1510.29252311
   10   -1510.2925299323      7.39E-09 Convergence criterion met
 Total energy in the final basis set = -1510.29252993
    9   -1510.2925328794      8.22E-09 Convergence criterion met
 Total energy in the final basis set = -1510.29253288
   10   -1510.2925344667      3.95E-09 Convergence criterion met
 Total energy in the final basis set = -1510.29253447

             Standard Nuclear Orientation (Angstroms)
    I     Atom           X                Y                Z
 ----------------------------------------------------------------
    1      O       1.8496892381     2.0198206080    -0.2272897282
    2      C       2.2304489177     1.2129347828     0.6535751981
    3      C       3.6755608906     0.6371749493     0.8481124285
    4      C       3.8934639512    -0.8385516992     0.2976666804
    5      C       2.7246397363    -1.3750412383    -0.6036606686
    6      O       1.6553119281    -1.8236402288     0.2356862298
    7      C       0.4716812040    -2.1649012589    -0.5963468162
    8      C      -0.5470454685    -2.9183428511     0.3331997362
    9      O      -1.4827492421    -2.0072893319     1.0395230168
   10      C      -2.3115378715    -1.3170157490     0.0934907220
   11      C      -3.2822047960    -0.3767480666     0.8796508551
   12      C      -3.5562847327     0.9977811137     0.1427818309
   13      C      -2.6867040546     1.3062625632    -1.1296137692
   14      O      -3.0807668469     1.8726229168    -2.1703145923
   15      O       1.4212245358     0.7064261245     1.7078613344
   16      O      -1.3131931441     0.9864110019    -0.8686466761
   17      O      -2.3112365780    -1.5383136520    -1.1374467634
   18      C      -0.4301896796     1.3921352967    -1.9890355612
   19      C      -4.7506158263    -0.9947682603     0.8772125998
   20      C      -5.6436466770    -0.1862226025     1.9006828463
   21      C      -5.9319163317     1.1293387534     1.0855468151
   22      C      -5.0931918203     0.8591425645    -0.2231429689
   23      O      -5.2723363546    -0.5947007191    -0.4477697339
   24      H      -2.8938778828    -0.2321055963     1.9024407333
   25      H      -3.3973873876     1.8372893847     0.8458223676
   26      H      -4.7837861324    -2.0957761260     0.9922665249
   27      H      -6.5706704956    -0.7386914453     2.1221464696
   28      H      -5.1131977445     0.0063580102     2.8470888415
   29      H      -7.0022518678     1.2271330997     0.8438161867
   30      H      -5.6020072853     2.0391010960     1.6116542174
   31      H      -5.3899021017     1.4337500111    -1.1223421927
   32      O       2.6903908736    -1.4039412667    -1.8530120623
   33      C       0.0517336633     1.2786858226     1.6722645144
   34      C       4.7800679713     1.4336388373     0.0321165990
   35      C       6.1727370916     1.1662643982     0.7243483070
   36      C       6.4255922723    -0.3322701351     0.3136001415
   37      C       5.1749118050    -0.6160365811    -0.6091588543
   38      O       4.8901639069     0.6921054273    -1.2441911394
   39      H       3.8881902499     0.6583875824     1.9320396483
   40      H       4.0632552173    -1.5478007042     1.1274422133
   41      H      -0.4690734398     1.1049092996     0.6970443797
   42      H       4.5285560339     2.4949817609    -0.1581868857
   43      H       6.9425234251     1.8332789560     0.3044212947
   44      H       6.1355323283     1.3107911535     1.8158540829
   45      H       7.3616414765    -0.4453094577    -0.2557634825
   46      H       6.4557958043    -1.0098679063     1.1817516035
   47      H       5.3176998906    -1.3946648712    -1.3828252348
   48      H       0.0803403448     2.3681940525     1.8778101662
   49      H      -0.4959757811     0.7701215354     2.4862981058
   50      H       0.5299258931     1.6967246224    -1.5135896036
   51      H      -0.8868123227     2.2275200057    -2.5534325344
   52      H      -0.2730969262     0.5355776100    -2.6748827432
   53      H      -1.1181939882    -3.6521578503    -0.2768692226
   54      H       0.0031284308    -3.4553849373     1.1317621660
   55      H       0.7693653137    -2.8187068353    -1.4443672934
   56      H       0.0085290020    -1.2482492279    -1.0167926186
 ----------------------------------------------------------------

    9   -1510.2925353182      6.17E-09 Convergence criterion met
 Total energy in the final basis set = -1510.29253532
 Final energy is   -1510.29253531817
 **  OPTIMIZATION CONVERGED  **

                    Orbital Energies (a.u.)
 --------------------------------------------------------------

 Alpha MOs
 -- Occupied --
-18.941 -18.937 -18.936 -18.932 -18.891 -18.886 -18.882 -18.878
-18.875 -18.875 -10.106 -10.103 -10.102 -10.097 -10.078 -10.070
-10.065 -10.060 -10.058 -10.057 -10.045 -10.044 -10.043 -10.041
-10.039 -10.037 -10.024 -10.022 -10.020 -10.019  -1.019  -1.013
 -1.011  -1.007  -0.973  -0.969  -0.943  -0.939  -0.937  -0.933
 -0.767  -0.763  -0.729  -0.724  -0.715  -0.706  -0.699  -0.657
 -0.656  -0.620  -0.598  -0.583  -0.548  -0.546  -0.540  -0.537
 -0.513  -0.512  -0.480  -0.479  -0.461  -0.458  -0.455  -0.453
 -0.437  -0.430  -0.427  -0.423  -0.416  -0.408  -0.405  -0.399
 -0.392  -0.380  -0.375  -0.369  -0.360  -0.358  -0.357  -0.349
 -0.347  -0.343  -0.337  -0.334  -0.331  -0.328  -0.328  -0.314
 -0.311  -0.308  -0.305  -0.299  -0.295  -0.291  -0.280  -0.278
 -0.271  -0.265  -0.255  -0.248  -0.239  -0.236  -0.233  -0.185
 -0.180  -0.174  -0.172  -0.160  -0.159  -0.153  -0.150  -0.147
 -0.142

          Ground-State Mulliken Net Atomic Charges

     Atom                 Charge (a.u.)
  ----------------------------------------
      1 O                    -0.218906
      2 C                     0.212025
      3 C                    -0.079172
      4 C                    -0.077252
      5 C                     0.204232
      6 O                    -0.172801
      7 C                    -0.052563
      8 C                    -0.047645
      9 O                    -0.170544
     10 C                     0.211419
     11 C                    -0.079516
     12 C                    -0.079396
     13 C                     0.220357
     14 O                    -0.205868
     15 O                    -0.165470
     16 O                    -0.178224
     17 O                    -0.213717
     18 C                    -0.146017
     19 C                     0.026172
     20 C                    -0.144181
     21 C                    -0.143418
     22 C                     0.024637
     23 O                    -0.186557
     24 H                     0.085722
     25 H                     0.084385
     26 H                     0.083202
     27 H                     0.078949
     28 H                     0.073702
     29 H                     0.079352
     30 H                     0.073411
     31 H                     0.092908
     32 O                    -0.209077
     33 C                    -0.149689
     34 C                     0.024364
     35 C                    -0.143143
     36 C                    -0.145081
     37 C                     0.025418
     38 O                    -0.186129
     39 H                     0.085652
     40 H                     0.085482
     41 H                     0.113046
     42 H                     0.087530
     43 H                     0.078211
     44 H                     0.072748
     45 H                     0.078210
     46 H                     0.072702
     47 H                     0.087247
     48 H                     0.076238
     49 H                     0.081636
     50 H                     0.114627
     51 H                     0.095128
     52 H                     0.086139
     53 H                     0.090023
     54 H                     0.097215
     55 H                     0.093494
     56 H                     0.098783
  ----------------------------------------
  Sum of atomic charges =    -0.000000

                    Cartesian Multipole Moments
 -----------------------------------------------------------------
    Charge (ESU x 10^10)
                -0.0000
    Dipole Moment (Debye)
         X       0.5284      Y      -0.5167      Z       4.6938
       Tot       4.7516
    Quadrupole Moments (Debye-Ang)
        XX    -151.1872     XY      -4.7780     YY    -154.4115
        XZ      -3.1957     YZ       3.1426     ZZ    -167.6072

 Total job time:  67.44s(wall), 3212.65s(cpu)
        *  Thank you very much for using Q-Chem.  Have a nice day.  *
