 Q-Chem 5.0, Q-Chem, Inc., Pleasanton, CA (2017)
 Q-Chem 5.0.1 for Intel X86 EM64T Linux

User input:
--------------------------------------------------------------
$molecule
0  1
O 1.7783399053 2.025230271 -0.3795082793
C 2.1482022949 1.3314853039 0.5964225135
C 3.5766370879 0.7507070446 0.854413085
C 3.7869044314 -0.7556741179 0.3931202598
C 2.6296408462 -1.3967392196 -0.4571262216
O 1.6179924483 -1.9019468296 0.42123971
C 0.464519513 -2.4087409168 -0.3711268519
C -0.5820705793 -2.9805697247 0.6522585163
O -1.4971756545 -1.9673026521 1.2359745623
C -2.2800490479 -1.3510896375 0.1992563375
C -3.2321770246 -0.2981635085 0.8549423379
C -3.3928794351 1.0449518397 0.0293306988
C -2.5247298341 1.1911151695 -1.2730646051
O -2.8921845884 1.7110247978 -2.3475715991
O 1.3296766844 0.9717385873 1.702700301
O -1.1826252479 0.7626031189 -1.0121606258
O -2.2696149157 -1.7137299003 -0.9976429089
C -0.2917017932 1.004174959 -2.1741510139
C -4.7359677514 -0.8282266498 0.8336453232
C -5.5981684189 0.0638508146 1.8124970137
C -5.75905371 1.3798118938 0.9632002795
C -4.9366608678 1.0065764326 -0.3301203569
O -5.2111890413 -0.4381270295 -0.5109052585
H -2.8841710123 -0.1034812965 1.8839780314
H -3.1563298189 1.9134601561 0.6728516125
H -4.8375875901 -1.9212187086 0.9803771287
H -6.5711209381 -0.413973536 2.0087070246
H -5.0882536589 0.2353765613 2.7740842206
H -6.8138804474 1.5687611391 0.7080384361
H -5.3535347895 2.2685743271 1.4723874161
H -5.1905320253 1.5697257018 -1.2495070791
O 2.5623175503 -1.465036239 -1.7038508576
C -0.048607398 1.4980752131 1.5403770076
C 4.6986397494 1.489881723 0.0082829068
C 6.0846346211 1.238025334 0.7195719147
C 6.3235567554 -0.2791828059 0.3757432246
C 5.0677977012 -0.5920356994 -0.5309038909
O 4.8000741699 0.6858498956 -1.229583784
H 3.7736199818 0.8304194532 1.9383071649
H 3.9734763598 -1.4027369362 1.2692314706
H -0.4962288518 1.1891309556 0.5620134828
H 4.4639693504 2.5444277808 -0.2338678125
H 6.8640810425 1.8787776402 0.2773151901
H 6.0412191789 1.4295688962 1.8035902305
H 7.2574054819 -0.426826584 -0.189428677
H 6.3485620589 -0.9173676007 1.2733683505
H 5.2003365295 -1.4098753572 -1.2649876001
H -0.05713014 2.6045285072 1.6159414931
H -0.6271348104 1.0710515154 2.3792005476
H 0.6371012613 1.4525326264 -1.7565058265
H -0.7905257158 1.6851265652 -2.8901758335
H -0.0685186895 0.0401871483 -2.6727140909
H -1.1731683035 -3.7730555925 0.1420694333
H -0.0497804089 -3.4267890241 1.5163620614
H 0.7907939874 -3.219897764 -1.057975386
H 0.0082840987 -1.6030494207 -0.9819854904
$end

$rem
JOBTYPE                   OPT
METHOD                    B3LYP
DFT_D                     d3_op
BASIS                     STO-3G
GEOM_OPT_MAX_CYCLES       100
GEOM_OPT_TOL_GRADIENT     300
GEOM_OPT_TOL_DISPLACEMENT 1200
GEOM_OPT_TOL_ENERGY       100
SYMMETRY                  False
THRESH                    12
SCF_CONVERGENCE           8
MAX_SUB_FILE_NUM          128
MEM_STATIC                400
MEM_TOTAL                 4000
$end
--------------------------------------------------------------

   16   -1510.2923334591      6.46E-09 Convergence criterion met
 Total energy in the final basis set = -1510.29233346
   15   -1510.2822031213      4.65E-09 Convergence criterion met
 Total energy in the final basis set = -1510.28220312
   14   -1510.2867252817      6.27E-09 Convergence criterion met
 Total energy in the final basis set = -1510.28672528
   15   -1510.2727210258      5.18E-09 Convergence criterion met
 Total energy in the final basis set = -1510.27272103
   15   -1510.2890234574      2.92E-09 Convergence criterion met
 Total energy in the final basis set = -1510.28902346
   15   -1510.2917070865      2.49E-09 Convergence criterion met
 Total energy in the final basis set = -1510.29170709
   15   -1510.2587595928      3.72E-09 Convergence criterion met
 Total energy in the final basis set = -1510.25875959
   15   -1510.2906895992      3.44E-09 Convergence criterion met
   11   -1510.2971040304      7.63E-09 Convergence criterion met
 Total energy in the final basis set = -1510.29710403
   10   -1510.2971101863      9.93E-09 Convergence criterion met
 Total energy in the final basis set = -1510.29711019
   11   -1510.2971126657      1.98E-09 Convergence criterion met
 Total energy in the final basis set = -1510.29711267
   10   -1510.2971133019      9.34E-09 Convergence criterion met
 Total energy in the final basis set = -1510.29711330
    9   -1510.2971089747      6.06E-09 Convergence criterion met
 Total energy in the final basis set = -1510.29710897
   11   -1510.2971073812      1.68E-09 Convergence criterion met
 Total energy in the final basis set = -1510.29710738

             Standard Nuclear Orientation (Angstroms)
    I     Atom           X                Y                Z
 ----------------------------------------------------------------
    1      O       1.7746871253     1.8866506097     0.0409422824
    2      C       2.1403687972     1.0814459982     0.9296162918
    3      C       3.5760401788     0.4834650769     1.1155435294
    4      C       3.8480446402    -0.7882333271     0.1981141652
    5      C       2.6266409123    -1.2169922094    -0.6901732410
    6      O       1.6313704194    -1.7893097400     0.1656937622
    7      C       0.5084017460    -2.3232471212    -0.6437531073
    8      C      -0.5704504313    -2.8845759284     0.3441555872
    9      O      -1.4078194436    -1.8225918446     0.9497417621
   10      C      -2.4222260861    -1.4076312899     0.0205523403
   11      C      -3.3487491506    -0.3719154619     0.7415019024
   12      C      -3.4174754048     1.0494348749     0.0432787805
   13      C      -2.4864381043     1.2596503930    -1.2020507068
   14      O      -2.7837598039     1.8496100204    -2.2618004415
   15      O       1.2966392142     0.5635852987     1.9508215638
   16      O      -1.1822152437     0.7364739883    -0.9151230578
   17      O      -2.5501091798    -1.8769618402    -1.1307722565
   18      C      -0.2076332566     1.0973416488    -1.9775456271
   19      C      -4.8733819745    -0.8181587845     0.6296432030
   20      C      -5.7224016935     0.0282366541     1.6594589951
   21      C      -5.7980648975     1.4183452735     0.9233359003
   22      C      -4.9465791234     1.1200980748    -0.3707426217
   23      O      -5.2827385879    -0.2869107543    -0.6887469946
   24      H      -3.0188571349    -0.2866284131     1.7910126611
   25      H      -3.1661754066     1.8416668842     0.7735749684
   26      H      -5.0330256663    -1.9129868560     0.6726858287
   27      H      -6.7218793710    -0.4159826780     1.7901042391
   28      H      -5.2330411353     0.0941105388     2.6442282943
   29      H      -6.8344218432     1.6744298541     0.6513212892
   30      H      -5.3750100294     2.2420555192     1.5200602829
   31      H      -5.1398155618     1.7743377975    -1.2433413501
   32      O       2.5133656671    -1.1201445340    -1.9310215428
   33      C      -0.0910277127     1.0692863888     1.7940599514
   34      C       4.6845643466     1.4792687198     0.5685607881
   35      C       6.0925497699     1.0009517710     1.1028716730
   36      C       6.3569728055    -0.2509039825     0.1846571699
   37      C       5.0468824534    -0.2644146007    -0.6948162535
   38      O       4.7354308993     1.1717513332    -0.8784432791
   39      H       3.7182152731     0.2363497376     2.1822625136
   40      H       4.1390275022    -1.6545728348     0.8195986040
   41      H      -0.4898794960     0.8937899771     0.7641645332
   42      H       4.4527699352     2.5502162487     0.7266684377
   43      H       6.8506037373     1.7845485131     0.9462854662
   44      H       6.0639846186     0.7445491554     2.1739658320
   45      H       7.2448777235    -0.1040167594    -0.4507059613
   46      H       6.4836509910    -1.1823324066     0.7594768911
   47      H       5.1293673176    -0.7677134104    -1.6776139758
   48      H      -0.1409735466     2.1530037634     2.0255352781
   49      H      -0.6924865910     0.5086144613     2.5318692628
   50      H       0.6974602430     1.4686286528    -1.4465523623
   51      H      -0.6442999248     1.8730759214    -2.6350533495
   52      H       0.0382167711     0.2011030832    -2.5803492202
   53      H      -1.2083857104    -3.6080649011    -0.2083243958
   54      H      -0.0715723708    -3.3971605493     1.1914983918
   55      H       0.8658395394    -3.1411535285    -1.3077774088
   56      H       0.0587290928    -1.5355727297    -1.2825901312
 ----------------------------------------------------------------

    9   -1510.2971071631      8.94E-09 Convergence criterion met
 Total energy in the final basis set = -1510.29710716
 Final energy is   -1510.29710716309
 **  OPTIMIZATION CONVERGED  **

                    Orbital Energies (a.u.)
 --------------------------------------------------------------

 Alpha MOs
 -- Occupied --
-18.943 -18.934 -18.934 -18.934 -18.890 -18.886 -18.885 -18.878
-18.874 -18.873 -10.107 -10.100 -10.100 -10.099 -10.077 -10.073
-10.063 -10.060 -10.059 -10.058 -10.044 -10.043 -10.043 -10.040
-10.039 -10.037 -10.023 -10.022 -10.020 -10.019  -1.019  -1.015
 -1.010  -1.007  -0.973  -0.969  -0.943  -0.940  -0.934  -0.933
 -0.767  -0.763  -0.730  -0.724  -0.715  -0.706  -0.699  -0.656
 -0.655  -0.619  -0.598  -0.583  -0.549  -0.545  -0.539  -0.537
 -0.513  -0.512  -0.481  -0.477  -0.460  -0.458  -0.455  -0.453
 -0.436  -0.431  -0.429  -0.424  -0.416  -0.406  -0.404  -0.399
 -0.394  -0.380  -0.373  -0.369  -0.361  -0.357  -0.353  -0.349
 -0.345  -0.345  -0.336  -0.333  -0.330  -0.329  -0.327  -0.314
 -0.311  -0.308  -0.305  -0.301  -0.295  -0.289  -0.281  -0.277
 -0.272  -0.262  -0.255  -0.249  -0.240  -0.236  -0.233  -0.181
 -0.180  -0.177  -0.172  -0.163  -0.158  -0.153  -0.149  -0.146
 -0.143

          Ground-State Mulliken Net Atomic Charges

     Atom                 Charge (a.u.)
  ----------------------------------------
      1 O                    -0.220327
      2 C                     0.211129
      3 C                    -0.078502
      4 C                    -0.078112
      5 C                     0.205734
      6 O                    -0.172716
      7 C                    -0.049793
      8 C                    -0.047852
      9 O                    -0.170336
     10 C                     0.210132
     11 C                    -0.079765
     12 C                    -0.078984
     13 C                     0.218472
     14 O                    -0.204274
     15 O                    -0.164642
     16 O                    -0.176314
     17 O                    -0.215035
     18 C                    -0.147387
     19 C                     0.026387
     20 C                    -0.144264
     21 C                    -0.143754
     22 C                     0.024559
     23 O                    -0.185744
     24 H                     0.085242
     25 H                     0.085246
     26 H                     0.083472
     27 H                     0.078824
     28 H                     0.073404
     29 H                     0.079267
     30 H                     0.073231
     31 H                     0.092469
     32 O                    -0.210064
     33 C                    -0.146761
     34 C                     0.025604
     35 C                    -0.144107
     36 C                    -0.144017
     37 C                     0.024616
     38 O                    -0.185949
     39 H                     0.086257
     40 H                     0.084959
     41 H                     0.112023
     42 H                     0.085263
     43 H                     0.078136
     44 H                     0.073032
     45 H                     0.078325
     46 H                     0.072698
     47 H                     0.088756
     48 H                     0.075263
     49 H                     0.083115
     50 H                     0.114645
     51 H                     0.098386
     52 H                     0.086818
     53 H                     0.093415
     54 H                     0.094350
     55 H                     0.087029
     56 H                     0.098440
  ----------------------------------------
  Sum of atomic charges =    -0.000000

                    Cartesian Multipole Moments
 -----------------------------------------------------------------
    Charge (ESU x 10^10)
                -0.0000
    Dipole Moment (Debye)
         X       0.7858      Y      -1.0832      Z       4.4630
       Tot       4.6593
    Quadrupole Moments (Debye-Ang)
        XX    -150.3835     XY      -7.3140     YY    -155.0428
        XZ      -5.0664     YZ       3.5542     ZZ    -167.0464

 Total job time:  104.63s(wall), 4992.92s(cpu)
        *  Thank you very much for using Q-Chem.  Have a nice day.  *
