 Q-Chem 5.0, Q-Chem, Inc., Pleasanton, CA (2017)
 Q-Chem 5.0.1 for Intel X86 EM64T Linux

User input:
--------------------------------------------------------------
$molecule
0  1
O -3.94934 -3.66094 2.70899
C -3.26408 -4.56952 2.26188
C -3.36658 -6.02376 2.66595
C -2.38484 -6.52623 3.73719
C -1.52918 -5.47766 4.4128
O -0.42464 -5.21947 3.65205
C 0.3823 -4.15797 4.17293
C 1.61259 -3.95357 3.295
O 1.28564 -3.10329 2.18459
C 0.8748 -1.85231 2.50924
C 0.55229 -1.00666 1.30031
C -0.68654 -0.11132 1.44846
C -1.19882 0.07933 2.86194
O -1.64282 1.12207 3.32034
O -2.3581 -4.32169 1.28681
O -1.54601 -1.06283 3.51635
O 1.09067 -1.34696 3.60683
C -2.19301 -1.1076 4.73465
C 1.63747 0.04932 1.00695
C 1.58132 0.44444 -0.46708
C 0.2784 1.21554 -0.49962
C -0.06799 1.23024 0.99553
O 1.18157 1.21755 1.64011
H 0.48177 -1.6795 0.41553
H -1.53665 -0.38539 0.79232
H 2.66254 -0.28662 1.27778
H 2.42109 1.15557 -0.63973
H 1.65595 -0.39048 -1.19661
H 0.48914 2.24185 -0.87406
H -0.53527 0.74948 -1.09662
H -0.72046 2.10243 1.22022
O -1.70819 -5.04477 5.54695
C -2.23529 -3.11336 0.65771
C -4.71055 -6.30467 3.37876
C -5.0571 -7.79023 3.28716
C -4.05033 -8.36993 4.25336
C -3.3925 -7.08509 4.76687
O -4.42802 -6.13737 4.74319
H -3.3625 -6.62481 1.72883
H -1.71516 -7.34516 3.39076
H -2.02529 -2.36089 1.42595
H -5.55516 -5.70171 2.97783
H -6.076 -7.92075 3.7176
H -5.03462 -8.21777 2.26171
H -4.60391 -8.87417 5.07672
H -3.31123 -9.07078 3.8085
H -2.92725 -7.27517 5.75957
H -3.17678 -2.85723 0.12666
H -1.40352 -3.1605 -0.07371
H -2.35263 -2.16624 5.02432
H -3.18276 -0.60852 4.66195
H -1.57545 -0.61071 5.51286
H 2.41259 -3.45546 3.88891
H 2.01975 -4.92857 2.95255
H 0.77204 -4.50627 5.15693
H -0.20265 -3.23788 4.36593
$end

$opt
CONSTRAINT
tors           1           2           3           4     -96.449
tors           3           4           5           6     -84.209
tors           4           5           6           7    +175.280
tors           5           6           7           8    +178.454
tors           6           7           8           9     +84.272
tors           7           8           9          10     +61.497
tors           8           9          10          11    +179.750
tors           9          10          11          12    +140.139
tors          11          12          13          14    +141.476
ENDCONSTRAINT
$end

$rem
JOBTYPE                   OPT
METHOD                    B3LYP
DFT_D                     d3_op
BASIS                     STO-3G
GEOM_OPT_MAX_CYCLES       100
GEOM_OPT_TOL_GRADIENT     300
GEOM_OPT_TOL_DISPLACEMENT 1200
GEOM_OPT_TOL_ENERGY       100
SYMMETRY                  False
THRESH                    12
SCF_CONVERGENCE           8
MAX_SUB_FILE_NUM          128
MEM_STATIC                400
MEM_TOTAL                 4000
$end
--------------------------------------------------------------

   15   -1510.1462521067      7.55E-09 Convergence criterion met
 Total energy in the final basis set = -1510.14625211
   14   -1510.2186885842      2.32E-09 Convergence criterion met
 Total energy in the final basis set = -1510.21868858
   15   -1510.2520011359      2.96E-09 Convergence criterion met
 Total energy in the final basis set = -1510.25200114
   15   -1510.2737084140      2.20E-09 Convergence criterion met
 Total energy in the final basis set = -1510.27370841
   14   -1510.2819001924      3.99E-09 Convergence criterion met
 Total energy in the final basis set = -1510.28190019
   13   -1510.2855631403      8.65E-09 Convergence criterion met
 Total energy in the final basis set = -1510.28556314
   13   -1510.2873626721      6.35E-09 Convergence criterion met
 Total energy in the final basis set = -1510.28736267
   13   -1510.2889009149      4.73E-09 Convergence criterion met
   11   -1510.2925038707      6.99E-09 Convergence criterion met
 Total energy in the final basis set = -1510.29250387
   11   -1510.2925188445      5.73E-09 Convergence criterion met
 Total energy in the final basis set = -1510.29251884
   10   -1510.2925258742      8.77E-09 Convergence criterion met
 Total energy in the final basis set = -1510.29252587
    9   -1510.2925290226      8.58E-09 Convergence criterion met
 Total energy in the final basis set = -1510.29252902
    9   -1510.2925303250      4.50E-09 Convergence criterion met
 Total energy in the final basis set = -1510.29253032
    9   -1510.2925318325      3.81E-09 Convergence criterion met
 Total energy in the final basis set = -1510.29253183

             Standard Nuclear Orientation (Angstroms)
    I     Atom           X                Y                Z
 ----------------------------------------------------------------
    1      O       1.7783399053     2.0252302710    -0.3795082793
    2      C       2.1482022949     1.3314853039     0.5964225135
    3      C       3.5766370879     0.7507070446     0.8544130850
    4      C       3.7869044314    -0.7556741179     0.3931202598
    5      C       2.6296408462    -1.3967392196    -0.4571262216
    6      O       1.6179924483    -1.9019468296     0.4212397100
    7      C       0.4645195130    -2.4087409168    -0.3711268519
    8      C      -0.5820705793    -2.9805697247     0.6522585163
    9      O      -1.4971756545    -1.9673026521     1.2359745623
   10      C      -2.2800490479    -1.3510896375     0.1992563375
   11      C      -3.2321770246    -0.2981635085     0.8549423379
   12      C      -3.3928794351     1.0449518397     0.0293306988
   13      C      -2.5247298341     1.1911151695    -1.2730646051
   14      O      -2.8921845884     1.7110247978    -2.3475715991
   15      O       1.3296766844     0.9717385873     1.7027003010
   16      O      -1.1826252479     0.7626031189    -1.0121606258
   17      O      -2.2696149157    -1.7137299003    -0.9976429089
   18      C      -0.2917017932     1.0041749590    -2.1741510139
   19      C      -4.7359677514    -0.8282266498     0.8336453232
   20      C      -5.5981684189     0.0638508146     1.8124970137
   21      C      -5.7590537100     1.3798118938     0.9632002795
   22      C      -4.9366608678     1.0065764326    -0.3301203569
   23      O      -5.2111890413    -0.4381270295    -0.5109052585
   24      H      -2.8841710123    -0.1034812965     1.8839780314
   25      H      -3.1563298189     1.9134601561     0.6728516125
   26      H      -4.8375875901    -1.9212187086     0.9803771287
   27      H      -6.5711209381    -0.4139735360     2.0087070246
   28      H      -5.0882536589     0.2353765613     2.7740842206
   29      H      -6.8138804474     1.5687611391     0.7080384361
   30      H      -5.3535347895     2.2685743271     1.4723874161
   31      H      -5.1905320253     1.5697257018    -1.2495070791
   32      O       2.5623175503    -1.4650362390    -1.7038508576
   33      C      -0.0486073980     1.4980752131     1.5403770076
   34      C       4.6986397494     1.4898817230     0.0082829068
   35      C       6.0846346211     1.2380253340     0.7195719147
   36      C       6.3235567554    -0.2791828059     0.3757432246
   37      C       5.0677977012    -0.5920356994    -0.5309038909
   38      O       4.8000741699     0.6858498956    -1.2295837840
   39      H       3.7736199818     0.8304194532     1.9383071649
   40      H       3.9734763598    -1.4027369362     1.2692314706
   41      H      -0.4962288518     1.1891309556     0.5620134828
   42      H       4.4639693504     2.5444277808    -0.2338678125
   43      H       6.8640810425     1.8787776402     0.2773151901
   44      H       6.0412191789     1.4295688962     1.8035902305
   45      H       7.2574054819    -0.4268265840    -0.1894286770
   46      H       6.3485620589    -0.9173676007     1.2733683505
   47      H       5.2003365295    -1.4098753572    -1.2649876001
   48      H      -0.0571301400     2.6045285072     1.6159414931
   49      H      -0.6271348104     1.0710515154     2.3792005476
   50      H       0.6371012613     1.4525326264    -1.7565058265
   51      H      -0.7905257158     1.6851265652    -2.8901758335
   52      H      -0.0685186895     0.0401871483    -2.6727140909
   53      H      -1.1731683035    -3.7730555925     0.1420694333
   54      H      -0.0497804089    -3.4267890241     1.5163620614
   55      H       0.7907939874    -3.2198977640    -1.0579753860
   56      H       0.0082840987    -1.6030494207    -0.9819854904
 ----------------------------------------------------------------

    9   -1510.2925327508      3.14E-09 Convergence criterion met
 Total energy in the final basis set = -1510.29253275
 Final energy is   -1510.29253275083
 **  OPTIMIZATION CONVERGED  **

                    Orbital Energies (a.u.)
 --------------------------------------------------------------

 Alpha MOs
 -- Occupied --
-18.943 -18.937 -18.935 -18.932 -18.891 -18.886 -18.884 -18.876
-18.875 -18.875 -10.107 -10.102 -10.101 -10.097 -10.078 -10.071
-10.065 -10.061 -10.058 -10.057 -10.044 -10.043 -10.042 -10.042
-10.038 -10.037 -10.024 -10.022 -10.020 -10.019  -1.019  -1.013
 -1.011  -1.007  -0.974  -0.969  -0.943  -0.939  -0.936  -0.933
 -0.767  -0.763  -0.729  -0.724  -0.715  -0.706  -0.699  -0.657
 -0.655  -0.620  -0.598  -0.583  -0.548  -0.545  -0.540  -0.537
 -0.514  -0.512  -0.479  -0.478  -0.460  -0.458  -0.454  -0.452
 -0.437  -0.430  -0.428  -0.425  -0.416  -0.409  -0.405  -0.399
 -0.393  -0.380  -0.373  -0.369  -0.360  -0.359  -0.356  -0.349
 -0.348  -0.343  -0.336  -0.334  -0.330  -0.328  -0.327  -0.314
 -0.311  -0.308  -0.305  -0.300  -0.297  -0.292  -0.279  -0.276
 -0.272  -0.264  -0.255  -0.250  -0.239  -0.236  -0.233  -0.184
 -0.179  -0.174  -0.173  -0.162  -0.158  -0.153  -0.149  -0.147
 -0.142

          Ground-State Mulliken Net Atomic Charges

     Atom                 Charge (a.u.)
  ----------------------------------------
      1 O                    -0.219240
      2 C                     0.211606
      3 C                    -0.079458
      4 C                    -0.077543
      5 C                     0.203692
      6 O                    -0.172788
      7 C                    -0.052104
      8 C                    -0.047651
      9 O                    -0.169557
     10 C                     0.211580
     11 C                    -0.079932
     12 C                    -0.079141
     13 C                     0.220905
     14 O                    -0.205618
     15 O                    -0.166666
     16 O                    -0.176170
     17 O                    -0.213707
     18 C                    -0.146517
     19 C                     0.026407
     20 C                    -0.143906
     21 C                    -0.143905
     22 C                     0.024675
     23 O                    -0.186498
     24 H                     0.085608
     25 H                     0.084892
     26 H                     0.083298
     27 H                     0.079086
     28 H                     0.073857
     29 H                     0.079423
     30 H                     0.073423
     31 H                     0.092911
     32 O                    -0.209820
     33 C                    -0.150761
     34 C                     0.024966
     35 C                    -0.143396
     36 C                    -0.144997
     37 C                     0.025618
     38 O                    -0.185835
     39 H                     0.086031
     40 H                     0.084838
     41 H                     0.113078
     42 H                     0.087017
     43 H                     0.078142
     44 H                     0.072828
     45 H                     0.078101
     46 H                     0.072644
     47 H                     0.086719
     48 H                     0.075672
     49 H                     0.080291
     50 H                     0.114438
     51 H                     0.098575
     52 H                     0.087479
     53 H                     0.088867
     54 H                     0.096434
     55 H                     0.090019
     56 H                     0.102091
  ----------------------------------------
  Sum of atomic charges =    -0.000000

                    Cartesian Multipole Moments
 -----------------------------------------------------------------
    Charge (ESU x 10^10)
                 0.0000
    Dipole Moment (Debye)
         X       0.4958      Y      -0.3797      Z       4.6144
       Tot       4.6565
    Quadrupole Moments (Debye-Ang)
        XX    -151.1301     XY      -5.0640     YY    -153.4834
        XZ      -2.9710     YZ       2.5046     ZZ    -168.1482

 Total job time:  81.42s(wall), 3874.67s(cpu)
        *  Thank you very much for using Q-Chem.  Have a nice day.  *
