 Q-Chem 5.0, Q-Chem, Inc., Pleasanton, CA (2017)
 Q-Chem 5.0.1 for Intel X86 EM64T Linux

User input:
--------------------------------------------------------------
$molecule
0  1
O 1.915922639 2.0582048346 -0.0722586348
C 2.2963584178 1.1839085389 0.7421539924
C 3.7334823523 0.5677591865 0.8728666612
C 3.8827394396 -0.876547625 0.2214585374
C 2.651363519 -1.2779871009 -0.6640217475
O 1.6520021352 -1.8614537926 0.1773408821
C 0.4212509503 -2.1157907594 -0.614155411
C -0.572289794 -2.9083764872 0.3107313185
O -1.515403394 -2.0070071337 1.0203047928
C -2.3652171109 -1.3404997567 0.0766643379
C -3.3426082862 -0.4102086557 0.8644935978
C -3.5531699206 0.9972741668 0.1684856751
C -2.6400489445 1.3206567361 -1.0695906294
O -2.9961013403 1.9143047651 -2.1088080986
O 1.4850393644 0.6008536869 1.7552241548
O -1.2782832512 0.9643431946 -0.7848688877
O -2.366821346 -1.5654459344 -1.1535485032
C -0.359789597 1.4132631675 -1.861944733
C -4.8252036113 -0.9875293615 0.789505301
C -5.7299590885 -0.1960927593 1.815924565
C -5.9522012096 1.1596106701 1.0472469983
C -5.0822507389 0.9166866452 -0.2461669697
O -5.2928920464 -0.5215052127 -0.5337573377
H -2.984435431 -0.3104644224 1.9035500136
H -3.3899123833 1.8080735829 0.9035481892
H -4.8900132662 -2.0909503808 0.8585177684
H -6.6793761444 -0.7291858194 1.9829908493
H -5.227191182 -0.0579782834 2.7865994432
H -7.0110525535 1.3007288077 0.7778558519
H -5.612337675 2.0367700317 1.6203549004
H -5.3369886891 1.5335076245 -1.1301834809
O 2.5160080149 -1.11020477 -1.8954684399
C 0.115876764 1.1758352697 1.7613781481
C 4.8385355728 1.3785662639 0.0745167558
C 6.2423055327 1.0173954873 0.6980910148
C 6.4297603167 -0.4561342731 0.1754108107
C 5.1373985667 -0.634885152 -0.7167150849
O 4.8791718399 0.7223577735 -1.2519746926
H 3.9719004645 0.5169873302 1.9505244113
H 4.0494906416 -1.6496527715 0.991906115
H -0.4231039998 1.0309973333 0.7913497383
H 4.621019426 2.4586241828 -0.0353672101
H 7.0210373031 1.6870575487 0.2994805449
H 6.2452184431 1.085487331 1.7977050649
H 7.3398034683 -0.5571244997 -0.4368101348
H 6.4700523808 -1.194144171 0.9926379647
H 5.2269311677 -1.3629371378 -1.5458019196
H 0.1475695301 2.2585661242 1.9991740458
H -0.4185290472 0.6415244296 2.5678362413
H 0.5750588399 1.7357731453 -1.3485284027
H -0.8187661404 2.244588242 -2.4301422543
H -0.1512793476 0.5728543828 -2.5536589682
H -1.1338512291 -3.6489366788 -0.2993041565
H -0.0076638919 -3.4363342948 1.1051308072
H 0.6587976666 -2.7093385321 -1.5233697758
H -0.0373059747 -1.1600098933 -0.9412904458
$end

$rem
JOBTYPE                   OPT
METHOD                    B3LYP
DFT_D                     d3_op
BASIS                     STO-3G
GEOM_OPT_MAX_CYCLES       100
GEOM_OPT_TOL_GRADIENT     300
GEOM_OPT_TOL_DISPLACEMENT 1200
GEOM_OPT_TOL_ENERGY       100
SYMMETRY                  False
THRESH                    12
SCF_CONVERGENCE           8
MAX_SUB_FILE_NUM          128
MEM_STATIC                400
MEM_TOTAL                 4000
$end
--------------------------------------------------------------

   15   -1510.2932370664      8.69E-09 Convergence criterion met
 Total energy in the final basis set = -1510.29323707
   15   -1510.2887531644      3.02E-09 Convergence criterion met
 Total energy in the final basis set = -1510.28875316
   14   -1510.2826841945      3.95E-09 Convergence criterion met
 Total energy in the final basis set = -1510.28268419
   15   -1510.2639731404      5.86E-09 Convergence criterion met
 Total energy in the final basis set = -1510.26397314
   14   -1510.2714683595      6.96E-09 Convergence criterion met
 Total energy in the final basis set = -1510.27146836
   14   -1510.2841488329      3.95E-09 Convergence criterion met
 Total energy in the final basis set = -1510.28414883
   15   -1510.2893517817      3.37E-09 Convergence criterion met
 Total energy in the final basis set = -1510.28935178
   15   -1510.2876174675      2.77E-09 Convergence criterion met
    9   -1510.2990195004      4.78E-09 Convergence criterion met
 Total energy in the final basis set = -1510.29901950
   11   -1510.2990252681      3.11E-09 Convergence criterion met
 Total energy in the final basis set = -1510.29902527
    9   -1510.2990309450      8.64E-09 Convergence criterion met
 Total energy in the final basis set = -1510.29903094
    9   -1510.2990356476      7.59E-09 Convergence criterion met
 Total energy in the final basis set = -1510.29903565
    9   -1510.2990385613      5.32E-09 Convergence criterion met
 Total energy in the final basis set = -1510.29903856
    9   -1510.2990399862      2.35E-09 Convergence criterion met
 Total energy in the final basis set = -1510.29903999

             Standard Nuclear Orientation (Angstroms)
    I     Atom           X                Y                Z
 ----------------------------------------------------------------
    1      O      -1.7158181112    -0.9408325600    -0.8386391406
    2      C      -2.0245323084    -1.0709782903     0.3696074613
    3      C      -3.2201619270    -0.3629672655     1.0900258126
    4      C      -3.6854257351     0.9502809292     0.3402982511
    5      C      -2.7401868744     1.3911937431    -0.8368339954
    6      O      -1.5010083945     1.8196693654    -0.2505187271
    7      C      -0.5487627755     2.2297272652    -1.3077738712
    8      C       0.5989932128     3.0400400913    -0.6164480836
    9      O       1.3293239877     2.2211690746     0.3827231668
   10      C       2.3037836266     1.3993514256    -0.2672026409
   11      C       3.0280786288     0.5267267937     0.8114417387
   12      C       3.4068216096    -0.9130742258     0.2672118257
   13      C       2.8508060781    -1.2060922677    -1.1718321800
   14      O       3.4883593211    -1.4992614352    -2.2025009690
   15      O      -1.3810853718    -1.9333927071     1.2977622263
   16      O       1.4174431180    -1.1342879563    -1.0983508761
   17      O       2.5321674426     1.4161150167    -1.4976766486
   18      C       0.7927528782    -1.3342832811    -2.4263680832
   19      C       4.4796898535     1.1044370821     1.1181470290
   20      C       5.0573190862     0.3631202155     2.3897696767
   21      C       5.4712942476    -1.0263681437     1.7747863726
   22      C       4.9887476986    -0.8491195770     0.2837713018
   23      O       5.2860053649     0.5744667841    -0.0031837374
   24      H       2.3985210008     0.4832058083     1.7171102873
   25      H       3.0236158524    -1.6945112217     0.9487594501
   26      H       4.5359919809     2.2099231855     1.1512820546
   27      H       5.9278371736     0.9057160746     2.7910976642
   28      H       4.3023485894     0.2662332809     3.1861766082
   29      H       6.5625787861    -1.1729479738     1.8108566326
   30      H       4.9826099888    -1.8777635581     2.2752522900
   31      H       5.4729216258    -1.5031832494    -0.4671628618
   32      O      -3.0209285136     1.4828114357    -2.0501003676
   33      C      -0.2955208712    -2.7070203658     0.6427903309
   34      C      -4.5306101832    -1.2556310981     0.9471481250
   35      C      -5.6579904534    -0.6583903834     1.8790719487
   36      C      -6.1214568294     0.5903659414     1.0404569600
   37      C      -5.1211489242     0.5209035014    -0.1779901393
   38      O      -4.9903433794    -0.9360542296    -0.4224945320
   39      H      -2.9565984559    -0.1814395025     2.1465003355
   40      H      -3.7506239970     1.7930262366     1.0524646546
   41      H       0.4065011389    -2.0485468610     0.0704473553
   42      H      -4.3560842533    -2.3437201248     1.0581840505
   43      H      -6.4746271876    -1.3861010465     2.0089743864
   44      H      -5.2689748622    -0.3827596336     2.8723748033
   45      H      -7.1604271564     0.4774970939     0.6916884191
   46      H      -6.0368699069     1.5359253987     1.5995308202
   47      H      -5.4398487757     1.0400074951    -1.1026354437
   48      H      -0.7200948871    -3.4661016424    -0.0454387978
   49      H       0.2366592439    -3.2224696200     1.4628458563
   50      H      -0.2959882557    -1.2789859068    -2.2194107450
   51      H       1.0623709530    -2.3195666996    -2.8565917153
   52      H       1.1026529591    -0.5369748515    -3.1310513861
   53      H       1.2948277914     3.4146658610    -1.3982014890
   54      H       0.1731744985     3.8933126869    -0.0513496847
   55      H      -1.0526407297     2.8604777554    -2.0727546880
   56      H      -0.1299127130     1.3361647577    -1.8193717838
 ----------------------------------------------------------------

    9   -1510.2990400997      3.45E-09 Convergence criterion met
 Total energy in the final basis set = -1510.29904010
 Final energy is   -1510.29904009968
 **  OPTIMIZATION CONVERGED  **

                    Orbital Energies (a.u.)
 --------------------------------------------------------------

 Alpha MOs
 -- Occupied --
-18.938 -18.938 -18.936 -18.922 -18.889 -18.886 -18.881 -18.879
-18.877 -18.867 -10.104 -10.102 -10.102 -10.094 -10.076 -10.068
-10.063 -10.061 -10.059 -10.056 -10.050 -10.046 -10.041 -10.039
-10.038 -10.034 -10.023 -10.021 -10.021 -10.019  -1.018  -1.013
 -1.009  -1.001  -0.972  -0.969  -0.941  -0.938  -0.938  -0.928
 -0.766  -0.762  -0.729  -0.723  -0.715  -0.706  -0.698  -0.658
 -0.656  -0.617  -0.597  -0.581  -0.548  -0.545  -0.539  -0.536
 -0.513  -0.509  -0.482  -0.478  -0.460  -0.456  -0.453  -0.452
 -0.437  -0.434  -0.431  -0.419  -0.411  -0.408  -0.405  -0.397
 -0.392  -0.380  -0.376  -0.365  -0.362  -0.356  -0.351  -0.348
 -0.346  -0.342  -0.335  -0.332  -0.331  -0.328  -0.325  -0.313
 -0.311  -0.307  -0.304  -0.298  -0.294  -0.287  -0.280  -0.278
 -0.271  -0.263  -0.255  -0.244  -0.241  -0.236  -0.234  -0.186
 -0.180  -0.173  -0.168  -0.159  -0.157  -0.152  -0.147  -0.146
 -0.143

          Ground-State Mulliken Net Atomic Charges

     Atom                 Charge (a.u.)
  ----------------------------------------
      1 O                    -0.215323
      2 C                     0.219430
      3 C                    -0.077607
      4 C                    -0.080158
      5 C                     0.215602
      6 O                    -0.179630
      7 C                    -0.050322
      8 C                    -0.048276
      9 O                    -0.168045
     10 C                     0.212124
     11 C                    -0.078351
     12 C                    -0.079977
     13 C                     0.218991
     14 O                    -0.202544
     15 O                    -0.169618
     16 O                    -0.178417
     17 O                    -0.214659
     18 C                    -0.139855
     19 C                     0.025601
     20 C                    -0.144003
     21 C                    -0.143517
     22 C                     0.024641
     23 O                    -0.186742
     24 H                     0.088117
     25 H                     0.083302
     26 H                     0.083098
     27 H                     0.078637
     28 H                     0.074018
     29 H                     0.078837
     30 H                     0.072974
     31 H                     0.091140
     32 O                    -0.214504
     33 C                    -0.149590
     34 C                     0.025092
     35 C                    -0.144083
     36 C                    -0.143468
     37 C                     0.024246
     38 O                    -0.188849
     39 H                     0.087045
     40 H                     0.083202
     41 H                     0.114166
     42 H                     0.082879
     43 H                     0.078061
     44 H                     0.073699
     45 H                     0.078063
     46 H                     0.072940
     47 H                     0.090280
     48 H                     0.078298
     49 H                     0.080141
     50 H                     0.115533
     51 H                     0.084769
     52 H                     0.089987
     53 H                     0.095662
     54 H                     0.091680
     55 H                     0.092058
     56 H                     0.093226
  ----------------------------------------
  Sum of atomic charges =    -0.000000

                    Cartesian Multipole Moments
 -----------------------------------------------------------------
    Charge (ESU x 10^10)
                -0.0000
    Dipole Moment (Debye)
         X      -0.6543      Y       0.2018      Z       4.3486
       Tot       4.4021
    Quadrupole Moments (Debye-Ang)
        XX    -163.6195     XY      -5.1936     YY    -150.0321
        XZ       2.3008     YZ      -1.5200     ZZ    -164.4094

 Total job time:  205.62s(wall), 9816.26s(cpu)
        *  Thank you very much for using Q-Chem.  Have a nice day.  *
