 Q-Chem 5.0, Q-Chem, Inc., Pleasanton, CA (2017)
 Q-Chem 5.0.1 for Intel X86 EM64T Linux

User input:
--------------------------------------------------------------
$molecule
0  1
O -3.94934 -3.66094 2.70899
C -3.26408 -4.56952 2.26188
C -3.36658 -6.02376 2.66595
C -2.30627 -6.558 3.64277
C -1.36789 -5.53571 4.24481
O -0.30884 -5.32826 3.40767
C 0.55489 -4.27299 3.84313
C 1.79392 -4.20808 2.95615
O 1.58694 -3.26293 1.89467
C 1.42974 -1.97354 2.28441
C 1.22231 -1.02931 1.12421
C 0.15627 0.05224 1.35243
C -0.27899 0.25823 2.78937
O -0.5199 1.33822 3.30913
O -2.27213 -4.27705 1.38156
O -0.79201 -0.83783 3.41167
O 1.74759 -1.57199 3.39976
C -1.39129 -0.8289 4.65524
C 2.45335 -0.14498 0.83189
C 2.42095 0.30508 -0.62724
C 1.24683 1.26301 -0.59915
C 0.95433 1.29287 0.9071
O 2.20465 1.06246 1.50889
H 1.01504 -1.63821 0.2137
H -0.76333 -0.13605 0.75662
H 3.41984 -0.64514 1.06095
H 3.35378 0.88924 -0.79881
H 2.35447 -0.50263 -1.38751
H 1.59474 2.25366 -0.96691
H 0.35149 0.93362 -1.16993
H 0.45086 2.24639 1.17881
O -1.45669 -5.07966 5.3805
C -2.03983 -3.02362 0.85994
C -4.65078 -6.28661 3.48574
C -5.02839 -7.76585 3.41551
C -3.95982 -8.36722 4.29853
C -3.23447 -7.09758 4.75485
O -4.2505 -6.13064 4.82163
H -3.43901 -6.61123 1.72348
H -1.69315 -7.39512 3.23943
H -1.82358 -2.30887 1.67566
H -5.51553 -5.66778 3.15917
H -6.01332 -7.88497 3.92151
H -5.08952 -8.18501 2.38815
H -4.45582 -8.85516 5.16723
H -3.27736 -9.08794 3.79842
H -2.69031 -7.29989 5.70411
H -2.92595 -2.67766 0.28652
H -1.16577 -3.06843 0.17888
H -1.72079 -1.85697 4.90988
H -2.28184 -0.16484 4.64746
H -0.66847 -0.48206 5.42423
H 2.66866 -3.863 3.5544
H 2.05651 -5.21471 2.56666
H 0.94232 -4.57857 4.84287
H 0.02628 -3.30913 3.97886
$end

$opt
CONSTRAINT
tors           1           2           3           4    -101.767
tors           3           4           5           6     -85.987
tors           4           5           6           7    +173.983
tors           5           6           7           8    +173.367
tors           6           7           8           9     +93.631
tors           7           8           9          10     +64.356
tors           8           9          10          11    +179.750
tors           9          10          11          12    +138.819
tors          11          12          13          14    +140.940
ENDCONSTRAINT
$end

$rem
JOBTYPE                   OPT
METHOD                    B3LYP
DFT_D                     d3_op
BASIS                     STO-3G
GEOM_OPT_MAX_CYCLES       100
GEOM_OPT_TOL_GRADIENT     300
GEOM_OPT_TOL_DISPLACEMENT 1200
GEOM_OPT_TOL_ENERGY       100
SYMMETRY                  False
THRESH                    12
SCF_CONVERGENCE           8
MAX_SUB_FILE_NUM          128
MEM_STATIC                400
MEM_TOTAL                 4000
$end
--------------------------------------------------------------

   15   -1510.1493729863      7.47E-09 Convergence criterion met
 Total energy in the final basis set = -1510.14937299
   14   -1510.2198671250      3.35E-09 Convergence criterion met
 Total energy in the final basis set = -1510.21986712
   15   -1510.2570937498      1.56E-09 Convergence criterion met
 Total energy in the final basis set = -1510.25709375
   15   -1510.2704966889      2.37E-09 Convergence criterion met
 Total energy in the final basis set = -1510.27049669
   14   -1510.2808559647      4.37E-09 Convergence criterion met
 Total energy in the final basis set = -1510.28085596
   14   -1510.2826069528      5.62E-09 Convergence criterion met
 Total energy in the final basis set = -1510.28260695
   13   -1510.2860878592      5.41E-09 Convergence criterion met
 Total energy in the final basis set = -1510.28608786
   13   -1510.2874416943      4.35E-09 Convergence criterion met
   11   -1510.2932855206      5.54E-09 Convergence criterion met
 Total energy in the final basis set = -1510.29328552
   10   -1510.2932946327      8.46E-09 Convergence criterion met
 Total energy in the final basis set = -1510.29329463
   10   -1510.2932984242      6.92E-09 Convergence criterion met
 Total energy in the final basis set = -1510.29329842
    9   -1510.2933008846      6.20E-09 Convergence criterion met
 Total energy in the final basis set = -1510.29330088
   10   -1510.2933027578      3.55E-09 Convergence criterion met
 Total energy in the final basis set = -1510.29330276
    9   -1510.2933038282      5.50E-09 Convergence criterion met
 Total energy in the final basis set = -1510.29330383

             Standard Nuclear Orientation (Angstroms)
    I     Atom           X                Y                Z
 ----------------------------------------------------------------
    1      O       1.9159226390     2.0582048346    -0.0722586348
    2      C       2.2963584178     1.1839085389     0.7421539924
    3      C       3.7334823523     0.5677591865     0.8728666612
    4      C       3.8827394396    -0.8765476250     0.2214585374
    5      C       2.6513635190    -1.2779871009    -0.6640217475
    6      O       1.6520021352    -1.8614537926     0.1773408821
    7      C       0.4212509503    -2.1157907594    -0.6141554110
    8      C      -0.5722897940    -2.9083764872     0.3107313185
    9      O      -1.5154033940    -2.0070071337     1.0203047928
   10      C      -2.3652171109    -1.3404997567     0.0766643379
   11      C      -3.3426082862    -0.4102086557     0.8644935978
   12      C      -3.5531699206     0.9972741668     0.1684856751
   13      C      -2.6400489445     1.3206567361    -1.0695906294
   14      O      -2.9961013403     1.9143047651    -2.1088080986
   15      O       1.4850393644     0.6008536869     1.7552241548
   16      O      -1.2782832512     0.9643431946    -0.7848688877
   17      O      -2.3668213460    -1.5654459344    -1.1535485032
   18      C      -0.3597895970     1.4132631675    -1.8619447330
   19      C      -4.8252036113    -0.9875293615     0.7895053010
   20      C      -5.7299590885    -0.1960927593     1.8159245650
   21      C      -5.9522012096     1.1596106701     1.0472469983
   22      C      -5.0822507389     0.9166866452    -0.2461669697
   23      O      -5.2928920464    -0.5215052127    -0.5337573377
   24      H      -2.9844354310    -0.3104644224     1.9035500136
   25      H      -3.3899123833     1.8080735829     0.9035481892
   26      H      -4.8900132662    -2.0909503808     0.8585177684
   27      H      -6.6793761444    -0.7291858194     1.9829908493
   28      H      -5.2271911820    -0.0579782834     2.7865994432
   29      H      -7.0110525535     1.3007288077     0.7778558519
   30      H      -5.6123376750     2.0367700317     1.6203549004
   31      H      -5.3369886891     1.5335076245    -1.1301834809
   32      O       2.5160080149    -1.1102047700    -1.8954684399
   33      C       0.1158767640     1.1758352697     1.7613781481
   34      C       4.8385355728     1.3785662639     0.0745167558
   35      C       6.2423055327     1.0173954873     0.6980910148
   36      C       6.4297603167    -0.4561342731     0.1754108107
   37      C       5.1373985667    -0.6348851520    -0.7167150849
   38      O       4.8791718399     0.7223577735    -1.2519746926
   39      H       3.9719004645     0.5169873302     1.9505244113
   40      H       4.0494906416    -1.6496527715     0.9919061150
   41      H      -0.4231039998     1.0309973333     0.7913497383
   42      H       4.6210194260     2.4586241828    -0.0353672101
   43      H       7.0210373031     1.6870575487     0.2994805449
   44      H       6.2452184431     1.0854873310     1.7977050649
   45      H       7.3398034683    -0.5571244997    -0.4368101348
   46      H       6.4700523808    -1.1941441710     0.9926379647
   47      H       5.2269311677    -1.3629371378    -1.5458019196
   48      H       0.1475695301     2.2585661242     1.9991740458
   49      H      -0.4185290472     0.6415244296     2.5678362413
   50      H       0.5750588399     1.7357731453    -1.3485284027
   51      H      -0.8187661404     2.2445882420    -2.4301422543
   52      H      -0.1512793476     0.5728543828    -2.5536589682
   53      H      -1.1338512291    -3.6489366788    -0.2993041565
   54      H      -0.0076638919    -3.4363342948     1.1051308072
   55      H       0.6587976666    -2.7093385321    -1.5233697758
   56      H      -0.0373059747    -1.1600098933    -0.9412904458
 ----------------------------------------------------------------

    8   -1510.2933044210      9.10E-09 Convergence criterion met
 Total energy in the final basis set = -1510.29330442
 Final energy is   -1510.29330442104
 **  OPTIMIZATION CONVERGED  **

                    Orbital Energies (a.u.)
 --------------------------------------------------------------

 Alpha MOs
 -- Occupied --
-18.941 -18.936 -18.936 -18.932 -18.891 -18.886 -18.884 -18.878
-18.874 -18.874 -10.107 -10.102 -10.101 -10.097 -10.077 -10.069
-10.065 -10.060 -10.058 -10.058 -10.044 -10.044 -10.043 -10.041
-10.039 -10.037 -10.024 -10.022 -10.020 -10.019  -1.019  -1.013
 -1.011  -1.007  -0.973  -0.969  -0.942  -0.939  -0.937  -0.933
 -0.767  -0.763  -0.729  -0.724  -0.714  -0.706  -0.698  -0.657
 -0.655  -0.620  -0.598  -0.583  -0.548  -0.547  -0.540  -0.537
 -0.514  -0.511  -0.479  -0.479  -0.462  -0.458  -0.455  -0.453
 -0.437  -0.430  -0.426  -0.423  -0.416  -0.407  -0.405  -0.399
 -0.391  -0.380  -0.375  -0.368  -0.360  -0.358  -0.356  -0.350
 -0.348  -0.343  -0.337  -0.334  -0.331  -0.328  -0.328  -0.314
 -0.311  -0.308  -0.305  -0.299  -0.295  -0.291  -0.280  -0.277
 -0.272  -0.264  -0.254  -0.249  -0.240  -0.237  -0.233  -0.184
 -0.181  -0.175  -0.172  -0.161  -0.159  -0.153  -0.149  -0.146
 -0.142

          Ground-State Mulliken Net Atomic Charges

     Atom                 Charge (a.u.)
  ----------------------------------------
      1 O                    -0.217963
      2 C                     0.210958
      3 C                    -0.078732
      4 C                    -0.077461
      5 C                     0.203620
      6 O                    -0.172694
      7 C                    -0.052191
      8 C                    -0.047983
      9 O                    -0.171034
     10 C                     0.210529
     11 C                    -0.079814
     12 C                    -0.079126
     13 C                     0.219785
     14 O                    -0.204871
     15 O                    -0.165969
     16 O                    -0.178896
     17 O                    -0.213872
     18 C                    -0.147059
     19 C                     0.026405
     20 C                    -0.144201
     21 C                    -0.143482
     22 C                     0.024711
     23 O                    -0.186172
     24 H                     0.085802
     25 H                     0.084453
     26 H                     0.083240
     27 H                     0.078974
     28 H                     0.073703
     29 H                     0.079347
     30 H                     0.073388
     31 H                     0.092980
     32 O                    -0.209274
     33 C                    -0.149080
     34 C                     0.024348
     35 C                    -0.143137
     36 C                    -0.144931
     37 C                     0.025698
     38 O                    -0.185385
     39 H                     0.085535
     40 H                     0.086061
     41 H                     0.111818
     42 H                     0.087707
     43 H                     0.078256
     44 H                     0.072785
     45 H                     0.078212
     46 H                     0.072774
     47 H                     0.086252
     48 H                     0.077116
     49 H                     0.082642
     50 H                     0.113206
     51 H                     0.096024
     52 H                     0.087792
     53 H                     0.090364
     54 H                     0.097806
     55 H                     0.091790
     56 H                     0.099248
  ----------------------------------------
  Sum of atomic charges =    -0.000000

                    Cartesian Multipole Moments
 -----------------------------------------------------------------
    Charge (ESU x 10^10)
                -0.0000
    Dipole Moment (Debye)
         X       0.5784      Y      -0.7934      Z       4.6762
       Tot       4.7782
    Quadrupole Moments (Debye-Ang)
        XX    -149.8346     XY      -5.5727     YY    -154.8038
        XZ      -4.0161     YZ       3.8680     ZZ    -167.4939

 Total job time:  72.89s(wall), 3474.70s(cpu)
        *  Thank you very much for using Q-Chem.  Have a nice day.  *
