 Q-Chem 5.0, Q-Chem, Inc., Pleasanton, CA (2017)
 Q-Chem 5.0.1 for Intel X86 EM64T Linux

User input:
--------------------------------------------------------------
$molecule
0  1
O 2.3030292204 -0.3380866748 2.9778413901
C 1.9826743171 0.1027265657 1.8832809035
C 0.8956475576 -0.4625009237 0.9958782317
C 0.9319499798 -0.0768820591 -0.4920243521
C 2.1509247634 0.6858728446 -0.9614816704
O 2.7541235841 0.0120969641 -1.9850179714
C 1.9537254718 -0.0451028211 -3.1704898518
C 0.5283070086 -0.4614776713 -2.8227192213
O -0.1019555719 0.5611125062 -2.0353411015
C -1.380255992 0.3047803478 -1.6619933076
C -1.4705694338 -0.5152117303 -0.397034341
C -1.4078189729 0.295428168 0.9057352994
C -1.6233566615 1.7889568933 0.765692801
O -1.9344629214 2.5482547325 1.6719161504
O 2.3775219298 1.378193315 1.6359053953
O -1.2974535095 2.4286282986 -0.390913241
O -2.3245359247 0.6172760598 -2.3759089351
C -1.3784976445 3.7890427034 -0.6125271818
C -2.9224862208 -1.0877398338 -0.3696956538
C -3.0927954752 -2.2652587163 0.5817194256
C -2.932248817 -1.5608822063 1.899909718
C -2.8610577147 -0.1076775913 1.4003662193
O -3.6567562413 -0.092023457 0.2524453149
H -0.981039778 -1.4328193217 -0.4728422487
H -1.1494588249 0.2475915957 1.9880381866
H -3.3021114051 -1.4026652965 -1.3687123582
H -4.1541438755 -2.5914834828 0.4837465709
H -2.4577638329 -3.1529809756 0.400647542
H -3.8511078275 -1.7405706199 2.5017632336
H -2.035750322 -1.8319407382 2.495573268
H -3.2699690832 0.5437855887 2.2136371851
O 2.3529823516 1.8880272543 -0.8172123451
C 3.2580459664 2.1028432936 2.4138248818
C 1.4684517766 -1.9689475491 1.1315499345
C 0.5250605024 -3.1177178965 0.7636468831
C 0.6591907094 -3.0156977408 -0.6913179399
C 1.5167362201 -1.7266001192 -0.7627779433
O 2.4542813392 -1.9806990983 0.2038053316
H 0.2273726761 -0.9418003193 1.7039195649
H 0.5295005054 0.8646762042 -0.0664378634
H 4.242079987 1.5888053961 2.4550129383
H 1.8280889554 -2.3221936339 2.1328104695
H 0.9016790514 -4.1142757253 1.0932506238
H -0.4683731155 -2.9550561872 1.2034020164
H 1.3275106521 -3.8590934317 -1.0018093483
H -0.2532549026 -3.185411489 -1.3017079065
H 2.0223811355 -1.9857415855 -1.7137053091
H 2.8528956263 2.2252120559 3.4409544297
H 3.3978468019 3.1070760246 1.964016956
H -1.0491741489 4.0071864092 -1.6490260578
H -0.7157349655 4.3323103001 0.0943479151
H -2.4271438303 4.1342782927 -0.4894934509
H 0.0297384847 -0.3955687829 -3.8157024946
H 0.1951524505 -1.4960730596 -2.6564556785
H 2.410423413 -0.7427406556 -3.9039278709
H 1.9263980757 0.9695304899 -3.6287172279
$end

$rem
JOBTYPE                   OPT
METHOD                    B3LYP
DFT_D                     d3_op
BASIS                     STO-3G
GEOM_OPT_MAX_CYCLES       100
GEOM_OPT_TOL_GRADIENT     300
GEOM_OPT_TOL_DISPLACEMENT 1200
GEOM_OPT_TOL_ENERGY       100
SYMMETRY                  False
THRESH                    12
SCF_CONVERGENCE           8
MAX_SUB_FILE_NUM          128
MEM_STATIC                400
MEM_TOTAL                 4000
$end
--------------------------------------------------------------

   17   -1509.5982050728      5.84E-09 Convergence criterion met
 Total energy in the final basis set = -1509.59820507
   16   -1509.7199351782      2.73E-09 Convergence criterion met
 Total energy in the final basis set = -1509.71993518
   14   -1509.8137365798      6.04E-09 Convergence criterion met
 Total energy in the final basis set = -1509.81373658
   14   -1509.8834025456      2.62E-09 Convergence criterion met
 Total energy in the final basis set = -1509.88340255
   14   -1509.9397017332      4.51E-09 Convergence criterion met
 Total energy in the final basis set = -1509.93970173
   14   -1509.9863087568      4.15E-09 Convergence criterion met
 Total energy in the final basis set = -1509.98630876
   14   -1510.0260548731      5.20E-09 Convergence criterion met
 Total energy in the final basis set = -1510.02605487
   13   -1510.0607143815      9.24E-09 Convergence criterion met
    9   -1510.2969747812      8.34E-09 Convergence criterion met
 Total energy in the final basis set = -1510.29697478
    9   -1510.2969782385      8.71E-09 Convergence criterion met
 Total energy in the final basis set = -1510.29697824
   10   -1510.2969841950      9.12E-09 Convergence criterion met
 Total energy in the final basis set = -1510.29698420
   10   -1510.2969825385      5.90E-09 Convergence criterion met
 Total energy in the final basis set = -1510.29698254
   10   -1510.2969879120      6.43E-09 Convergence criterion met
 Total energy in the final basis set = -1510.29698791
    9   -1510.2969901323      6.38E-09 Convergence criterion met
 Total energy in the final basis set = -1510.29699013

             Standard Nuclear Orientation (Angstroms)
    I     Atom           X                Y                Z
 ----------------------------------------------------------------
    1      O       5.1748643643    -0.5878313516     0.7873527741
    2      C       4.1918662942     0.0132085647     1.2673154318
    3      C       2.9621940157    -0.5973018786     2.0284337253
    4      C       1.5776206975    -0.0479761390     1.4912036181
    5      C       1.6607530270     1.0842727620     0.4200047043
    6      O       2.2227244257     0.5379157159    -0.7863849939
    7      C       1.7532088458     1.3184346758    -1.9529556681
    8      C       0.6927960255     0.4490133357    -2.7166378464
    9      O      -0.2413644667    -0.1623081389    -1.7352098570
   10      C      -1.5919340108    -0.1228329657    -2.2355711591
   11      C      -2.4871823642    -1.0634300751    -1.3504777244
   12      C      -2.6383279164    -0.6516447286     0.1722832934
   13      C      -1.9518972772     0.7022489324     0.5503602218
   14      O      -1.3456128705     0.9655415408     1.6121988541
   15      O       4.0012731508     1.4335530692     1.1906906677
   16      O      -2.1718391106     1.6243990502    -0.5158405230
   17      O      -1.9286342736     0.4726362022    -3.2807646931
   18      C      -1.5460960186     2.9342806492    -0.2117468990
   19      C      -3.9979426713    -1.0297580318    -1.8326244261
   20      C      -4.7176099968    -2.3250250017    -1.2893666587
   21      C      -4.8482545376    -1.9757465002     0.2401432123
   22      C      -4.2229819376    -0.5251007032     0.2782347825
   23      O      -4.5987393942     0.0587662087    -1.0272512048
   24      H      -2.0658389014    -2.0829785112    -1.4279855597
   25      H      -2.2487226076    -1.4325671438     0.8476562609
   26      H      -4.1172536552    -0.8219515067    -2.9137334969
   27      H      -5.7058649674    -2.4431687061    -1.7617491215
   28      H      -4.1278935613    -3.2380338745    -1.4703302777
   29      H      -5.9015249386    -1.9499035239     0.5618871058
   30      H      -4.2992233425    -2.6797013139     0.8858009472
   31      H      -4.5753744891     0.1172002628     1.1086439422
   32      O       1.2018409040     2.2472610715     0.5065888709
   33      C       5.0515870461     2.0478950939     0.3483237405
   34      C       2.8177996591    -2.1385106086     1.6984311807
   35      C       1.7308843044    -2.7724442422     2.6572257479
   36      C       0.3952280491    -2.2579000796     1.9970979936
   37      C       0.9662117011    -1.3656446890     0.8306182076
   38      O       2.1550192544    -2.1196135110     0.3748404728
   39      H       3.0762843620    -0.4034180624     3.1111381783
   40      H       0.9381992462     0.3242719743     2.3102232321
   41      H       5.0540733081     1.6118504562    -0.6714842774
   42      H       3.7840114720    -2.6768684240     1.6417790240
   43      H       1.7947809954    -3.8719184180     2.6385682231
   44      H       1.8479018264    -2.4299140975     3.6979109495
   45      H      -0.1986566242    -3.0929237858     1.5917199421
   46      H      -0.2328532500    -1.6777702027     2.6922234209
   47      H       0.2984165617    -1.1560961146    -0.0325696837
   48      H       6.0595194509     1.9178524162     0.7925131733
   49      H       4.8061736003     3.1243547572     0.2924526659
   50      H      -1.6046299372     3.5190518814    -1.1476087293
   51      H      -0.4845027397     2.8023517746     0.1064502518
   52      H      -2.1062419169     3.4613131530     0.5866867321
   53      H       0.1077778966     1.0559511218    -3.4422406914
   54      H       1.2053899170    -0.3733332396    -3.2610947030
   55      H       2.6169535703     1.5256759430    -2.6180955518
   56      H       1.3160873061     2.2750858669    -1.5956318946
 ----------------------------------------------------------------

    9   -1510.2969910897      2.99E-09 Convergence criterion met
 Total energy in the final basis set = -1510.29699109
 Final energy is   -1510.29699108968
 **  OPTIMIZATION CONVERGED  **

                    Orbital Energies (a.u.)
 --------------------------------------------------------------

 Alpha MOs
 -- Occupied --
-18.938 -18.933 -18.933 -18.926 -18.889 -18.880 -18.879 -18.879
-18.877 -18.871 -10.105 -10.103 -10.101 -10.097 -10.071 -10.070
-10.066 -10.062 -10.058 -10.054 -10.046 -10.043 -10.040 -10.038
-10.036 -10.030 -10.022 -10.020 -10.016 -10.014  -1.019  -1.014
 -1.006  -1.005  -0.971  -0.964  -0.942  -0.938  -0.933  -0.932
 -0.765  -0.759  -0.728  -0.722  -0.711  -0.704  -0.693  -0.662
 -0.651  -0.614  -0.599  -0.580  -0.546  -0.542  -0.537  -0.532
 -0.511  -0.509  -0.486  -0.479  -0.471  -0.462  -0.445  -0.443
 -0.433  -0.431  -0.424  -0.417  -0.414  -0.405  -0.405  -0.402
 -0.397  -0.378  -0.374  -0.365  -0.362  -0.360  -0.354  -0.351
 -0.347  -0.342  -0.333  -0.329  -0.327  -0.323  -0.320  -0.310
 -0.308  -0.305  -0.302  -0.298  -0.296  -0.292  -0.288  -0.271
 -0.270  -0.253  -0.251  -0.242  -0.242  -0.235  -0.227  -0.184
 -0.179  -0.174  -0.163  -0.161  -0.160  -0.152  -0.148  -0.145
 -0.138

          Ground-State Mulliken Net Atomic Charges

     Atom                 Charge (a.u.)
  ----------------------------------------
      1 O                    -0.207238
      2 C                     0.215756
      3 C                    -0.077765
      4 C                    -0.080957
      5 C                     0.227672
      6 O                    -0.174989
      7 C                    -0.053995
      8 C                    -0.054045
      9 O                    -0.181171
     10 C                     0.220955
     11 C                    -0.078971
     12 C                    -0.080738
     13 C                     0.208166
     14 O                    -0.216845
     15 O                    -0.169208
     16 O                    -0.168286
     17 O                    -0.211334
     18 C                    -0.144492
     19 C                     0.025226
     20 C                    -0.143861
     21 C                    -0.144041
     22 C                     0.025965
     23 O                    -0.185681
     24 H                     0.084315
     25 H                     0.084384
     26 H                     0.090996
     27 H                     0.078572
     28 H                     0.073106
     29 H                     0.078422
     30 H                     0.073453
     31 H                     0.083051
     32 O                    -0.219396
     33 C                    -0.127511
     34 C                     0.024400
     35 C                    -0.144581
     36 C                    -0.145526
     37 C                     0.017821
     38 O                    -0.190151
     39 H                     0.085807
     40 H                     0.095882
     41 H                     0.090904
     42 H                     0.087762
     43 H                     0.076346
     44 H                     0.072630
     45 H                     0.071806
     46 H                     0.076919
     47 H                     0.096695
     48 H                     0.089766
     49 H                     0.092373
     50 H                     0.084714
     51 H                     0.113253
     52 H                     0.082340
     53 H                     0.101497
     54 H                     0.085677
     55 H                     0.085979
     56 H                     0.098169
  ----------------------------------------
  Sum of atomic charges =     0.000000

                    Cartesian Multipole Moments
 -----------------------------------------------------------------
    Charge (ESU x 10^10)
                -0.0000
    Dipole Moment (Debye)
         X       0.0096      Y      -0.9580      Z       0.5665
       Tot       1.1130
    Quadrupole Moments (Debye-Ang)
        XX    -162.2665     XY      14.7934     YY    -155.8882
        XZ      -4.2845     YZ      -3.9118     ZZ    -157.0249

 Total job time:  187.43s(wall), 8950.42s(cpu)
        *  Thank you very much for using Q-Chem.  Have a nice day.  *
