 Q-Chem 5.0, Q-Chem, Inc., Pleasanton, CA (2017)
 Q-Chem 5.0.1 for Intel X86 EM64T Linux

User input:
--------------------------------------------------------------
$molecule
0  1
O -6.5910137857 0.1687074043 -0.7684250881
C -5.3657465118 -0.0425780179 -0.9022217267
C -4.4362600044 -0.910228977 0.0268693979
C -2.8854859706 -0.2995533107 0.2864676829
C -2.9407714993 1.2762529474 -0.0217963626
O -1.7432327667 2.0651585585 0.1279977156
C -0.519431531 1.5048295167 0.7439998337
C 0.0453066865 0.0965832588 0.2920637188
O 1.2941429922 0.3431251291 -0.4991081266
C 2.4152380324 -0.3554342315 0.0837139719
C 3.5663626619 0.6592487723 0.4124941211
C 5.0051955111 0.0247455466 0.5941867944
C 5.0605483898 -1.5006197921 0.2244955203
O 5.1183297608 -2.4571215071 1.0278218102
O -4.6647370932 0.1332839588 -2.1483645084
O 4.9580856396 -1.6524953891 -1.1946881558
O 2.3752505822 -1.5604228272 0.4209096586
C 4.9165849252 -3.0873798525 -1.5524508135
C 3.8339555858 1.7038577416 -0.757200995
C 4.523770051 2.9756520324 -0.1342226258
C 5.9379191185 2.392189621 0.2299793406
C 5.8426715312 0.9394339841 -0.3923702546
O 4.9292366493 1.0984065622 -1.5464193987
H 3.254796901 1.1944265791 1.3299457434
H 5.3474795356 0.1005625509 1.6417873426
H 2.9422979699 1.9057662399 -1.3819525926
H 4.6181986602 3.7517224928 -0.9114843299
H 3.9774538009 3.3991116977 0.7237436912
H 6.7434241982 2.972250432 -0.2475745378
H 6.1241577546 2.3542942362 1.315374002
H 6.8134736314 0.5039092307 -0.6984251004
O -3.9472363334 1.9302579965 -0.3672564511
C -5.5044678244 0.8750989069 -3.1092552866
C -5.0023951351 -1.1641465588 1.4566413886
C -4.191286477 -2.3689170521 2.0991702589
C -2.9005171027 -1.6352397274 2.6080020934
C -3.0975022841 -0.2405320703 1.9163196173
O -4.5116264639 0.0381450644 2.1400909477
H -4.3483794972 -1.880117392 -0.503550871
H -2.7709452931 -0.6982541804 -0.740757061
H -5.750292331 1.88908528 -2.7322547897
H -6.1043780792 -1.2623554971 1.508223198
H -4.7391547326 -2.8523404922 2.9235991347
H -3.9689713157 -3.1259834303 1.3292868662
H -2.9749716299 -1.4827104972 3.6983853346
H -1.95017122 -2.1448524216 2.3895233561
H -2.5211270188 0.6024806204 2.3468023808
H -6.4523801488 0.3395040625 -3.3263629322
H -4.9097227055 0.9633054212 -4.0377825906
H 4.8370308462 -3.1261814629 -2.6544192883
H 4.038810265 -3.5906708817 -1.0975866291
H 5.8349293982 -3.6177482921 -1.2277168875
H 0.2378406911 -0.5756156059 1.1518495066
H -0.6715129417 -0.3835211998 -0.4014931607
H -0.6121286893 1.5548081903 1.8519353312
H 0.2701968228 2.2338171223 0.4548136726
$end

$rem
JOBTYPE                   OPT
METHOD                    B3LYP
DFT_D                     d3_op
BASIS                     STO-3G
GEOM_OPT_MAX_CYCLES       100
GEOM_OPT_TOL_GRADIENT     300
GEOM_OPT_TOL_DISPLACEMENT 1200
GEOM_OPT_TOL_ENERGY       100
SYMMETRY                  False
THRESH                    12
SCF_CONVERGENCE           8
MAX_SUB_FILE_NUM          128
MEM_STATIC                400
MEM_TOTAL                 4000
$end
--------------------------------------------------------------

   17   -1510.1457464778      1.22E-09 Convergence criterion met
 Total energy in the final basis set = -1510.14574648
   13   -1510.1587148342      6.21E-09 Convergence criterion met
 Total energy in the final basis set = -1510.15871483
   13   -1510.1723230464      8.00E-09 Convergence criterion met
 Total energy in the final basis set = -1510.17232305
   13   -1510.1858069840      7.81E-09 Convergence criterion met
 Total energy in the final basis set = -1510.18580698
   13   -1510.1991435430      8.23E-09 Convergence criterion met
 Total energy in the final basis set = -1510.19914354
   13   -1510.2121749854      7.49E-09 Convergence criterion met
 Total energy in the final basis set = -1510.21217499
   13   -1510.2245357082      7.90E-09 Convergence criterion met
 Total energy in the final basis set = -1510.22453571
   13   -1510.2362886016      7.67E-09 Convergence criterion met
   12   -1510.2761390115      3.82E-09 Convergence criterion met
 Total energy in the final basis set = -1510.27613901
   13   -1510.2761363200      2.49E-09 Convergence criterion met
 Total energy in the final basis set = -1510.27613632
   12   -1510.2762597570      7.71E-09 Convergence criterion met
 Total energy in the final basis set = -1510.27625976
   11   -1510.2762505400      6.37E-09 Convergence criterion met
 Total energy in the final basis set = -1510.27625054
   10   -1510.2762674798      9.23E-09 Convergence criterion met
 Total energy in the final basis set = -1510.27626748
   10   -1510.2762744324      5.96E-09 Convergence criterion met
 Total energy in the final basis set = -1510.27627443

             Standard Nuclear Orientation (Angstroms)
    I     Atom           X                Y                Z
 ----------------------------------------------------------------
    1      O      -5.2743600800     1.9400831280     0.4709471178
    2      C      -4.4317753254     1.3208628019    -0.2114221237
    3      C      -4.3756567026    -0.2318691880    -0.4793108665
    4      C      -3.1196378631    -0.9745309018     0.1352436359
    5      C      -2.2494270773    -0.0142466192     1.0335127181
    6      O      -0.9904231906    -0.4661286695     1.5545196420
    7      C      -0.3950297956    -1.6437767535     0.8906375034
    8      C       0.2708584447    -1.2689605237    -0.4898159093
    9      O       1.0759735129    -0.0302408204    -0.3901609681
   10      C       2.3158839957    -0.2836229582     0.2783915179
   11      C       3.1064982060     1.0634920568     0.3688059706
   12      C       4.5996360805     0.8851214928     0.8663039543
   13      C       4.9962036121    -0.5962327575     1.2186829355
   14      O       5.0971641442    -1.0851673850     2.3647783473
   15      O      -3.4427826718     1.9396242837    -1.0512984477
   16      O       5.3399863852    -1.2878273924     0.0101787629
   17      O       2.6633907608    -1.4088318593     0.7014879550
   18      C       5.6479030915    -2.7016757094     0.3161743509
   19      C       3.3336019508     1.7124941586    -1.0645058104
   20      C       3.7746185276     3.2148313213    -0.8626533428
   21      C       5.2624354850     3.0310229369    -0.3831616260
   22      C       5.3931562104     1.4561716288    -0.3872665733
   23      O       4.5636277791     1.0446826475    -1.5440558818
   24      H       2.5368621667     1.7447588784     1.0277959689
   25      H       4.7789318244     1.4923448608     1.7711030412
   26      H       2.4942243757     1.5505206921    -1.7681680590
   27      H       3.7216079932     3.7634457481    -1.8164829237
   28      H       3.1475932233     3.7346178118    -0.1208177686
   29      H       5.9737237988     3.4769632798    -1.0964832841
   30      H       5.4459924553     3.4606664972     0.6144531684
   31      H       6.4238105941     1.0671775086    -0.4936663570
   32      O      -2.6432866192     1.1102699649     1.4212213813
   33      C      -3.4223118006     3.3974442216    -0.8036760253
   34      C      -5.5650359288    -0.9914502146     0.2409397035
   35      C      -5.7422824258    -2.4032447906    -0.4414524989
   36      C      -4.4796405381    -3.1651384021     0.1088071232
   37      C      -3.8430975662    -2.0644285016     1.0476036314
   38      O      -5.0101901638    -1.3261642546     1.5744729611
   39      H      -4.4039451238    -0.3843431785    -1.5733499774
   40      H      -2.5123424702    -1.4386899291    -0.6576793178
   41      H      -3.1231690378     3.6222307632     0.2407267066
   42      H      -6.4853888411    -0.3854828861     0.3498659882
   43      H      -6.6766766497    -2.8785304700    -0.1030707805
   44      H      -5.7562582307    -2.3382730779    -1.5411298854
   45      H      -4.7655438361    -4.0516775543     0.6968455466
   46      H      -3.7906598138    -3.4803864358    -0.6914108685
   47      H      -3.2257079321    -2.4535680449     1.8806045511
   48      H      -4.4120783255     3.8605958168    -0.9947247806
   49      H      -2.6750126554     3.8181926269    -1.5015102201
   50      H       5.9505753606    -3.1637535660    -0.6415335347
   51      H       4.7567534973    -3.2267710231     0.7174595151
   52      H       6.4730006074    -2.7939891696     1.0518159305
   53      H       0.8929381158    -2.1262707409    -0.8279276941
   54      H      -0.5002887053    -1.0491394396    -1.2543666003
   55      H      -1.1131211774    -2.4773517602     0.7458828357
   56      H       0.4020725287    -1.9837810119     1.5825733588
 ----------------------------------------------------------------

   10   -1510.2762743899      3.42E-09 Convergence criterion met
 Total energy in the final basis set = -1510.27627439
 Final energy is   -1510.27627438990
 **  OPTIMIZATION CONVERGED  **

                    Orbital Energies (a.u.)
 --------------------------------------------------------------

 Alpha MOs
 -- Occupied --
-18.949 -18.945 -18.921 -18.917 -18.893 -18.891 -18.890 -18.888
-18.860 -18.859 -10.112 -10.111 -10.091 -10.090 -10.089 -10.088
-10.069 -10.061 -10.060 -10.059 -10.054 -10.053 -10.046 -10.042
-10.036 -10.034 -10.028 -10.024 -10.021 -10.019  -1.028  -1.016
 -0.998  -0.996  -0.975  -0.970  -0.953  -0.944  -0.923  -0.923
 -0.767  -0.764  -0.731  -0.727  -0.718  -0.710  -0.703  -0.654
 -0.652  -0.627  -0.604  -0.589  -0.551  -0.546  -0.542  -0.537
 -0.521  -0.511  -0.491  -0.471  -0.470  -0.463  -0.456  -0.449
 -0.439  -0.434  -0.432  -0.426  -0.412  -0.407  -0.403  -0.402
 -0.401  -0.394  -0.377  -0.366  -0.364  -0.356  -0.353  -0.350
 -0.339  -0.337  -0.335  -0.333  -0.330  -0.327  -0.326  -0.319
 -0.314  -0.313  -0.306  -0.305  -0.300  -0.284  -0.279  -0.276
 -0.275  -0.265  -0.251  -0.244  -0.243  -0.239  -0.234  -0.197
 -0.178  -0.165  -0.164  -0.163  -0.158  -0.149  -0.145  -0.141
 -0.140

          Ground-State Mulliken Net Atomic Charges

     Atom                 Charge (a.u.)
  ----------------------------------------
      1 O                    -0.216234
      2 C                     0.217728
      3 C                    -0.080261
      4 C                    -0.084403
      5 C                     0.215843
      6 O                    -0.165951
      7 C                    -0.052520
      8 C                    -0.050588
      9 O                    -0.167119
     10 C                     0.217845
     11 C                    -0.077814
     12 C                    -0.081734
     13 C                     0.212955
     14 O                    -0.219276
     15 O                    -0.179727
     16 O                    -0.170858
     17 O                    -0.210109
     18 C                    -0.127700
     19 C                     0.024907
     20 C                    -0.143814
     21 C                    -0.144272
     22 C                     0.026538
     23 O                    -0.188035
     24 H                     0.090595
     25 H                     0.084059
     26 H                     0.087523
     27 H                     0.078024
     28 H                     0.074732
     29 H                     0.077687
     30 H                     0.074118
     31 H                     0.086204
     32 O                    -0.188921
     33 C                    -0.128613
     34 C                     0.024996
     35 C                    -0.143757
     36 C                    -0.144590
     37 C                     0.022299
     38 O                    -0.185706
     39 H                     0.082220
     40 H                     0.076943
     41 H                     0.092753
     42 H                     0.092435
     43 H                     0.079569
     44 H                     0.073806
     45 H                     0.079527
     46 H                     0.070695
     47 H                     0.081363
     48 H                     0.086337
     49 H                     0.085266
     50 H                     0.086834
     51 H                     0.090136
     52 H                     0.086519
     53 H                     0.095341
     54 H                     0.088034
     55 H                     0.084544
     56 H                     0.103627
  ----------------------------------------
  Sum of atomic charges =    -0.000000

                    Cartesian Multipole Moments
 -----------------------------------------------------------------
    Charge (ESU x 10^10)
                -0.0000
    Dipole Moment (Debye)
         X       0.5296      Y      -1.7557      Z      -3.2868
       Tot       3.7638
    Quadrupole Moments (Debye-Ang)
        XX    -169.4215     XY      15.9564     YY    -146.2374
        XZ       9.9500     YZ       0.5873     ZZ    -170.8040

 Total job time:  118.75s(wall), 5646.33s(cpu)
        *  Thank you very much for using Q-Chem.  Have a nice day.  *
