 Q-Chem 5.0, Q-Chem, Inc., Pleasanton, CA (2017)
 Q-Chem 5.0.1 for Intel X86 EM64T Linux

User input:
--------------------------------------------------------------
$molecule
0  1
O -1.7862851208 -2.0031777348 -0.8907274475
C -2.4678552783 -1.3091296489 -0.0401202465
C -2.5211476389 0.1832647108 0.2649483057
C -1.4838860908 0.8783597763 1.2697936596
C -0.5723620884 -0.3001869686 2.1663994723
O 0.3750230068 -0.9307658254 0.3411092098
C 1.8538003942 -1.1730721645 1.007568008
C 3.2555210342 -1.0950437564 -0.9406269218
O 2.3150164567 -1.1541637863 -1.9766314262
C 0.3087149104 -0.6540684083 -2.3853319239
C -0.1064180855 -1.747202533 -0.7740583287
C 0.8084160538 -1.2382213204 1.9246779839
C 2.5109684463 0.1932261049 0.6656454861
O 3.779707462 -0.0931139645 0.0243248015
O -3.4431915132 -1.8627449573 0.8086227581
O 2.8023531398 0.5677644077 2.1290629218
O 0.0328641824 -1.4063348392 -3.3676036438
C 4.1501694369 1.1577877485 2.2839010682
C 0.4834912966 0.809115968 -1.9647558721
C 1.8039670159 1.509926602 -2.4559350597
C 2.584731823 1.9893542458 -1.1767299324
C 1.734406394 1.4246495314 -0.0012735387
O 0.3957054069 1.0724893924 -0.5186375898
H 0.1845450654 -2.6844872314 -0.8094944249
H 0.5590173484 -2.2300408149 2.46176311
H -0.4490023718 1.2605017757 -2.3567713954
H 2.4048268927 0.7776574155 -3.008894777
H 1.5375851772 2.3660189612 -3.0856063013
H 3.5732102324 1.4997602079 -1.0683180171
H 2.7358083783 3.0816405663 -1.1356925991
H 1.6147495105 2.1517823652 0.8360159236
O -1.4305254968 -0.8435511325 2.9025939794
C -3.5371182829 -3.3371094561 0.8180225046
C -2.8867166207 1.2838875215 -0.845060795
C -3.9897859479 2.105043447 -0.0698091622
C -3.0839812448 2.7675982787 1.0352742102
C -1.595041904 2.3886779576 0.5503695808
O -1.7477370846 2.2048281332 -0.9028176005
H -3.4039218747 0.1433790685 0.9041644049
H -2.0916549159 1.070476756 2.1592832867
H -2.5721853838 -3.7950429694 1.1109129147
H -3.1624228257 0.937642247 -1.8637227992
H -4.4998104909 2.8526267492 -0.6931426652
H -4.742297664 1.4104981319 0.3402606165
H -3.2728057022 3.8422185948 1.1585041318
H -3.242631588 2.2804028035 2.0065691002
H -0.835685379 3.1848905353 0.7111691551
H -3.8627879194 -3.7238761566 -0.16705579
H -4.3036765413 -3.5439921896 1.5894980681
H 4.099594236 2.2625953359 2.411488261
H 4.75871044 0.9086331029 1.3977375507
H 4.6450610938 0.7370745628 3.1875820697
H 4.1170699165 -0.9248909144 -1.9321793395
H 3.4248503984 -2.0663030759 -0.685410177
H 2.6327698261 -3.6553741623 1.2270397793
H 2.4972870386 -2.8955729869 1.1792343406
$end

$rem
JOBTYPE                   OPT
METHOD                    B3LYP
DFT_D                     d3_op
BASIS                     STO-3G
GEOM_OPT_MAX_CYCLES       100
GEOM_OPT_TOL_GRADIENT     300
GEOM_OPT_TOL_DISPLACEMENT 1200
GEOM_OPT_TOL_ENERGY       100
SYMMETRY                  False
THRESH                    12
SCF_CONVERGENCE           8
MAX_SUB_FILE_NUM          128
MEM_STATIC                400
MEM_TOTAL                 4000
$end
--------------------------------------------------------------

   23   -1509.5478127063      3.48E-09 Convergence criterion met
 Total energy in the final basis set = -1509.54781271
   17   -1509.6243911025      7.95E-09 Convergence criterion met
 Total energy in the final basis set = -1509.62439110
   17   -1509.6728658452      6.22E-09 Convergence criterion met
 Total energy in the final basis set = -1509.67286585
   18   -1509.7161536938      8.56E-09 Convergence criterion met
 Total energy in the final basis set = -1509.71615369
   17   -1509.7420937621      5.47E-09 Convergence criterion met
 Total energy in the final basis set = -1509.74209376
   17   -1509.7636273548      4.91E-09 Convergence criterion met
 Total energy in the final basis set = -1509.76362735
   17   -1509.7792458879      3.49E-09 Convergence criterion met
 Total energy in the final basis set = -1509.77924589
   17   -1509.7926626650      4.17E-09 Convergence criterion met
   11   -1509.9569232940      6.99E-09 Convergence criterion met
 Total energy in the final basis set = -1509.95692329
   10   -1509.9569262939      7.95E-09 Convergence criterion met
 Total energy in the final basis set = -1509.95692629
   10   -1509.9569280169      3.37E-09 Convergence criterion met
 Total energy in the final basis set = -1509.95692802
   10   -1509.9569297951      2.51E-09 Convergence criterion met
 Total energy in the final basis set = -1509.95692980
   10   -1509.9569314833      2.93E-09 Convergence criterion met
 Total energy in the final basis set = -1509.95693148
   10   -1509.9569327452      3.77E-09 Convergence criterion met
 Total energy in the final basis set = -1509.95693275

             Standard Nuclear Orientation (Angstroms)
    I     Atom           X                Y                Z
 ----------------------------------------------------------------
    1      O       2.0467138467    -2.2849055236     0.2003595262
    2      C       2.8341954731    -1.6114360016    -0.6551945602
    3      C       3.0949873047    -0.1029843242    -0.8512611102
    4      C       1.9663040600     0.8864544276    -1.3776375734
    5      C       0.6536535423     0.2967477459    -2.0275534770
    6      O       0.2140353303    -0.7370970417     0.2118054907
    7      C      -1.2046298758    -1.2674074965    -0.5266803845
    8      C      -2.9250812939    -1.1099362549     1.5415664638
    9      O      -1.6846444864    -0.6834787001     2.2365743587
   10      C      -1.6668644460     0.6628125832     2.7574083036
   11      C       0.9054559443    -1.8378779694     0.9281099668
   12      C       0.0789159229    -0.9752250138    -1.3194850868
   13      C      -2.3040553522    -0.1264826692    -0.6118526625
   14      O      -3.3585546428    -0.2868188135     0.4268831286
   15      O       3.9429301994    -2.3573409303    -1.1166275061
   16      O      -2.8030529441    -0.5281005885    -1.9577310776
   17      O      -1.3392472134     0.8315885156     3.9539263550
   18      C      -4.2439418727    -0.2570016036    -2.1092722659
   19      C      -1.7779661475     1.9199739517     1.7568002549
   20      C      -3.2428239733     2.3414709858     1.3457798825
   21      C      -3.2039279847     2.3495132151    -0.2169274407
   22      C      -1.9638042125     1.4479796172    -0.5603937671
   23      O      -0.9961355133     1.7264623905     0.5200328469
   24      H       0.2288135998    -2.7296761108     0.9567900933
   25      H       0.6073641205    -1.8825335153    -1.6806033030
   26      H      -1.2763343442     2.7415640304     2.3156311493
   27      H      -3.9794934192     1.6070865477     1.7057378164
   28      H      -3.4916892154     3.3311851732     1.7608396940
   29      H      -4.1397010323     1.9691608818    -0.6488883532
   30      H      -3.0261879057     3.3693042176    -0.5973816495
   31      H      -1.4777628314     1.7379349513    -1.5151355365
   32      O       0.1328177123     0.8363545012    -3.0323660787
   33      C       3.8344331901    -3.7958564642    -0.7720378840
   34      C       3.4354342273     0.5821681633     0.5561234751
   35      C       4.1124393258     1.9876787994     0.2869269671
   36      C       2.8546545925     2.8769453339    -0.0454217459
   37      C       1.7189014936     1.7843617371    -0.0674468156
   38      O       2.0967435654     0.9119879819     1.0651651808
   39      H       3.9660898415    -0.0747655273    -1.5311753663
   40      H       2.4131479391     1.5233480481    -2.1619561564
   41      H       2.8812789918    -4.2302756236    -1.1361010296
   42      H       3.9787565263    -0.0779407996     1.2602799429
   43      H       4.6357868178     2.3392093459     1.1900288477
   44      H       4.8338248754     1.9432954715    -0.5448646218
   45      H       2.6623954457     3.6086110147     0.7556839220
   46      H       2.9503666930     3.4143388707    -1.0022681594
   47      H       0.6572742189     2.0972035021     0.0878633410
   48      H       3.9094478965    -3.9560753069     0.3230472149
   49      H       4.6880283905    -4.2817383956    -1.2799090225
   50      H      -4.4389891373     0.7787390589    -2.4632016135
   51      H      -4.7935078499    -0.4248781226    -1.1615066989
   52      H      -4.6145052932    -0.9621653857    -2.8779170075
   53      H      -3.7944848179    -1.0986245045     2.2464013907
   54      H      -2.6883758144    -2.1587406090     1.2403205293
   55      H      -1.8887901244    -4.0360865451    -0.9344100677
   56      H      -1.7250250345    -3.3286747126    -0.7905299894
 ----------------------------------------------------------------

    9   -1509.9569329849      9.42E-09 Convergence criterion met
 Total energy in the final basis set = -1509.95693298
 Final energy is   -1509.95693298495
 **  OPTIMIZATION CONVERGED  **

                    Orbital Energies (a.u.)
 --------------------------------------------------------------

 Alpha MOs
 -- Occupied --
-19.053 -19.008 -18.993 -18.907 -18.903 -18.899 -18.891 -18.886
-18.877 -18.875 -10.128 -10.098 -10.091 -10.089 -10.087 -10.070
-10.069 -10.065 -10.061 -10.054 -10.051 -10.043 -10.036 -10.035
-10.025 -10.022 -10.020 -10.019 -10.016  -9.922  -1.094  -1.029
 -1.003  -0.997  -0.984  -0.975  -0.970  -0.959  -0.929  -0.900
 -0.777  -0.737  -0.735  -0.716  -0.709  -0.696  -0.690  -0.658
 -0.648  -0.627  -0.606  -0.589  -0.568  -0.559  -0.548  -0.537
 -0.525  -0.507  -0.503  -0.481  -0.472  -0.463  -0.455  -0.446
 -0.443  -0.437  -0.432  -0.429  -0.423  -0.414  -0.399  -0.394
 -0.393  -0.386  -0.383  -0.378  -0.368  -0.362  -0.355  -0.354
 -0.348  -0.347  -0.337  -0.334  -0.331  -0.322  -0.321  -0.317
 -0.315  -0.310  -0.306  -0.304  -0.301  -0.290  -0.280  -0.278
 -0.265  -0.258  -0.253  -0.238  -0.237  -0.230  -0.214  -0.195
 -0.184  -0.159  -0.155  -0.151  -0.148  -0.135  -0.116  -0.099
 -0.084

          Ground-State Mulliken Net Atomic Charges

     Atom                 Charge (a.u.)
  ----------------------------------------
      1 O                    -0.133319
      2 C                     0.180908
      3 C                    -0.075184
      4 C                    -0.085841
      5 C                     0.147345
      6 O                    -0.105880
      7 C                    -0.078969
      8 C                     0.042329
      9 O                    -0.183096
     10 C                     0.204234
     11 C                     0.023070
     12 C                    -0.041806
     13 C                     0.135930
     14 O                    -0.212094
     15 O                    -0.146359
     16 O                    -0.189561
     17 O                    -0.190092
     18 C                    -0.135176
     19 C                     0.010244
     20 C                    -0.140655
     21 C                    -0.140203
     22 C                     0.011616
     23 O                    -0.195001
     24 H                     0.075550
     25 H                     0.086030
     26 H                     0.085885
     27 H                     0.086176
     28 H                     0.078670
     29 H                     0.084940
     30 H                     0.075592
     31 H                     0.083855
     32 O                    -0.168342
     33 C                    -0.124477
     34 C                     0.026662
     35 C                    -0.144649
     36 C                    -0.144064
     37 C                     0.008021
     38 O                    -0.182815
     39 H                     0.096644
     40 H                     0.082487
     41 H                     0.100173
     42 H                     0.082898
     43 H                     0.080211
     44 H                     0.072481
     45 H                     0.078994
     46 H                     0.073274
     47 H                     0.121047
     48 H                     0.101033
     49 H                     0.102728
     50 H                     0.065984
     51 H                     0.088482
     52 H                     0.081310
     53 H                     0.078110
     54 H                     0.103463
     55 H                    -0.062299
     56 H                     0.023508
  ----------------------------------------
  Sum of atomic charges =    -0.000000

                    Cartesian Multipole Moments
 -----------------------------------------------------------------
    Charge (ESU x 10^10)
                -0.0000
    Dipole Moment (Debye)
         X       3.7461      Y       0.1763      Z      -2.0318
       Tot       4.2652
    Quadrupole Moments (Debye-Ang)
        XX    -137.5258     XY     -13.0195     YY    -149.5732
        XZ      -5.8575     YZ       1.1248     ZZ    -178.9771

 Total job time:  268.51s(wall), 12823.33s(cpu)
        *  Thank you very much for using Q-Chem.  Have a nice day.  *
