 Q-Chem 5.0, Q-Chem, Inc., Pleasanton, CA (2017)
 Q-Chem 5.0.1 for Intel X86 EM64T Linux

User input:
--------------------------------------------------------------
$molecule
0  1
O -3.94934 -3.66094 2.70899
C -3.26408 -4.56952 2.26188
C -3.36658 -6.02376 2.66595
C -2.97353 -6.38153 4.10864
C -2.69204 -5.22192 5.03825
O -2.23461 -4.15308 4.32146
C -0.9548 -4.38278 3.72266
C 0.156 -4.06514 4.71834
O 0.41078 -5.20902 5.5487
C -0.64764 -6.03358 5.74616
C -0.37082 -7.45733 5.32548
C -1.3199 -8.50549 5.92455
C -2.59163 -7.96593 6.54769
O -2.95032 -8.15288 7.70136
O -2.45338 -4.30003 1.20031
O -3.64187 -7.27434 6.14324
O -1.08751 -5.89771 6.8865
C -4.89952 -7.0458 6.75748
C -0.0453 -8.08263 3.9461
C 0.90062 -9.28196 4.1092
C -0.04544 -10.31606 4.71565
C -1.35808 -9.51969 4.75774
O -1.23238 -8.74681 3.5913
H 0.58181 -7.591 5.89232
H -0.84076 -9.01487 6.79324
H 0.35995 -7.34785 3.21999
H 1.19555 -9.6299 3.09357
H 1.81863 -9.07234 4.69918
H -0.15412 -11.15428 3.99139
H 0.26215 -10.72286 5.70294
H -2.23672 -10.19693 4.81707
O -3.38917 -4.93515 5.99908
C -2.35571 -3.06826 0.5855
C -4.82677 -6.45586 2.38071
C -4.79179 -7.7386 1.59341
C -4.10144 -8.57895 2.62617
C -4.14862 -7.60235 3.87133
O -5.29106 -6.86197 3.61666
H -2.67416 -6.53592 1.94363
H -2.05873 -6.7902 3.93155
H -2.01621 -2.29797 1.30988
H -5.47462 -5.69908 1.88257
H -5.84764 -8.06819 1.45799
H -4.27615 -7.69011 0.60957
H -4.71991 -9.49909 2.75064
H -3.0907 -8.88159 2.31891
H -4.34533 -8.42518 4.58726
H -3.34066 -2.77377 0.16451
H -1.6188 -3.13203 -0.24104
H -5.5344 -6.41326 6.10576
H -4.77518 -6.51353 7.7256
H -5.42386 -8.011 6.92438
H 1.08721 -3.89179 4.13665
H -0.04699 -3.1543 5.32175
H -0.84099 -3.56218 2.986
H -0.7936 -5.30384 3.13135
$end

$opt
CONSTRAINT
tors           1           2           3           4     -66.316
tors           3           4           5           6     -28.421
tors           4           5           6           7     -66.316
tors           5           6           7           8     -85.263
tors           6           7           8           9     +85.263
tors           7           8           9          10     -28.421
tors           8           9          10          11    +123.158
tors           9          10          11          12    +161.053
tors          11          12          13          14    -123.158
ENDCONSTRAINT
$end

$rem
JOBTYPE                   OPT
METHOD                    B3LYP
DFT_D                     d3_op
BASIS                     STO-3G
GEOM_OPT_MAX_CYCLES       100
GEOM_OPT_TOL_GRADIENT     300
GEOM_OPT_TOL_DISPLACEMENT 1200
GEOM_OPT_TOL_ENERGY       100
SYMMETRY                  False
THRESH                    12
SCF_CONVERGENCE           8
MAX_SUB_FILE_NUM          128
MEM_STATIC                400
MEM_TOTAL                 4000
$end
--------------------------------------------------------------

   17   -1509.8157207913      9.85E-09 Convergence criterion met
 Total energy in the final basis set = -1509.81572079
   14   -1509.9098365245      7.92E-09 Convergence criterion met
 Total energy in the final basis set = -1509.90983652
   14   -1510.0057737506      2.98E-09 Convergence criterion met
 Total energy in the final basis set = -1510.00577375
   14   -1510.0767411906      4.88E-09 Convergence criterion met
 Total energy in the final basis set = -1510.07674119
   14   -1510.1268212010      6.89E-09 Convergence criterion met
 Total energy in the final basis set = -1510.12682120
   14   -1510.1611316953      8.05E-09 Convergence criterion met
 Total energy in the final basis set = -1510.16113170
   14   -1510.1829960826      7.35E-09 Convergence criterion met
 Total energy in the final basis set = -1510.18299608
   14   -1510.1967053131      5.11E-09 Convergence criterion met
   10   -1510.2536951932      9.20E-09 Convergence criterion met
 Total energy in the final basis set = -1510.25369519
    9   -1510.2536997959      9.28E-09 Convergence criterion met
 Total energy in the final basis set = -1510.25369980
    9   -1510.2537031534      4.79E-09 Convergence criterion met
 Total energy in the final basis set = -1510.25370315
    9   -1510.2537058793      3.40E-09 Convergence criterion met
 Total energy in the final basis set = -1510.25370588
    9   -1510.2537082926      5.39E-09 Convergence criterion met
 Total energy in the final basis set = -1510.25370829
    9   -1510.2537098793      4.37E-09 Convergence criterion met
 Total energy in the final basis set = -1510.25370988

             Standard Nuclear Orientation (Angstroms)
    I     Atom           X                Y                Z
 ----------------------------------------------------------------
    1      O      -4.2616651240    -0.2891046826     0.2900106046
    2      C      -3.4643345040     0.0119078320    -0.6226551326
    3      C      -2.1806046199    -0.7712955998    -1.0742952922
    4      C      -1.0232433644    -0.8047908367     0.0080960333
    5      C      -1.2017556971     0.1817229716     1.2216230672
    6      O      -1.9615842984     1.3911338302     0.9433937572
    7      C      -1.3977905803     2.3763438717     0.0145246792
    8      C      -0.3783117787     3.4792595352     0.5357746283
    9      O       1.0703038367     3.2091107209     0.6491393189
   10      C       1.4690983089     1.8475327664     0.8902672298
   11      C       2.4509414948     1.4115289410    -0.2641445837
   12      C       3.3654678902     0.1499870289     0.0287240401
   13      C       3.0950302286    -0.6174702859     1.3712780135
   14      O       3.9417906402    -0.8308581769     2.2689235765
   15      O      -3.6578110519     1.1217157818    -1.5188269784
   16      O       1.8106577686    -1.2365973467     1.3134719060
   17      O       1.1861623660     1.2188492220     1.9301734311
   18      C       1.4945555071    -1.8840513110     2.6102605846
   19      C       1.7211567477     0.9730700277    -1.6031452457
   20      C       2.7564790622     1.0732679784    -2.7886895481
   21      C       3.6584741393    -0.1875025043    -2.5122753198
   22      C       2.9811839015    -0.7728218226    -1.2131769031
   23      O       1.5391879599    -0.4852944815    -1.4329152939
   24      H       3.0786556683     2.2986873299    -0.4676837477
   25      H       4.4337574208     0.4259573032     0.0145346221
   26      H       0.7490876291     1.4672750736    -1.7910337726
   27      H       2.2389217386     0.9957886795    -3.7581154250
   28      H       3.3223332961     2.0178366338    -2.7627859258
   29      H       3.5999534569    -0.9141671453    -3.3381658816
   30      H       4.7155737164     0.0728616229    -2.3439701484
   31      H       3.1330133422    -1.8568080543    -1.0470077127
   32      O      -0.9977086360    -0.1184000869     2.4169769704
   33      C      -4.8876152454     1.8542040273    -1.1421807918
   34      C      -2.5240903356    -2.3175998188    -1.1710263260
   35      C      -1.3000910794    -3.0809150878    -1.8233415866
   36      C      -0.3038351517    -3.1667358838    -0.6080887193
   37      C      -1.0907196951    -2.3283513476     0.4690499090
   38      O      -2.4968782408    -2.7316498645     0.2479785634
   39      H      -1.8314548924    -0.3552313734    -2.0359925354
   40      H      -0.0271081419    -0.6252841478    -0.4638185358
   41      H      -4.8301196773     2.2427833265    -0.1046740917
   42      H      -3.5109304573    -2.5386631660    -1.6221558403
   43      H      -1.6076073877    -4.0793197757    -2.1725807442
   44      H      -0.8777778474    -2.5224631175    -2.6740140673
   45      H      -0.1688595143    -4.2063454612    -0.2693051750
   46      H       0.6802686675    -2.7260032098    -0.8294336110
   47      H      -0.8089071743    -2.4981191352     1.5227743925
   48      H      -5.7880388240     1.2114554821    -1.2225555040
   49      H      -4.9735412721     2.6981394842    -1.8512981652
   50      H       0.5608093825    -1.4140472015     2.9851876757
   51      H       2.3338195598    -1.7338317948     3.3169065573
   52      H       1.3383489862    -2.9674243269     2.4419653995
   53      H      -0.4447165671     4.3216103022    -0.1863123104
   54      H      -0.7616091895     3.8487289386     1.5165021054
   55      H      -2.2796884744     2.9517417934    -0.3373601259
   56      H      -0.9609587023     1.8833847073    -0.8837208709
 ----------------------------------------------------------------

    9   -1510.2537106816      3.12E-09 Convergence criterion met
 Total energy in the final basis set = -1510.25371068
 Final energy is   -1510.25371068159
 **  OPTIMIZATION CONVERGED  **

                    Orbital Energies (a.u.)
 --------------------------------------------------------------

 Alpha MOs
 -- Occupied --
-18.925 -18.923 -18.919 -18.918 -18.916 -18.910 -18.896 -18.877
-18.870 -18.863 -10.118 -10.104 -10.098 -10.088 -10.084 -10.082
-10.080 -10.078 -10.059 -10.052 -10.050 -10.047 -10.045 -10.041
-10.037 -10.035 -10.029 -10.016 -10.012 -10.008  -1.020  -1.006
 -1.005  -0.998  -0.994  -0.961  -0.950  -0.937  -0.929  -0.925
 -0.778  -0.753  -0.736  -0.725  -0.716  -0.711  -0.694  -0.658
 -0.652  -0.623  -0.598  -0.587  -0.562  -0.554  -0.541  -0.531
 -0.520  -0.504  -0.481  -0.480  -0.474  -0.456  -0.455  -0.447
 -0.440  -0.432  -0.422  -0.417  -0.415  -0.405  -0.405  -0.400
 -0.397  -0.385  -0.378  -0.372  -0.361  -0.359  -0.357  -0.352
 -0.348  -0.344  -0.342  -0.339  -0.329  -0.326  -0.322  -0.318
 -0.317  -0.311  -0.305  -0.299  -0.296  -0.294  -0.284  -0.275
 -0.269  -0.258  -0.249  -0.246  -0.241  -0.228  -0.222  -0.178
 -0.173  -0.171  -0.170  -0.164  -0.158  -0.152  -0.151  -0.141
 -0.133

          Ground-State Mulliken Net Atomic Charges

     Atom                 Charge (a.u.)
  ----------------------------------------
      1 O                    -0.210963
      2 C                     0.207486
      3 C                    -0.082738
      4 C                    -0.101141
      5 C                     0.223416
      6 O                    -0.187926
      7 C                    -0.046967
      8 C                    -0.050787
      9 O                    -0.195895
     10 C                     0.215729
     11 C                    -0.080775
     12 C                    -0.081958
     13 C                     0.212364
     14 O                    -0.215994
     15 O                    -0.179519
     16 O                    -0.172943
     17 O                    -0.176605
     18 C                    -0.141968
     19 C                     0.025677
     20 C                    -0.142495
     21 C                    -0.143369
     22 C                     0.028729
     23 O                    -0.187000
     24 H                     0.090481
     25 H                     0.088188
     26 H                     0.080314
     27 H                     0.080622
     28 H                     0.078530
     29 H                     0.081121
     30 H                     0.078836
     31 H                     0.088801
     32 O                    -0.175007
     33 C                    -0.130904
     34 C                     0.026246
     35 C                    -0.144729
     36 C                    -0.144018
     37 C                     0.025847
     38 O                    -0.188874
     39 H                     0.078085
     40 H                     0.110677
     41 H                     0.089503
     42 H                     0.080353
     43 H                     0.074866
     44 H                     0.072189
     45 H                     0.072820
     46 H                     0.080244
     47 H                     0.088280
     48 H                     0.088292
     49 H                     0.084676
     50 H                     0.107865
     51 H                     0.098577
     52 H                     0.078791
     53 H                     0.087960
     54 H                     0.087788
     55 H                     0.095587
     56 H                     0.073634
  ----------------------------------------
  Sum of atomic charges =    -0.000000

                    Cartesian Multipole Moments
 -----------------------------------------------------------------
    Charge (ESU x 10^10)
                -0.0000
    Dipole Moment (Debye)
         X       2.0415      Y       2.1669      Z      -5.5528
       Tot       6.3006
    Quadrupole Moments (Debye-Ang)
        XX    -163.4316     XY      -7.5010     YY    -152.7111
        XZ      -1.6685     YZ      -1.6033     ZZ    -165.2298

 Total job time:  174.44s(wall), 8328.74s(cpu)
        *  Thank you very much for using Q-Chem.  Have a nice day.  *
