 Q-Chem 5.0, Q-Chem, Inc., Pleasanton, CA (2017)
 Q-Chem 5.0.1 for Intel X86 EM64T Linux

User input:
--------------------------------------------------------------
$molecule
0  1
O 4.9629416246 -1.5311704908 -0.1083165589
C 5.0454692022 -0.443786546 -0.720864439
C 4.219240053 0.8559279167 -0.4505723811
C 2.6629170812 0.5686392378 -0.301092011
C 2.2815111395 -0.956677111 -0.4756716521
O 1.9855202189 -1.6157840387 0.7783018673
C 0.6253258408 -2.2048118357 0.7356663511
C -0.3572953547 -1.3032236841 1.5800254306
O -1.7470863296 -1.8247959279 1.5893961002
C -2.4369920298 -1.343017843 0.4156903201
C -3.9269459772 -1.0024759502 0.7916804992
C -4.3070513295 0.4966414644 0.4557965189
C -3.0754719048 1.4455351905 0.2534303419
O -1.868818925 1.2014505825 0.4825217397
O 5.9631544828 -0.1909968335 -1.7906895849
O -3.5500415941 2.7008600719 -0.2351577369
O -1.9234579622 -1.2772376384 -0.7216998541
C -2.413367589 3.6301399529 -0.4358387891
C -4.8964556512 -1.7578359711 -0.2179896131
C -6.3988651888 -1.5508514584 0.2307897841
C -6.6770674303 -0.08817872 -0.2804230364
C -5.2473051595 0.3129117276 -0.8155923269
O -4.7688848112 -0.9370713368 -1.4459045872
H -4.1061880016 -1.2585813077 1.8496263189
H -4.8977618459 0.9278860948 1.2857869566
H -4.6090772708 -2.8067111267 -0.4258457443
H -7.0553483935 -2.2859908203 -0.2606967923
H -6.5163921197 -1.6478324113 1.3220625056
H -7.4076253375 -0.0824622731 -1.1053296656
H -7.0337958208 0.584970093 0.5154780756
H -5.2191026537 1.1562687388 -1.5322471431
O 2.1519982584 -1.5167039213 -1.5860033835
C 6.7617219321 -1.407971893 -2.0679809833
C 4.5452418986 1.4895436531 0.9728882227
C 3.9926692677 2.9687853409 0.9815216773
C 2.4447985804 2.7105933725 1.0946138972
C 2.4000211209 1.1314789394 1.1557334694
O 3.6347772943 0.7730534677 1.8910432733
H 4.4238952375 1.5724546749 -1.2649714885
H 2.0911160793 1.1218720609 -1.0681309557
H 6.1155351557 -2.2586776415 -2.3662660893
H 5.5970818475 1.3748203663 1.2994497547
H 4.3761533699 3.5149858886 1.8580366279
H 4.2697186685 3.5225317358 0.0703296672
H 2.0279822213 3.1445665358 2.0173140281
H 1.8831228204 3.106290636 0.2334592728
H 1.5159031714 0.7039762325 1.6618248134
H 7.3603636992 -1.7135784577 -1.1856692091
H 7.4381017137 -1.1458344098 -2.9021871135
H -2.8526362841 4.5707588904 -0.8155617326
H -1.6892389468 3.2319386713 -1.1756544813
H -1.8753282654 3.8276025819 0.5139397133
H -0.0287405361 -1.2893727852 2.6393613172
H -0.3594798445 -0.2659201165 1.1806871798
H 0.6738189119 -3.2190231548 1.1855215122
H 0.2449294003 -2.29287873 -0.304620434
$end

$rem
JOBTYPE                   OPT
METHOD                    B3LYP
DFT_D                     d3_op
BASIS                     STO-3G
GEOM_OPT_MAX_CYCLES       100
GEOM_OPT_TOL_GRADIENT     300
GEOM_OPT_TOL_DISPLACEMENT 1200
GEOM_OPT_TOL_ENERGY       100
SYMMETRY                  False
THRESH                    12
SCF_CONVERGENCE           8
MAX_SUB_FILE_NUM          128
MEM_STATIC                400
MEM_TOTAL                 4000
$end
--------------------------------------------------------------

   16   -1510.2595422358      3.81E-09 Convergence criterion met
 Total energy in the final basis set = -1510.25954224
   14   -1510.2654045885      3.00E-09 Convergence criterion met
 Total energy in the final basis set = -1510.26540459
   14   -1510.2705790101      2.75E-09 Convergence criterion met
 Total energy in the final basis set = -1510.27057901
   14   -1510.2750558321      4.76E-09 Convergence criterion met
 Total energy in the final basis set = -1510.27505583
   14   -1510.2790024338      5.06E-09 Convergence criterion met
 Total energy in the final basis set = -1510.27900243
   14   -1510.2812564170      4.69E-09 Convergence criterion met
 Total energy in the final basis set = -1510.28125642
   14   -1510.2825872605      2.38E-09 Convergence criterion met
 Total energy in the final basis set = -1510.28258726
   14   -1510.2832760278      3.19E-09 Convergence criterion met
   13   -1510.2870328559      4.44E-09 Convergence criterion met
 Total energy in the final basis set = -1510.28703286
   13   -1510.2871640470      1.72E-09 Convergence criterion met
 Total energy in the final basis set = -1510.28716405
   12   -1510.2871607515      4.96E-09 Convergence criterion met
 Total energy in the final basis set = -1510.28716075
   12   -1510.2871765539      3.62E-09 Convergence criterion met
 Total energy in the final basis set = -1510.28717655
   10   -1510.2871826386      7.93E-09 Convergence criterion met
 Total energy in the final basis set = -1510.28718264
   10   -1510.2871786179      4.38E-09 Convergence criterion met
 Total energy in the final basis set = -1510.28717862

             Standard Nuclear Orientation (Angstroms)
    I     Atom           X                Y                Z
 ----------------------------------------------------------------
    1      O       3.1018300291    -1.0973392734    -1.0796937138
    2      C       4.2974599628    -0.8197901194    -0.8362967475
    3      C       4.8814573732     0.5576955758    -0.3753462839
    4      C       3.7653187806     1.6347290362    -0.0515679911
    5      C       2.2911042919     1.1278504888    -0.2751826747
    6      O       1.8709470008     0.3962979109     0.8853250213
    7      C       0.5292476227    -0.1918768389     0.6658980629
    8      C      -0.6217762333     0.8846183771     0.7585327397
    9      O      -1.9373715154     0.2662158963     1.0476319178
   10      C      -2.4499681649    -0.3831590500    -0.1271683727
   11      C      -3.8780299367    -0.9485416780     0.2208360784
   12      C      -5.0378394345     0.1284043130     0.2073065042
   13      C      -4.5504751979     1.5399070603    -0.2627210492
   14      O      -3.4122423908     1.8492815300    -0.6814403426
   15      O       5.3722051362    -1.7548818715    -0.9511553263
   16      O      -5.6435491431     2.4550573535    -0.1666029815
   17      O      -1.8044411561    -0.5657697050    -1.1808195148
   18      C      -5.2266140546     3.7941850681    -0.6447863669
   19      C      -4.3857896783    -1.9562621408    -0.8938200260
   20      C      -5.5491566949    -2.8296958018    -0.2815462188
   21      C      -6.7170740254    -1.7759636103    -0.2236733645
   22      C      -6.0221074259    -0.5107405874    -0.8663321421
   23      O      -5.0904489482    -1.0835676437    -1.8629630364
   24      H      -3.8190824845    -1.4340698698     1.2114021639
   25      H      -5.5253980313     0.2292439493     1.1936395935
   26      H      -3.5750092788    -2.5149573525    -1.4002533303
   27      H      -5.7967989756    -3.6674280169    -0.9527986509
   28      H      -5.2901414491    -3.2352269021     0.7095806133
   29      H      -7.5790987147    -2.0913890401    -0.8326029764
   30      H      -7.0635331324    -1.5796886259     0.8036473151
   31      H      -6.7089472529     0.2167720716    -1.3412507281
   32      O       1.5572958727     1.3976984221    -1.2506849850
   33      C       4.8510798285    -3.0759705325    -1.3744604796
   34      C       5.6209859329     0.4512089103     1.0275069346
   35      C       6.5018416533     1.7477044444     1.2196016712
   36      C       5.3960796310     2.8182568890     1.5477186853
   37      C       4.0858457134     1.9376899303     1.4744624099
   38      O       4.5243048249     0.6248832274     2.0047182290
   39      H       5.5739766582     0.9152135795    -1.1594523896
   40      H       3.8974949135     2.5312417006    -0.6827456112
   41      H       4.3419673976    -3.0176968316    -2.3581332682
   42      H       6.1457483930    -0.5105332872     1.1885199579
   43      H       7.1998978144     1.6160176674     2.0615377663
   44      H       7.0810534013     1.9933789563     0.3151818316
   45      H       5.5233845678     3.2318336498     2.5607531965
   46      H       5.3807791296     3.6508650411     0.8261434173
   47      H       3.2259823217     2.3208766815     2.0564156030
   48      H       4.1372428175    -3.4883143024    -0.6323560105
   49      H       5.7313439871    -3.7403311981    -1.4510951802
   50      H      -6.1166839590     4.4426267763    -0.5476743145
   51      H      -4.9007651220     3.7643932748    -1.7045862033
   52      H      -4.3979132372     4.2054907631    -0.0330130387
   53      H      -0.4221503087     1.5681739219     1.6085384902
   54      H      -0.6557846170     1.4656034894    -0.1870907506
   55      H       0.3999345034    -0.9392790162     1.4747818526
   56      H       0.4738723938    -0.6984518724    -0.3205797191
 ----------------------------------------------------------------

    9   -1510.2871789487      7.75E-09 Convergence criterion met
 Total energy in the final basis set = -1510.28717895
 Final energy is   -1510.28717894865
 **  OPTIMIZATION CONVERGED  **

                    Orbital Energies (a.u.)
 --------------------------------------------------------------

 Alpha MOs
 -- Occupied --
-18.939 -18.939 -18.915 -18.914 -18.885 -18.883 -18.883 -18.882
-18.858 -18.856 -10.103 -10.102 -10.086 -10.086 -10.066 -10.066
-10.058 -10.058 -10.056 -10.053 -10.052 -10.051 -10.037 -10.037
-10.030 -10.029 -10.019 -10.018 -10.017 -10.016  -1.016  -1.015
 -0.996  -0.991  -0.967  -0.967  -0.940  -0.939  -0.922  -0.918
 -0.760  -0.759  -0.722  -0.720  -0.708  -0.703  -0.682  -0.663
 -0.663  -0.607  -0.593  -0.576  -0.543  -0.541  -0.535  -0.533
 -0.509  -0.507  -0.478  -0.473  -0.462  -0.453  -0.449  -0.438
 -0.431  -0.429  -0.421  -0.413  -0.413  -0.408  -0.405  -0.384
 -0.381  -0.376  -0.375  -0.366  -0.354  -0.352  -0.351  -0.339
 -0.337  -0.332  -0.331  -0.327  -0.325  -0.323  -0.315  -0.312
 -0.309  -0.303  -0.302  -0.297  -0.296  -0.282  -0.274  -0.271
 -0.270  -0.257  -0.255  -0.245  -0.232  -0.231  -0.228  -0.182
 -0.181  -0.172  -0.156  -0.156  -0.147  -0.141  -0.141  -0.136
 -0.134

          Ground-State Mulliken Net Atomic Charges

     Atom                 Charge (a.u.)
  ----------------------------------------
      1 O                    -0.205212
      2 C                     0.214574
      3 C                    -0.078256
      4 C                    -0.081624
      5 C                     0.213434
      6 O                    -0.173322
      7 C                    -0.053184
      8 C                    -0.053913
      9 O                    -0.179198
     10 C                     0.215699
     11 C                    -0.081523
     12 C                    -0.077784
     13 C                     0.214827
     14 O                    -0.204504
     15 O                    -0.170048
     16 O                    -0.169803
     17 O                    -0.213471
     18 C                    -0.128242
     19 C                     0.024813
     20 C                    -0.143897
     21 C                    -0.144003
     22 C                     0.024941
     23 O                    -0.189227
     24 H                     0.082835
     25 H                     0.086440
     26 H                     0.089565
     27 H                     0.077663
     28 H                     0.072821
     29 H                     0.077704
     30 H                     0.073171
     31 H                     0.084824
     32 O                    -0.216590
     33 C                    -0.128176
     34 C                     0.024928
     35 C                    -0.143783
     36 C                    -0.144408
     37 C                     0.026451
     38 O                    -0.187559
     39 H                     0.086196
     40 H                     0.082723
     41 H                     0.091469
     42 H                     0.086860
     43 H                     0.077486
     44 H                     0.073285
     45 H                     0.077200
     46 H                     0.073399
     47 H                     0.085295
     48 H                     0.091133
     49 H                     0.091314
     50 H                     0.091232
     51 H                     0.092077
     52 H                     0.090382
     53 H                     0.082313
     54 H                     0.103257
     55 H                     0.083810
     56 H                     0.103605
  ----------------------------------------
  Sum of atomic charges =    -0.000000

                    Cartesian Multipole Moments
 -----------------------------------------------------------------
    Charge (ESU x 10^10)
                 0.0000
    Dipole Moment (Debye)
         X       0.3133      Y       0.2626      Z       1.7490
       Tot       1.7962
    Quadrupole Moments (Debye-Ang)
        XX    -129.4752     XY      -0.7540     YY    -142.4402
        XZ      -9.1146     YZ       1.3053     ZZ    -167.3787

 Total job time:  76.80s(wall), 3654.96s(cpu)
        *  Thank you very much for using Q-Chem.  Have a nice day.  *
