 Q-Chem 5.0, Q-Chem, Inc., Pleasanton, CA (2017)
 Q-Chem 5.0.1 for Intel X86 EM64T Linux

User input:
--------------------------------------------------------------
$molecule
0  1
O -3.94934 -3.66094 2.70899
C -3.26408 -4.56952 2.26188
C -3.36658 -6.02376 2.66595
C -3.41669 -6.33291 4.1712
C -3.53792 -5.14515 5.09996
O -4.81525 -5.0563 5.57531
C -4.88671 -5.07562 7.00492
C -5.36813 -6.43954 7.48875
O -5.43793 -6.45329 8.92326
C -4.27881 -6.75221 9.56062
C -4.48583 -7.60768 10.7878
C -3.71327 -8.93487 10.78954
C -2.59852 -9.05188 9.76957
O -2.38221 -8.26168 8.86218
O -2.26422 -4.26262 1.39366
O -1.82527 -10.16661 9.85799
O -3.26589 -6.08519 9.38734
C -0.77867 -10.45628 9.00781
C -3.96379 -6.96476 12.08678
C -4.68792 -7.57051 13.28782
C -4.09764 -8.96623 13.29844
C -3.05586 -8.83316 12.18081
O -2.6649 -7.48189 12.23539
H -5.58007 -7.79217 10.89659
H -4.36907 -9.82552 10.67308
H -4.0566 -5.85664 12.09637
H -4.32782 -7.02524 14.18979
H -5.79772 -7.52545 13.25368
H -3.6059 -9.13046 14.28293
H -4.81546 -9.78828 13.08713
H -2.24289 -9.57815 12.3258
O -2.64303 -4.35468 5.36385
C -1.99301 -2.9892 0.93863
C -4.68148 -6.64151 2.16058
C -4.5074 -8.1459 1.98239
C -4.40602 -8.57976 3.42517
C -4.68462 -7.24513 4.13307
O -5.54556 -6.56358 3.25895
H -2.52368 -6.55429 2.16574
H -2.54697 -6.92515 4.53091
H -1.73653 -2.32443 1.7911
H -5.05122 -6.18542 1.21548
H -5.46141 -8.53298 1.55709
H -3.66282 -8.46059 1.33231
H -5.21698 -9.31605 3.62282
H -3.42463 -9.00384 3.72909
H -5.11288 -7.47822 5.11313
H -2.87245 -2.5818 0.39547
H -1.12969 -3.02753 0.24313
H -0.32312 -11.42223 9.30761
H -0.00502 -9.66124 9.06915
H -1.14665 -10.54294 7.96305
H -6.38036 -6.63487 7.07575
H -4.67782 -7.24399 7.15461
H -5.59176 -4.28456 7.33694
H -3.90724 -4.83582 7.47117
$end

$opt
CONSTRAINT
tors           1           2           3           4     -47.368
tors           3           4           5           6    +104.211
tors           4           5           6           7    +123.158
tors           5           6           7           8    -104.211
tors           6           7           8           9    -180.000
tors           7           8           9          10     -85.263
tors           8           9          10          11    -142.105
tors           9          10          11          12    +123.158
tors          11          12          13          14      -9.474
ENDCONSTRAINT
$end

$rem
JOBTYPE                   OPT
METHOD                    B3LYP
DFT_D                     d3_op
BASIS                     STO-3G
GEOM_OPT_MAX_CYCLES       100
GEOM_OPT_TOL_GRADIENT     300
GEOM_OPT_TOL_DISPLACEMENT 1200
GEOM_OPT_TOL_ENERGY       100
SYMMETRY                  False
THRESH                    12
SCF_CONVERGENCE           8
MAX_SUB_FILE_NUM          128
MEM_STATIC                400
MEM_TOTAL                 4000
$end
--------------------------------------------------------------

   15   -1510.1139184669      8.01E-09 Convergence criterion met
 Total energy in the final basis set = -1510.11391847
   14   -1510.1867439149      4.52E-09 Convergence criterion met
 Total energy in the final basis set = -1510.18674391
   14   -1510.2253742573      4.80E-09 Convergence criterion met
 Total energy in the final basis set = -1510.22537426
   14   -1510.2431668246      6.78E-09 Convergence criterion met
 Total energy in the final basis set = -1510.24316682
   14   -1510.2502046514      4.63E-09 Convergence criterion met
 Total energy in the final basis set = -1510.25020465
   13   -1510.2529326763      3.90E-09 Convergence criterion met
 Total energy in the final basis set = -1510.25293268
   13   -1510.2546471970      2.34E-09 Convergence criterion met
 Total energy in the final basis set = -1510.25464720
   13   -1510.2558959140      3.42E-09 Convergence criterion met
   11   -1510.2595371807      6.78E-09 Convergence criterion met
 Total energy in the final basis set = -1510.25953718
   11   -1510.2596098507      6.09E-09 Convergence criterion met
 Total energy in the final basis set = -1510.25960985
   11   -1510.2596696908      7.75E-09 Convergence criterion met
 Total energy in the final basis set = -1510.25966969
   11   -1510.2596949299      3.66E-09 Convergence criterion met
 Total energy in the final basis set = -1510.25969493
   11   -1510.2597037946      2.98E-09 Convergence criterion met
 Total energy in the final basis set = -1510.25970379
    9   -1510.2597051330      6.25E-09 Convergence criterion met
 Total energy in the final basis set = -1510.25970513

             Standard Nuclear Orientation (Angstroms)
    I     Atom           X                Y                Z
 ----------------------------------------------------------------
    1      O       4.9629416246    -1.5311704908    -0.1083165589
    2      C       5.0454692022    -0.4437865460    -0.7208644390
    3      C       4.2192400530     0.8559279167    -0.4505723811
    4      C       2.6629170812     0.5686392378    -0.3010920110
    5      C       2.2815111395    -0.9566771110    -0.4756716521
    6      O       1.9855202189    -1.6157840387     0.7783018673
    7      C       0.6253258408    -2.2048118357     0.7356663511
    8      C      -0.3572953547    -1.3032236841     1.5800254306
    9      O      -1.7470863296    -1.8247959279     1.5893961002
   10      C      -2.4369920298    -1.3430178430     0.4156903201
   11      C      -3.9269459772    -1.0024759502     0.7916804992
   12      C      -4.3070513295     0.4966414644     0.4557965189
   13      C      -3.0754719048     1.4455351905     0.2534303419
   14      O      -1.8688189250     1.2014505825     0.4825217397
   15      O       5.9631544828    -0.1909968335    -1.7906895849
   16      O      -3.5500415941     2.7008600719    -0.2351577369
   17      O      -1.9234579622    -1.2772376384    -0.7216998541
   18      C      -2.4133675890     3.6301399529    -0.4358387891
   19      C      -4.8964556512    -1.7578359711    -0.2179896131
   20      C      -6.3988651888    -1.5508514584     0.2307897841
   21      C      -6.6770674303    -0.0881787200    -0.2804230364
   22      C      -5.2473051595     0.3129117276    -0.8155923269
   23      O      -4.7688848112    -0.9370713368    -1.4459045872
   24      H      -4.1061880016    -1.2585813077     1.8496263189
   25      H      -4.8977618459     0.9278860948     1.2857869566
   26      H      -4.6090772708    -2.8067111267    -0.4258457443
   27      H      -7.0553483935    -2.2859908203    -0.2606967923
   28      H      -6.5163921197    -1.6478324113     1.3220625056
   29      H      -7.4076253375    -0.0824622731    -1.1053296656
   30      H      -7.0337958208     0.5849700930     0.5154780756
   31      H      -5.2191026537     1.1562687388    -1.5322471431
   32      O       2.1519982584    -1.5167039213    -1.5860033835
   33      C       6.7617219321    -1.4079718930    -2.0679809833
   34      C       4.5452418986     1.4895436531     0.9728882227
   35      C       3.9926692677     2.9687853409     0.9815216773
   36      C       2.4447985804     2.7105933725     1.0946138972
   37      C       2.4000211209     1.1314789394     1.1557334694
   38      O       3.6347772943     0.7730534677     1.8910432733
   39      H       4.4238952375     1.5724546749    -1.2649714885
   40      H       2.0911160793     1.1218720609    -1.0681309557
   41      H       6.1155351557    -2.2586776415    -2.3662660893
   42      H       5.5970818475     1.3748203663     1.2994497547
   43      H       4.3761533699     3.5149858886     1.8580366279
   44      H       4.2697186685     3.5225317358     0.0703296672
   45      H       2.0279822213     3.1445665358     2.0173140281
   46      H       1.8831228204     3.1062906360     0.2334592728
   47      H       1.5159031714     0.7039762325     1.6618248134
   48      H       7.3603636992    -1.7135784577    -1.1856692091
   49      H       7.4381017137    -1.1458344098    -2.9021871135
   50      H      -2.8526362841     4.5707588904    -0.8155617326
   51      H      -1.6892389468     3.2319386713    -1.1756544813
   52      H      -1.8753282654     3.8276025819     0.5139397133
   53      H      -0.0287405361    -1.2893727852     2.6393613172
   54      H      -0.3594798445    -0.2659201165     1.1806871798
   55      H       0.6738189119    -3.2190231548     1.1855215122
   56      H       0.2449294003    -2.2928787300    -0.3046204340
 ----------------------------------------------------------------

    9   -1510.2597059195      5.08E-09 Convergence criterion met
 Total energy in the final basis set = -1510.25970592
 Final energy is   -1510.25970591954
 **  OPTIMIZATION CONVERGED  **

                    Orbital Energies (a.u.)
 --------------------------------------------------------------

 Alpha MOs
 -- Occupied --
-18.948 -18.932 -18.914 -18.902 -18.891 -18.889 -18.885 -18.877
-18.874 -18.871 -10.113 -10.096 -10.094 -10.093 -10.074 -10.064
-10.061 -10.060 -10.058 -10.057 -10.055 -10.055 -10.044 -10.037
-10.033 -10.032 -10.023 -10.022 -10.019 -10.018  -1.024  -1.007
 -1.001  -0.994  -0.973  -0.967  -0.948  -0.931  -0.930  -0.923
 -0.766  -0.759  -0.726  -0.719  -0.711  -0.703  -0.688  -0.671
 -0.659  -0.608  -0.595  -0.577  -0.549  -0.544  -0.540  -0.535
 -0.516  -0.506  -0.480  -0.473  -0.462  -0.457  -0.455  -0.442
 -0.437  -0.430  -0.425  -0.419  -0.414  -0.408  -0.404  -0.393
 -0.386  -0.381  -0.376  -0.366  -0.365  -0.358  -0.351  -0.348
 -0.342  -0.335  -0.333  -0.330  -0.328  -0.325  -0.321  -0.318
 -0.307  -0.307  -0.304  -0.303  -0.291  -0.287  -0.278  -0.274
 -0.271  -0.262  -0.251  -0.248  -0.236  -0.233  -0.226  -0.190
 -0.174  -0.173  -0.165  -0.151  -0.151  -0.144  -0.143  -0.142
 -0.139

          Ground-State Mulliken Net Atomic Charges

     Atom                 Charge (a.u.)
  ----------------------------------------
      1 O                    -0.207443
      2 C                     0.207412
      3 C                    -0.079854
      4 C                    -0.079293
      5 C                     0.219108
      6 O                    -0.182083
      7 C                    -0.053409
      8 C                    -0.055253
      9 O                    -0.183241
     10 C                     0.215732
     11 C                    -0.081007
     12 C                    -0.079230
     13 C                     0.215143
     14 O                    -0.215814
     15 O                    -0.169154
     16 O                    -0.167877
     17 O                    -0.203840
     18 C                    -0.127889
     19 C                     0.025922
     20 C                    -0.145296
     21 C                    -0.142164
     22 C                     0.025817
     23 O                    -0.184779
     24 H                     0.086627
     25 H                     0.086032
     26 H                     0.084667
     27 H                     0.078954
     28 H                     0.073970
     29 H                     0.078933
     30 H                     0.073500
     31 H                     0.089024
     32 O                    -0.198590
     33 C                    -0.128915
     34 C                     0.026024
     35 C                    -0.143661
     36 C                    -0.144458
     37 C                     0.025897
     38 O                    -0.185160
     39 H                     0.085277
     40 H                     0.085259
     41 H                     0.092190
     42 H                     0.082636
     43 H                     0.077232
     44 H                     0.073420
     45 H                     0.076235
     46 H                     0.071916
     47 H                     0.086796
     48 H                     0.088753
     49 H                     0.089812
     50 H                     0.093206
     51 H                     0.091889
     52 H                     0.089414
     53 H                     0.085727
     54 H                     0.093287
     55 H                     0.084201
     56 H                     0.098397
  ----------------------------------------
  Sum of atomic charges =    -0.000000

                    Cartesian Multipole Moments
 -----------------------------------------------------------------
    Charge (ESU x 10^10)
                -0.0000
    Dipole Moment (Debye)
         X      -2.1549      Y       3.7618      Z       0.8324
       Tot       4.4144
    Quadrupole Moments (Debye-Ang)
        XX    -138.7228     XY       4.1049     YY    -152.1874
        XZ     -12.2027     YZ      -1.1618     ZZ    -165.7062

 Total job time:  56.57s(wall), 2692.54s(cpu)
        *  Thank you very much for using Q-Chem.  Have a nice day.  *
