 Q-Chem 5.0, Q-Chem, Inc., Pleasanton, CA (2017)
 Q-Chem 5.0.1 for Intel X86 EM64T Linux

User input:
--------------------------------------------------------------
$molecule
0  1
O -1.8172450218 1.1020188523 0.2238218928
C -2.9463273401 1.4417675604 -0.1974795324
C -4.2258990386 0.5645334813 -0.4246707386
C -3.9590887416 -0.959108321 -0.7640152763
C -2.5582806125 -1.4699604639 -0.2718162618
O -1.8439942766 -1.9902376299 -1.4035120583
C -0.5118010392 -2.4818762552 -0.9663450463
C 0.3650764934 -1.263183059 -0.4813367354
O 1.7846409136 -1.3971229298 -0.8668156235
C 2.6238716943 -1.3355408666 0.3021549064
C 4.0728710044 -0.99218825 -0.1852255758
C 4.2606112248 0.4490418015 -0.8215399712
C 3.1275631397 1.5182417104 -0.5887410051
O 3.1504372947 2.6887505896 -1.0337314514
O -3.2940542181 2.7875016749 -0.5363635072
O 2.1276200495 1.0280856143 0.301645992
O 2.2478017139 -1.584048462 1.4663385038
C 1.1151619427 2.0681703461 0.6080964719
C 5.1366766144 -0.9625644735 0.9916501071
C 6.5525075258 -1.2570056379 0.3628795801
C 6.7997415015 0.0778779413 -0.4340894122
C 5.5407608013 0.934926927 -0.0079082331
O 5.2314776815 0.4691170194 1.3632740885
H 4.3491686888 -1.752486054 -0.9391540379
H 4.4589275017 0.3925062004 -1.9069753912
H 4.8520823742 -1.5733302101 1.8705294622
H 7.3043526823 -1.3956842375 1.1562338685
H 6.5501805288 -2.1492833772 -0.2833510851
H 7.7302437334 0.5747108662 -0.1174206493
H 6.8376535291 -0.0800105404 -1.5239294295
H 5.6914394204 2.0320421122 -0.0245398144
O -2.1561130901 -1.557159958 0.9074971974
C -2.1420334461 3.6919819736 -0.3111322052
C -5.215199946 0.4416755771 0.8234160676
C -6.6591023785 0.2111445677 0.2293156724
C -6.5076153177 -1.2494819987 -0.3399446587
C -5.0594681457 -1.6346982204 0.1654947291
O -4.8983353896 -0.8704798367 1.4255963927
H -4.7678514307 1.0414439859 -1.261041463
H -4.0831247771 -1.1793352623 -1.8382950346
H -1.2984656663 3.4528109367 -0.9903196447
H -5.1280851865 1.2505963234 1.5743263071
H -7.4121171922 0.2526919058 1.0329361793
H -6.9230722928 0.9500182662 -0.5440338015
H -7.2601013453 -1.9323313637 0.0847625248
H -6.5807847415 -1.2851776165 -1.4389809932
H -4.8983439292 -2.7147879941 0.3482899338
H -1.7786755923 3.6395640233 0.7353183858
H -2.5093648967 4.7120955266 -0.5262344328
H 0.0976082261 1.6544983593 0.4290612594
H 1.3027793397 2.9541072423 -0.0312662085
H 1.2138239248 2.352980794 1.6741093002
H -0.0303295498 -0.3465938986 -0.9697916698
H 0.2798104743 -1.1525444686 0.6187438011
H -0.0601368274 -2.9481719148 -1.8653905879
H -0.6088039028 -3.2426785079 -0.1634197623
$end

$rem
JOBTYPE                   OPT
METHOD                    B3LYP
DFT_D                     d3_op
BASIS                     STO-3G
GEOM_OPT_MAX_CYCLES       100
GEOM_OPT_TOL_GRADIENT     300
GEOM_OPT_TOL_DISPLACEMENT 1200
GEOM_OPT_TOL_ENERGY       100
SYMMETRY                  False
THRESH                    12
SCF_CONVERGENCE           8
MAX_SUB_FILE_NUM          128
MEM_STATIC                400
MEM_TOTAL                 4000
$end
--------------------------------------------------------------

   16   -1510.2792731818      5.43E-09 Convergence criterion met
 Total energy in the final basis set = -1510.27927318
   14   -1510.2785540579      6.50E-09 Convergence criterion met
 Total energy in the final basis set = -1510.27855406
   14   -1510.2794084328      5.62E-09 Convergence criterion met
 Total energy in the final basis set = -1510.27940843
   14   -1510.2786072659      2.64E-09 Convergence criterion met
 Total energy in the final basis set = -1510.27860727
   14   -1510.2810709568      2.31E-09 Convergence criterion met
 Total energy in the final basis set = -1510.28107096
   14   -1510.2835319065      5.65E-09 Convergence criterion met
 Total energy in the final basis set = -1510.28353191
   13   -1510.2844634373      4.31E-09 Convergence criterion met
 Total energy in the final basis set = -1510.28446344
   13   -1510.2861456513      3.49E-09 Convergence criterion met
   12   -1510.3018604370      5.82E-09 Convergence criterion met
 Total energy in the final basis set = -1510.30186044
   12   -1510.3018967564      4.80E-09 Convergence criterion met
 Total energy in the final basis set = -1510.30189676
   12   -1510.3019358397      4.03E-09 Convergence criterion met
 Total energy in the final basis set = -1510.30193584
   12   -1510.3019351692      3.02E-09 Convergence criterion met
 Total energy in the final basis set = -1510.30193517
   11   -1510.3019399735      5.23E-09 Convergence criterion met
 Total energy in the final basis set = -1510.30193997
   10   -1510.3019419688      7.04E-09 Convergence criterion met
 Total energy in the final basis set = -1510.30194197

             Standard Nuclear Orientation (Angstroms)
    I     Atom           X                Y                Z
 ----------------------------------------------------------------
    1      O      -1.4467247131     0.5913493641     0.6108550097
    2      C      -2.2830154562     1.2332523548    -0.0718514404
    3      C      -3.5276545327     0.6504504634    -0.8280006161
    4      C      -3.7356185844    -0.9060771592    -0.6411360324
    5      C      -2.6446875460    -1.6466543287     0.2149095209
    6      O      -1.6060445816    -2.0892476578    -0.6746589707
    7      C      -0.6284330304    -2.9198334805     0.0672493931
    8      C       0.4020654067    -2.0613290126     0.8743160058
    9      O       1.3738650062    -1.4369592871    -0.0570240605
   10      C       2.7057882891    -1.5948453672     0.4520052411
   11      C       3.7068262286    -0.9090826236    -0.5435925768
   12      C       3.4056842132     0.6225163504    -0.8208957790
   13      C       2.1739023908     1.1873615588    -0.0393193243
   14      O       1.2718984343     1.9099595186    -0.5274934588
   15      O      -2.2810157924     2.6348546772    -0.2811508256
   16      O       2.2688470143     0.7915485644     1.3225562102
   17      O       2.9969959151    -2.2376270503     1.4841917968
   18      C       1.0891471465     1.2500537907     2.0989775868
   19      C       5.1583646986    -0.8311406660     0.0842552595
   20      C       6.1911693262    -0.5468142129    -1.0738297879
   21      C       5.8931373963     0.9689099549    -1.3773922447
   22      C       4.7655526528     1.2788950727    -0.3139604474
   23      O       5.1349054735     0.4401943918     0.8465124377
   24      H       3.7002646775    -1.4826285319    -1.4889174745
   25      H       3.2352407681     0.8166798158    -1.8941649248
   26      H       5.3972295460    -1.6784998849     0.7560032658
   27      H       7.2224480046    -0.6909715734    -0.7144391802
   28      H       6.0274006549    -1.1969946350    -1.9480379235
   29      H       6.7774494786     1.6003109472    -1.1959470322
   30      H       5.5451825781     1.1360613996    -2.4093144152
   31      H       4.6792535298     2.3417447956    -0.0153875431
   32      O      -2.7126899586    -1.9556222277     1.4241210962
   33      C      -1.1282197144     3.2843264126     0.3934684728
   34      C      -4.8807409749     1.2104904656    -0.2056685818
   35      C      -6.0618967764     0.9022224352    -1.2088743056
   36      C      -6.2695955125    -0.6394993161    -0.9709575960
   37      C      -5.1432264343    -0.9343436166     0.0949823871
   38      O      -5.1276514167     0.2914316847     0.9266594539
   39      H      -3.4374292349     0.9222950028    -1.8954244418
   40      H      -3.7815768875    -1.4057453458    -1.6249058045
   41      H      -0.1646896058     2.7995635872     0.0941359708
   42      H      -4.8144119851     2.2594682589     0.1428035008
   43      H      -6.9595843178     1.4788940330    -0.9350562306
   44      H      -5.7927833439     1.1401631996    -2.2501852578
   45      H      -7.2640012147    -0.8511418037    -0.5466408111
   46      H      -6.1430146239    -1.2353994327    -1.8890344172
   47      H      -5.3037364654    -1.8263397416     0.7309440137
   48      H      -1.2483388500     3.2437776818     1.4948702621
   49      H      -1.1515465699     4.3391265492     0.0650868560
   50      H       0.1325792708     1.0252208047     1.5674958363
   51      H       1.1554774877     2.3387477339     2.2983464906
   52      H       1.1355112343     0.7039797356     3.0586061709
   53      H      -0.1406057575    -1.2642396390     1.4230814413
   54      H       0.9650226865    -2.6906617241     1.5983219163
   55      H      -0.1043216114    -3.5283802913    -0.6972369686
   56      H      -1.1592236156    -3.5885492420     0.7793792843
 ----------------------------------------------------------------

    9   -1510.3019427351      6.32E-09 Convergence criterion met
 Total energy in the final basis set = -1510.30194274
 Final energy is   -1510.30194273513
 **  OPTIMIZATION CONVERGED  **

                    Orbital Energies (a.u.)
 --------------------------------------------------------------

 Alpha MOs
 -- Occupied --
-18.940 -18.939 -18.925 -18.923 -18.888 -18.886 -18.886 -18.880
-18.872 -18.863 -10.108 -10.106 -10.097 -10.092 -10.067 -10.061
-10.059 -10.057 -10.057 -10.057 -10.046 -10.043 -10.039 -10.039
-10.037 -10.033 -10.021 -10.020 -10.020 -10.019  -1.017  -1.015
 -1.005  -1.000  -0.970  -0.970  -0.942  -0.939  -0.933  -0.925
 -0.764  -0.762  -0.726  -0.722  -0.711  -0.705  -0.694  -0.660
 -0.651  -0.614  -0.596  -0.579  -0.546  -0.543  -0.538  -0.534
 -0.512  -0.511  -0.482  -0.469  -0.468  -0.452  -0.451  -0.441
 -0.433  -0.432  -0.426  -0.425  -0.412  -0.410  -0.404  -0.399
 -0.381  -0.376  -0.373  -0.366  -0.361  -0.360  -0.353  -0.350
 -0.341  -0.334  -0.333  -0.331  -0.325  -0.324  -0.322  -0.311
 -0.309  -0.306  -0.305  -0.300  -0.295  -0.293  -0.277  -0.273
 -0.270  -0.258  -0.252  -0.242  -0.235  -0.234  -0.234  -0.183
 -0.179  -0.177  -0.161  -0.159  -0.157  -0.150  -0.144  -0.144
 -0.143

          Ground-State Mulliken Net Atomic Charges

     Atom                 Charge (a.u.)
  ----------------------------------------
      1 O                    -0.214095
      2 C                     0.223499
      3 C                    -0.077058
      4 C                    -0.081666
      5 C                     0.213526
      6 O                    -0.174123
      7 C                    -0.048905
      8 C                    -0.059561
      9 O                    -0.177769
     10 C                     0.216675
     11 C                    -0.077878
     12 C                    -0.078156
     13 C                     0.223486
     14 O                    -0.218219
     15 O                    -0.168201
     16 O                    -0.163912
     17 O                    -0.214726
     18 C                    -0.145315
     19 C                     0.024657
     20 C                    -0.144075
     21 C                    -0.143744
     22 C                     0.025797
     23 O                    -0.185730
     24 H                     0.084303
     25 H                     0.085986
     26 H                     0.091349
     27 H                     0.078392
     28 H                     0.073137
     29 H                     0.078143
     30 H                     0.073700
     31 H                     0.082105
     32 O                    -0.218792
     33 C                    -0.149777
     34 C                     0.024978
     35 C                    -0.143964
     36 C                    -0.144070
     37 C                     0.025476
     38 O                    -0.189307
     39 H                     0.087973
     40 H                     0.084471
     41 H                     0.120871
     42 H                     0.087243
     43 H                     0.078126
     44 H                     0.073826
     45 H                     0.077948
     46 H                     0.073260
     47 H                     0.087417
     48 H                     0.077162
     49 H                     0.083668
     50 H                     0.115533
     51 H                     0.077930
     52 H                     0.088824
     53 H                     0.099993
     54 H                     0.099514
     55 H                     0.087922
     56 H                     0.092154
  ----------------------------------------
  Sum of atomic charges =    -0.000000

                    Cartesian Multipole Moments
 -----------------------------------------------------------------
    Charge (ESU x 10^10)
                -0.0000
    Dipole Moment (Debye)
         X      -0.0346      Y       0.4730      Z      -3.3014
       Tot       3.3352
    Quadrupole Moments (Debye-Ang)
        XX    -151.2658     XY       1.4054     YY    -153.3291
        XZ      -1.3420     YZ       5.6379     ZZ    -162.9339

 Total job time:  137.81s(wall), 6574.11s(cpu)
        *  Thank you very much for using Q-Chem.  Have a nice day.  *
