 Q-Chem 5.0, Q-Chem, Inc., Pleasanton, CA (2017)
 Q-Chem 5.0.1 for Intel X86 EM64T Linux

User input:
--------------------------------------------------------------
$molecule
0  1
O -3.94934 -3.66094 2.70899
C -3.26408 -4.56952 2.26188
C -3.36658 -6.02376 2.66595
C -3.85957 -6.32399 4.09097
C -4.36389 -5.14454 4.89263
O -3.66101 -5.0418 6.05917
C -4.0824 -3.9441 6.87571
C -3.75868 -2.62222 6.18724
O -3.32939 -1.65625 7.15961
C -4.04718 -0.50619 7.19531
C -3.31317 0.6246 7.8759
C -2.06015 1.11941 7.13875
C -1.9254 0.67832 5.69515
O -1.00218 0.96912 4.94838
O -2.31956 -4.28293 1.32774
O -2.96029 0.06888 5.05659
O -5.18444 -0.39511 6.75151
C -2.97564 -0.30999 3.72854
C -4.10599 1.94952 7.96343
C -3.56481 2.79549 9.11561
C -2.21793 3.20864 8.5567
C -2.32059 2.63226 7.14007
O -3.69471 2.69203 6.84104
H -3.09294 0.28207 8.91241
H -1.12966 0.80233 7.65845
H -5.2019 1.80639 8.08294
H -4.21287 3.69905 9.18154
H -3.53389 2.29792 10.1087
H -2.17303 4.32008 8.53443
H -1.33483 2.79987 9.09424
H -1.64563 3.17857 6.44463
O -5.37861 -4.5074 4.62612
C -2.09001 -3.02713 0.80739
C -4.47866 -6.73053 1.85893
C -4.22674 -8.23797 1.83039
C -4.56486 -8.60693 3.25961
C -5.04693 -7.25138 3.78758
O -5.62759 -6.63567 2.66493
H -2.39939 -6.51633 2.41541
H -3.06477 -6.8429 4.675
H -1.77767 -2.33083 1.61121
H -4.57805 -6.34251 0.82094
H -4.99502 -8.68505 1.15934
H -3.21658 -8.54647 1.48512
H -5.4018 -9.34006 3.24497
H -3.71937 -9.0069 3.8602
H -5.71039 -7.38937 4.67012
H -3.00734 -2.64473 0.31062
H -1.27609 -3.08843 0.05632
H -3.95047 -0.78467 3.49543
H -2.16481 -1.04314 3.53971
H -2.84515 0.57736 3.07326
H -2.85904 -2.78565 5.55463
H -4.57078 -2.30618 5.49666
H -3.44545 -4.01329 7.78365
H -5.14054 -4.00711 7.21318
$end

$opt
CONSTRAINT
tors           1           2           3           4     -28.421
tors           3           4           5           6    -123.158
tors           4           5           6           7    -180.000
tors           5           6           7           8     -66.316
tors           6           7           8           9    -142.105
tors           7           8           9          10    -123.158
tors           8           9          10          11    -161.053
tors           9          10          11          12     +66.316
tors          11          12          13          14    -180.000
ENDCONSTRAINT
$end

$rem
JOBTYPE                   OPT
METHOD                    B3LYP
DFT_D                     d3_op
BASIS                     STO-3G
GEOM_OPT_MAX_CYCLES       100
GEOM_OPT_TOL_GRADIENT     300
GEOM_OPT_TOL_DISPLACEMENT 1200
GEOM_OPT_TOL_ENERGY       100
SYMMETRY                  False
THRESH                    12
SCF_CONVERGENCE           8
MAX_SUB_FILE_NUM          128
MEM_STATIC                400
MEM_TOTAL                 4000
$end
--------------------------------------------------------------

   15   -1510.1440082903      7.76E-09 Convergence criterion met
 Total energy in the final basis set = -1510.14400829
   13   -1510.2158531173      4.71E-09 Convergence criterion met
 Total energy in the final basis set = -1510.21585312
   14   -1510.2541323556      1.78E-09 Convergence criterion met
 Total energy in the final basis set = -1510.25413236
   14   -1510.2691242955      7.58E-09 Convergence criterion met
 Total energy in the final basis set = -1510.26912430
   14   -1510.2729789050      5.64E-09 Convergence criterion met
 Total energy in the final basis set = -1510.27297890
   13   -1510.2751303199      4.46E-09 Convergence criterion met
 Total energy in the final basis set = -1510.27513032
   13   -1510.2761564144      8.43E-09 Convergence criterion met
 Total energy in the final basis set = -1510.27615641
   12   -1510.2769236667      8.36E-09 Convergence criterion met
   10   -1510.2793341764      5.71E-09 Convergence criterion met
 Total energy in the final basis set = -1510.27933418
    9   -1510.2793388483      8.62E-09 Convergence criterion met
 Total energy in the final basis set = -1510.27933885
    9   -1510.2793425332      9.68E-09 Convergence criterion met
 Total energy in the final basis set = -1510.27934253
    9   -1510.2793459561      8.09E-09 Convergence criterion met
 Total energy in the final basis set = -1510.27934596
    9   -1510.2793506439      9.17E-09 Convergence criterion met
 Total energy in the final basis set = -1510.27935064
    9   -1510.2793520779      5.75E-09 Convergence criterion met
 Total energy in the final basis set = -1510.27935208

             Standard Nuclear Orientation (Angstroms)
    I     Atom           X                Y                Z
 ----------------------------------------------------------------
    1      O      -1.8172450218     1.1020188523     0.2238218928
    2      C      -2.9463273401     1.4417675604    -0.1974795324
    3      C      -4.2258990386     0.5645334813    -0.4246707386
    4      C      -3.9590887416    -0.9591083210    -0.7640152763
    5      C      -2.5582806125    -1.4699604639    -0.2718162618
    6      O      -1.8439942766    -1.9902376299    -1.4035120583
    7      C      -0.5118010392    -2.4818762552    -0.9663450463
    8      C       0.3650764934    -1.2631830590    -0.4813367354
    9      O       1.7846409136    -1.3971229298    -0.8668156235
   10      C       2.6238716943    -1.3355408666     0.3021549064
   11      C       4.0728710044    -0.9921882500    -0.1852255758
   12      C       4.2606112248     0.4490418015    -0.8215399712
   13      C       3.1275631397     1.5182417104    -0.5887410051
   14      O       3.1504372947     2.6887505896    -1.0337314514
   15      O      -3.2940542181     2.7875016749    -0.5363635072
   16      O       2.1276200495     1.0280856143     0.3016459920
   17      O       2.2478017139    -1.5840484620     1.4663385038
   18      C       1.1151619427     2.0681703461     0.6080964719
   19      C       5.1366766144    -0.9625644735     0.9916501071
   20      C       6.5525075258    -1.2570056379     0.3628795801
   21      C       6.7997415015     0.0778779413    -0.4340894122
   22      C       5.5407608013     0.9349269270    -0.0079082331
   23      O       5.2314776815     0.4691170194     1.3632740885
   24      H       4.3491686888    -1.7524860540    -0.9391540379
   25      H       4.4589275017     0.3925062004    -1.9069753912
   26      H       4.8520823742    -1.5733302101     1.8705294622
   27      H       7.3043526823    -1.3956842375     1.1562338685
   28      H       6.5501805288    -2.1492833772    -0.2833510851
   29      H       7.7302437334     0.5747108662    -0.1174206493
   30      H       6.8376535291    -0.0800105404    -1.5239294295
   31      H       5.6914394204     2.0320421122    -0.0245398144
   32      O      -2.1561130901    -1.5571599580     0.9074971974
   33      C      -2.1420334461     3.6919819736    -0.3111322052
   34      C      -5.2151999460     0.4416755771     0.8234160676
   35      C      -6.6591023785     0.2111445677     0.2293156724
   36      C      -6.5076153177    -1.2494819987    -0.3399446587
   37      C      -5.0594681457    -1.6346982204     0.1654947291
   38      O      -4.8983353896    -0.8704798367     1.4255963927
   39      H      -4.7678514307     1.0414439859    -1.2610414630
   40      H      -4.0831247771    -1.1793352623    -1.8382950346
   41      H      -1.2984656663     3.4528109367    -0.9903196447
   42      H      -5.1280851865     1.2505963234     1.5743263071
   43      H      -7.4121171922     0.2526919058     1.0329361793
   44      H      -6.9230722928     0.9500182662    -0.5440338015
   45      H      -7.2601013453    -1.9323313637     0.0847625248
   46      H      -6.5807847415    -1.2851776165    -1.4389809932
   47      H      -4.8983439292    -2.7147879941     0.3482899338
   48      H      -1.7786755923     3.6395640233     0.7353183858
   49      H      -2.5093648967     4.7120955266    -0.5262344328
   50      H       0.0976082261     1.6544983593     0.4290612594
   51      H       1.3027793397     2.9541072423    -0.0312662085
   52      H       1.2138239248     2.3529807940     1.6741093002
   53      H      -0.0303295498    -0.3465938986    -0.9697916698
   54      H       0.2798104743    -1.1525444686     0.6187438011
   55      H      -0.0601368274    -2.9481719148    -1.8653905879
   56      H      -0.6088039028    -3.2426785079    -0.1634197623
 ----------------------------------------------------------------

    9   -1510.2793527233      2.74E-09 Convergence criterion met
 Total energy in the final basis set = -1510.27935272
 Final energy is   -1510.27935272332
 **  OPTIMIZATION CONVERGED  **

                    Orbital Energies (a.u.)
 --------------------------------------------------------------

 Alpha MOs
 -- Occupied --
-18.947 -18.933 -18.927 -18.913 -18.893 -18.891 -18.882 -18.870
-18.867 -18.865 -10.112 -10.097 -10.094 -10.093 -10.073 -10.066
-10.064 -10.063 -10.056 -10.053 -10.052 -10.044 -10.043 -10.040
-10.036 -10.031 -10.024 -10.023 -10.018 -10.016  -1.023  -1.009
 -1.006  -0.995  -0.975  -0.966  -0.948  -0.931  -0.930  -0.924
 -0.767  -0.758  -0.727  -0.720  -0.713  -0.702  -0.689  -0.672
 -0.651  -0.615  -0.596  -0.579  -0.550  -0.541  -0.539  -0.533
 -0.517  -0.505  -0.479  -0.473  -0.467  -0.457  -0.452  -0.439
 -0.438  -0.431  -0.422  -0.419  -0.415  -0.409  -0.405  -0.394
 -0.383  -0.380  -0.377  -0.369  -0.360  -0.357  -0.350  -0.347
 -0.339  -0.338  -0.334  -0.333  -0.330  -0.326  -0.317  -0.316
 -0.309  -0.306  -0.305  -0.303  -0.295  -0.289  -0.282  -0.276
 -0.267  -0.263  -0.248  -0.238  -0.237  -0.231  -0.230  -0.190
 -0.178  -0.173  -0.161  -0.156  -0.153  -0.151  -0.144  -0.141
 -0.140

          Ground-State Mulliken Net Atomic Charges

     Atom                 Charge (a.u.)
  ----------------------------------------
      1 O                    -0.211461
      2 C                     0.213108
      3 C                    -0.079975
      4 C                    -0.079936
      5 C                     0.208343
      6 O                    -0.174906
      7 C                    -0.051627
      8 C                    -0.055242
      9 O                    -0.184160
     10 C                     0.224515
     11 C                    -0.080400
     12 C                    -0.075706
     13 C                     0.212323
     14 O                    -0.221473
     15 O                    -0.167655
     16 O                    -0.168310
     17 O                    -0.212411
     18 C                    -0.146284
     19 C                     0.023812
     20 C                    -0.142967
     21 C                    -0.144845
     22 C                     0.024469
     23 O                    -0.190586
     24 H                     0.082786
     25 H                     0.085696
     26 H                     0.090367
     27 H                     0.077560
     28 H                     0.072664
     29 H                     0.077867
     30 H                     0.073159
     31 H                     0.085023
     32 O                    -0.203819
     33 C                    -0.129673
     34 C                     0.027158
     35 C                    -0.141533
     36 C                    -0.145405
     37 C                     0.026726
     38 O                    -0.181866
     39 H                     0.086825
     40 H                     0.086799
     41 H                     0.089868
     42 H                     0.085595
     43 H                     0.079227
     44 H                     0.074738
     45 H                     0.079312
     46 H                     0.074280
     47 H                     0.084710
     48 H                     0.091700
     49 H                     0.093792
     50 H                     0.106921
     51 H                     0.093131
     52 H                     0.084519
     53 H                     0.083820
     54 H                     0.110193
     55 H                     0.089427
     56 H                     0.089807
  ----------------------------------------
  Sum of atomic charges =    -0.000000

                    Cartesian Multipole Moments
 -----------------------------------------------------------------
    Charge (ESU x 10^10)
                -0.0000
    Dipole Moment (Debye)
         X      -1.8763      Y       0.4669      Z      -3.1159
       Tot       3.6670
    Quadrupole Moments (Debye-Ang)
        XX    -137.6400     XY      -8.5631     YY    -153.9005
        XZ       0.1294     YZ       5.9142     ZZ    -167.3608

 Total job time:  76.32s(wall), 3634.14s(cpu)
        *  Thank you very much for using Q-Chem.  Have a nice day.  *
