 Q-Chem 5.0, Q-Chem, Inc., Pleasanton, CA (2017)
 Q-Chem 5.0.1 for Intel X86 EM64T Linux

User input:
--------------------------------------------------------------
$molecule
0  1
O 1.8755534232 -0.4811966988 -1.7506315288
C 3.0794624881 -0.786768074 -1.6222654407
C 4.2129013863 -0.1256154569 -0.7679362181
C 3.9229794794 1.2613876037 -0.0797475499
C 2.465238667 1.5123629695 0.4724607593
O 1.8275023842 0.2843382456 0.854230809
C 0.3865284632 0.3021087745 0.5053984692
C -0.4313816753 -0.4212635956 1.6497247436
O -1.2408203382 -1.5516978776 1.1448288985
C -2.2755759152 -0.991229052 0.2754569202
C -3.5545580218 -0.5174640519 1.0592280976
C -4.2175799015 0.8164842546 0.5053988372
C -3.5479958151 1.3418575453 -0.8144671846
O -3.7952854352 1.0051549586 -1.990916202
O 3.6792438747 -1.9022830883 -2.2953282177
O -2.47374164 2.216512938 -0.4372216136
O -2.1616219112 -1.0448820316 -0.9661904518
C -1.7119805435 2.6291640167 -1.6392881189
C -4.7600901611 -1.5466588324 0.8919978455
C -5.7869970471 -1.2781339227 2.0604439488
C -6.4387273982 0.0725267078 1.5822945594
C -5.6915477898 0.306650046 0.2092717617
O -5.4707352913 -1.0639140568 -0.3101818521
H -3.2840539175 -0.4091502325 2.1235777691
H -4.1874361953 1.6170418018 1.2655706613
H -4.4515058674 -2.6026077283 0.7655435993
H -6.5306812395 -2.0897223011 2.1098234923
H -5.2918401398 -1.1919296395 3.0409030767
H -7.5224941399 -0.0366069672 1.4182745235
H -6.2705507551 0.8993042073 2.2908356918
H -6.2426333284 0.9127266386 -0.5353950438
O 1.9090553948 2.6328243686 0.5194735666
C 2.6635516998 -2.6035029904 -3.1150338331
C 4.8314425911 -0.9719363792 0.4404082204
C 6.3770892611 -0.6629319471 0.4334467864
C 6.3550368517 0.8619950004 0.8297912133
C 4.8340138129 1.0675248278 1.2197151998
O 4.385707399 -0.2749075881 1.66717814
H 5.0292520708 0.0414801393 -1.4956255908
H 4.2164035695 2.1242820941 -0.7023042871
H 2.2398719355 -1.9398816923 -3.8962503253
H 4.5455969978 -2.041214632 0.4637837111
H 6.8912999072 -1.2680336089 1.1976700755
H 6.8458902962 -0.8494856953 -0.5457924612
H 7.0088205973 1.0715994083 1.6908525653
H 6.6520172839 1.5175963468 -0.0047914652
H 4.6534764306 1.8195626754 2.0123346872
H 1.8302343101 -2.9878017081 -2.4920530487
H 3.1897208863 -3.4496694309 -3.5938827791
H -0.8497813414 3.2144374448 -1.2691092305
H -2.3254254336 3.2592695626 -2.3153607514
H -1.3501882904 1.748979544 -2.2089865933
H 0.2872904929 -0.8678045088 2.3687250069
H -1.0571849501 0.3187832171 2.1968377488
H 0.2709746095 -0.2487907198 -0.4539691229
H 0.0327198405 1.3457720724 0.3717232606
$end

$rem
JOBTYPE                   OPT
METHOD                    B3LYP
DFT_D                     d3_op
BASIS                     STO-3G
GEOM_OPT_MAX_CYCLES       100
GEOM_OPT_TOL_GRADIENT     300
GEOM_OPT_TOL_DISPLACEMENT 1200
GEOM_OPT_TOL_ENERGY       100
SYMMETRY                  False
THRESH                    12
SCF_CONVERGENCE           8
MAX_SUB_FILE_NUM          128
MEM_STATIC                400
MEM_TOTAL                 4000
$end
--------------------------------------------------------------

   16   -1510.2456200745      3.15E-09 Convergence criterion met
 Total energy in the final basis set = -1510.24562007
   14   -1510.2509826507      2.95E-09 Convergence criterion met
 Total energy in the final basis set = -1510.25098265
   14   -1510.2562656992      2.19E-09 Convergence criterion met
 Total energy in the final basis set = -1510.25626570
   13   -1510.2601246421      7.73E-09 Convergence criterion met
 Total energy in the final basis set = -1510.26012464
   13   -1510.2617796753      5.93E-09 Convergence criterion met
 Total energy in the final basis set = -1510.26177968
   13   -1510.2642012201      7.25E-09 Convergence criterion met
 Total energy in the final basis set = -1510.26420122
   14   -1510.2651119841      5.33E-09 Convergence criterion met
 Total energy in the final basis set = -1510.26511198
   13   -1510.2677098851      3.58E-09 Convergence criterion met
   12   -1510.2800272701      7.20E-09 Convergence criterion met
 Total energy in the final basis set = -1510.28002727
   12   -1510.2800565522      5.53E-09 Convergence criterion met
 Total energy in the final basis set = -1510.28005655
   12   -1510.2800454890      6.28E-09 Convergence criterion met
 Total energy in the final basis set = -1510.28004549
   12   -1510.2801137250      2.87E-09 Convergence criterion met
 Total energy in the final basis set = -1510.28011372
   12   -1510.2801037541      3.74E-09 Convergence criterion met
 Total energy in the final basis set = -1510.28010375
   11   -1510.2801207381      7.28E-09 Convergence criterion met
 Total energy in the final basis set = -1510.28012074

             Standard Nuclear Orientation (Angstroms)
    I     Atom           X                Y                Z
 ----------------------------------------------------------------
    1      O      -2.7946185156    -2.1857747240     1.0938976069
    2      C      -3.8708292750    -1.7834311742     0.5972415942
    3      C      -4.3447054183    -0.3000247597     0.4303746008
    4      C      -3.2054056677     0.7570837641     0.7386860211
    5      C      -1.8223105510     0.1182460437     1.1354983203
    6      O      -1.1591426458    -0.3204944022    -0.0500318993
    7      C       0.1145181401    -0.9934954310     0.3066174203
    8      C       0.7525457549    -1.5431494559    -1.0158395872
    9      O       2.0368283943    -2.2136203368    -0.7087178878
   10      C       3.0360897972    -1.3251911920    -0.1551107255
   11      C       3.2989845776     0.0607891687    -0.8664894841
   12      C       3.5926890027     1.2387885927     0.1562407404
   13      C       3.3251733481     0.8753879030     1.6606621259
   14      O       4.1411634717     0.7970335785     2.6001497099
   15      O      -4.8881558197    -2.6482942965     0.0905685942
   16      O       1.9065841926     0.7084441320     1.8043820933
   17      O       3.7596621300    -1.7575790197     0.7689521344
   18      C       1.5195261128     0.3334829664     3.1845027292
   19      C       4.7016483516    -0.0146246822    -1.6167375418
   20      C       4.8561653433     1.2660610479    -2.5314992709
   21      C       5.2197051465     2.3648710327    -1.4647784516
   22      C       5.1250266947     1.5276032085    -0.1308076484
   23      O       5.6709220322     0.2069696160    -0.5227033071
   24      H       2.4849654223     0.3223923561    -1.5595875447
   25      H       2.9666240297     2.1160807555    -0.0895846150
   26      H       4.8990455941    -0.9799132045    -2.1225537741
   27      H       5.6699127588     1.1222361279    -3.2596555409
   28      H       3.9283567938     1.4960387764    -3.0795237714
   29      H       6.2449960469     2.7411584904    -1.6089397313
   30      H       4.5239407383     3.2189777872    -1.4758966928
   31      H       5.6792963709     1.9317208533     0.7383990733
   32      O      -1.3404418417     0.0835883221     2.2922300927
   33      C      -4.4681567970    -4.0629242251     0.2278150330
   34      C      -4.6958734119     0.0535333599    -1.0796506789
   35      C      -5.5359728276     1.3900203813    -1.0941386755
   36      C      -4.4203664766     2.4504818657    -0.7670584492
   37      C      -3.1432393895     1.5270683640    -0.6493108288
   38      O      -3.3909744458     0.4602020917    -1.6473003098
   39      H      -5.2233345405    -0.1490141780     1.0844270546
   40      H      -3.5053665585     1.4256591313     1.5646017148
   41      H      -4.3267456178    -4.3448731628     1.2912168713
   42      H      -5.1296901848    -0.7906051763    -1.6501015321
   43      H      -5.9710542512     1.5566624658    -2.0923884360
   44      H      -6.3498508011     1.3810275407    -0.3513259973
   45      H      -4.2975210645     3.1736777597    -1.5887819279
   46      H      -4.6186292337     3.0041835477     0.1645577984
   47      H      -2.1780474442     2.0292867455    -0.8524665595
   48      H      -3.5235300402    -4.2614192992    -0.3183948412
   49      H      -5.2845673764    -4.6661767729    -0.2100047111
   50      H       0.4222755589     0.1570926272     3.1178937542
   51      H       1.7454217498     1.1512452938     3.8972889423
   52      H       2.0462318912    -0.5852267430     3.5116074050
   53      H       0.1126248336    -2.3331206946    -1.4588138674
   54      H       0.8529688602    -0.7253552417    -1.7618747778
   55      H      -0.0815912759    -1.8363876022     1.0029897764
   56      H       0.8231628152    -0.2769766119     0.7996615715
 ----------------------------------------------------------------

    9   -1510.2801197421      5.87E-09 Convergence criterion met
 Total energy in the final basis set = -1510.28011974
 Final energy is   -1510.28011974212
 **  OPTIMIZATION CONVERGED  **

                    Orbital Energies (a.u.)
 --------------------------------------------------------------

 Alpha MOs
 -- Occupied --
-18.946 -18.935 -18.925 -18.919 -18.891 -18.888 -18.888 -18.881
-18.881 -18.866 -10.109 -10.101 -10.098 -10.098 -10.072 -10.070
-10.064 -10.063 -10.061 -10.058 -10.046 -10.045 -10.044 -10.038
-10.037 -10.037 -10.024 -10.023 -10.022 -10.020  -1.022  -1.011
 -1.003  -1.000  -0.974  -0.970  -0.946  -0.937  -0.936  -0.928
 -0.766  -0.763  -0.727  -0.722  -0.714  -0.705  -0.693  -0.669
 -0.654  -0.609  -0.600  -0.582  -0.549  -0.546  -0.541  -0.538
 -0.517  -0.510  -0.486  -0.473  -0.469  -0.458  -0.455  -0.445
 -0.438  -0.436  -0.428  -0.418  -0.412  -0.408  -0.402  -0.402
 -0.390  -0.382  -0.379  -0.375  -0.363  -0.360  -0.354  -0.348
 -0.341  -0.337  -0.335  -0.330  -0.328  -0.325  -0.318  -0.317
 -0.309  -0.308  -0.307  -0.305  -0.295  -0.288  -0.284  -0.280
 -0.271  -0.263  -0.256  -0.240  -0.238  -0.235  -0.233  -0.188
 -0.182  -0.168  -0.165  -0.163  -0.153  -0.149  -0.148  -0.145
 -0.141

          Ground-State Mulliken Net Atomic Charges

     Atom                 Charge (a.u.)
  ----------------------------------------
      1 O                    -0.207532
      2 C                     0.214691
      3 C                    -0.078404
      4 C                    -0.081142
      5 C                     0.219992
      6 O                    -0.173966
      7 C                    -0.072353
      8 C                    -0.046279
      9 O                    -0.177783
     10 C                     0.206912
     11 C                    -0.083351
     12 C                    -0.079551
     13 C                     0.216714
     14 O                    -0.199396
     15 O                    -0.169125
     16 O                    -0.178981
     17 O                    -0.188071
     18 C                    -0.141614
     19 C                     0.025933
     20 C                    -0.144499
     21 C                    -0.143552
     22 C                     0.025220
     23 O                    -0.183692
     24 H                     0.078387
     25 H                     0.083344
     26 H                     0.084340
     27 H                     0.078859
     28 H                     0.072292
     29 H                     0.078867
     30 H                     0.072649
     31 H                     0.090876
     32 O                    -0.223514
     33 C                    -0.127985
     34 C                     0.024768
     35 C                    -0.143571
     36 C                    -0.144451
     37 C                     0.026485
     38 O                    -0.188032
     39 H                     0.086942
     40 H                     0.083609
     41 H                     0.091224
     42 H                     0.088199
     43 H                     0.078411
     44 H                     0.074015
     45 H                     0.077700
     46 H                     0.073984
     47 H                     0.084110
     48 H                     0.092047
     49 H                     0.092637
     50 H                     0.117135
     51 H                     0.083230
     52 H                     0.088947
     53 H                     0.091663
     54 H                     0.077229
     55 H                     0.088376
     56 H                     0.107055
  ----------------------------------------
  Sum of atomic charges =     0.000000

                    Cartesian Multipole Moments
 -----------------------------------------------------------------
    Charge (ESU x 10^10)
                 0.0000
    Dipole Moment (Debye)
         X      -4.7324      Y       2.2867      Z      -2.5856
       Tot       5.8574
    Quadrupole Moments (Debye-Ang)
        XX    -161.7668     XY      12.3726     YY    -151.7182
        XZ     -13.2010     YZ       0.9142     ZZ    -162.9769

 Total job time:  84.28s(wall), 4015.05s(cpu)
        *  Thank you very much for using Q-Chem.  Have a nice day.  *
