 Q-Chem 5.0, Q-Chem, Inc., Pleasanton, CA (2017)
 Q-Chem 5.0.1 for Intel X86 EM64T Linux

User input:
--------------------------------------------------------------
$molecule
0  1
O -3.94934 -3.66094 2.70899
C -3.26408 -4.56952 2.26188
C -3.36658 -6.02376 2.66595
C -4.25419 -6.35572 3.87665
C -5.08044 -5.22016 4.4387
O -5.3712 -4.32415 3.44974
C -5.3377 -2.96391 3.89458
C -6.45142 -2.16467 3.22603
O -5.89471 -1.04181 2.52449
C -5.32103 -0.09271 3.30503
C -6.31393 0.9176 3.82855
C -6.06141 1.3871 5.26872
C -4.69289 1.06933 5.83695
O -3.68852 1.75053 5.68938
O -2.40166 -4.29504 1.24846
O -4.57637 -0.14899 6.42694
O -4.12439 0.14098 3.22427
C -3.39891 -0.66178 6.92849
C -6.25875 2.2599 3.07042
C -7.59377 2.9883 3.21801
C -7.54144 3.37414 4.68206
C -6.12107 2.91332 5.03381
O -5.40183 3.06726 3.83479
H -7.34106 0.5063 3.70331
H -6.82954 1.06029 6.00385
H -5.99672 2.14712 1.99548
H -7.52339 3.91409 2.60263
H -8.49527 2.41567 2.911
H -7.63414 4.48039 4.75591
H -8.29719 2.88147 5.33147
H -5.73567 3.48493 5.90743
O -5.11773 -4.98559 5.64127
C -2.20942 -3.03788 0.71453
C -4.03407 -6.86522 1.56735
C -3.67352 -8.34049 1.7447
C -4.52105 -8.69349 2.94884
C -5.21831 -7.35439 3.20268
O -5.39648 -6.82832 1.90909
H -2.3224 -6.36107 2.85247
H -3.71316 -6.84831 4.71578
H -1.84179 -2.34144 1.49838
H -3.77602 -6.52558 0.54028
H -4.0595 -8.9019 0.86413
H -2.58404 -8.52866 1.85759
H -5.27965 -9.44529 2.63523
H -3.96227 -9.06951 3.83287
H -6.14692 -7.51361 3.795
H -3.16087 -2.65356 0.28824
H -1.45325 -3.09776 -0.0948
H -3.59252 -1.66876 7.35166
H -3.0067 -0.00346 7.73289
H -2.64614 -0.75466 6.11666
H -6.99403 -2.80851 2.50085
H -7.22531 -1.79594 3.94294
H -4.44741 -2.43868 4.35806
H -5.82081 -2.97035 4.89923
$end

$opt
CONSTRAINT
tors           1           2           3           4      -9.474
tors           3           4           5           6     +28.421
tors           4           5           6           7    -142.105
tors           5           6           7           8    -142.105
tors           6           7           8           9    -123.158
tors           7           8           9          10     -66.316
tors           8           9          10          11     -85.263
tors           9          10          11          12    +142.105
tors          11          12          13          14     +85.263
ENDCONSTRAINT
$end

$rem
JOBTYPE                   OPT
METHOD                    B3LYP
DFT_D                     d3_op
BASIS                     STO-3G
GEOM_OPT_MAX_CYCLES       100
GEOM_OPT_TOL_GRADIENT     300
GEOM_OPT_TOL_DISPLACEMENT 1200
GEOM_OPT_TOL_ENERGY       100
SYMMETRY                  False
THRESH                    12
SCF_CONVERGENCE           8
MAX_SUB_FILE_NUM          128
MEM_STATIC                400
MEM_TOTAL                 4000
$end
--------------------------------------------------------------

   16   -1509.9660431211      5.51E-09 Convergence criterion met
 Total energy in the final basis set = -1509.96604312
   14   -1510.0604683817      9.63E-09 Convergence criterion met
 Total energy in the final basis set = -1510.06046838
   14   -1510.1251011014      8.81E-09 Convergence criterion met
 Total energy in the final basis set = -1510.12510110
   14   -1510.1662270943      4.53E-09 Convergence criterion met
 Total energy in the final basis set = -1510.16622709
   14   -1510.1917804176      4.09E-09 Convergence criterion met
 Total energy in the final basis set = -1510.19178042
   14   -1510.2082638816      2.61E-09 Convergence criterion met
 Total energy in the final basis set = -1510.20826388
   13   -1510.2198078827      9.14E-09 Convergence criterion met
 Total energy in the final basis set = -1510.21980788
   13   -1510.2282878713      6.76E-09 Convergence criterion met
   11   -1510.2453897021      4.67E-09 Convergence criterion met
 Total energy in the final basis set = -1510.24538970
   11   -1510.2454002397      3.44E-09 Convergence criterion met
 Total energy in the final basis set = -1510.24540024
   11   -1510.2454050245      3.45E-09 Convergence criterion met
 Total energy in the final basis set = -1510.24540502
   11   -1510.2454095603      3.69E-09 Convergence criterion met
 Total energy in the final basis set = -1510.24540956
   11   -1510.2454135474      4.31E-09 Convergence criterion met
 Total energy in the final basis set = -1510.24541355
   11   -1510.2454174272      3.75E-09 Convergence criterion met
 Total energy in the final basis set = -1510.24541743

             Standard Nuclear Orientation (Angstroms)
    I     Atom           X                Y                Z
 ----------------------------------------------------------------
    1      O       1.8755534232    -0.4811966988    -1.7506315288
    2      C       3.0794624881    -0.7867680740    -1.6222654407
    3      C       4.2129013863    -0.1256154569    -0.7679362181
    4      C       3.9229794794     1.2613876037    -0.0797475499
    5      C       2.4652386670     1.5123629695     0.4724607593
    6      O       1.8275023842     0.2843382456     0.8542308090
    7      C       0.3865284632     0.3021087745     0.5053984692
    8      C      -0.4313816753    -0.4212635956     1.6497247436
    9      O      -1.2408203382    -1.5516978776     1.1448288985
   10      C      -2.2755759152    -0.9912290520     0.2754569202
   11      C      -3.5545580218    -0.5174640519     1.0592280976
   12      C      -4.2175799015     0.8164842546     0.5053988372
   13      C      -3.5479958151     1.3418575453    -0.8144671846
   14      O      -3.7952854352     1.0051549586    -1.9909162020
   15      O       3.6792438747    -1.9022830883    -2.2953282177
   16      O      -2.4737416400     2.2165129380    -0.4372216136
   17      O      -2.1616219112    -1.0448820316    -0.9661904518
   18      C      -1.7119805435     2.6291640167    -1.6392881189
   19      C      -4.7600901611    -1.5466588324     0.8919978455
   20      C      -5.7869970471    -1.2781339227     2.0604439488
   21      C      -6.4387273982     0.0725267078     1.5822945594
   22      C      -5.6915477898     0.3066500460     0.2092717617
   23      O      -5.4707352913    -1.0639140568    -0.3101818521
   24      H      -3.2840539175    -0.4091502325     2.1235777691
   25      H      -4.1874361953     1.6170418018     1.2655706613
   26      H      -4.4515058674    -2.6026077283     0.7655435993
   27      H      -6.5306812395    -2.0897223011     2.1098234923
   28      H      -5.2918401398    -1.1919296395     3.0409030767
   29      H      -7.5224941399    -0.0366069672     1.4182745235
   30      H      -6.2705507551     0.8993042073     2.2908356918
   31      H      -6.2426333284     0.9127266386    -0.5353950438
   32      O       1.9090553948     2.6328243686     0.5194735666
   33      C       2.6635516998    -2.6035029904    -3.1150338331
   34      C       4.8314425911    -0.9719363792     0.4404082204
   35      C       6.3770892611    -0.6629319471     0.4334467864
   36      C       6.3550368517     0.8619950004     0.8297912133
   37      C       4.8340138129     1.0675248278     1.2197151998
   38      O       4.3857073990    -0.2749075881     1.6671781400
   39      H       5.0292520708     0.0414801393    -1.4956255908
   40      H       4.2164035695     2.1242820941    -0.7023042871
   41      H       2.2398719355    -1.9398816923    -3.8962503253
   42      H       4.5455969978    -2.0412146320     0.4637837111
   43      H       6.8912999072    -1.2680336089     1.1976700755
   44      H       6.8458902962    -0.8494856953    -0.5457924612
   45      H       7.0088205973     1.0715994083     1.6908525653
   46      H       6.6520172839     1.5175963468    -0.0047914652
   47      H       4.6534764306     1.8195626754     2.0123346872
   48      H       1.8302343101    -2.9878017081    -2.4920530487
   49      H       3.1897208863    -3.4496694309    -3.5938827791
   50      H      -0.8497813414     3.2144374448    -1.2691092305
   51      H      -2.3254254336     3.2592695626    -2.3153607514
   52      H      -1.3501882904     1.7489795440    -2.2089865933
   53      H       0.2872904929    -0.8678045088     2.3687250069
   54      H      -1.0571849501     0.3187832171     2.1968377488
   55      H       0.2709746095    -0.2487907198    -0.4539691229
   56      H       0.0327198405     1.3457720724     0.3717232606
 ----------------------------------------------------------------

   11   -1510.2454177429      2.26E-09 Convergence criterion met
 Total energy in the final basis set = -1510.24541774
 Final energy is   -1510.24541774290
 **  OPTIMIZATION CONVERGED  **

                    Orbital Energies (a.u.)
 --------------------------------------------------------------

 Alpha MOs
 -- Occupied --
-18.934 -18.927 -18.914 -18.903 -18.900 -18.890 -18.889 -18.880
-18.873 -18.873 -10.104 -10.103 -10.097 -10.093 -10.065 -10.063
-10.063 -10.062 -10.061 -10.059 -10.057 -10.052 -10.039 -10.038
-10.038 -10.037 -10.023 -10.022 -10.021 -10.020  -1.014  -1.009
 -1.002  -1.000  -0.972  -0.971  -0.939  -0.936  -0.930  -0.926
 -0.764  -0.763  -0.725  -0.722  -0.708  -0.706  -0.689  -0.662
 -0.658  -0.606  -0.598  -0.581  -0.548  -0.545  -0.539  -0.538
 -0.514  -0.510  -0.486  -0.468  -0.460  -0.453  -0.452  -0.438
 -0.436  -0.432  -0.420  -0.410  -0.409  -0.407  -0.404  -0.397
 -0.392  -0.383  -0.378  -0.371  -0.363  -0.353  -0.348  -0.347
 -0.340  -0.336  -0.335  -0.332  -0.331  -0.326  -0.325  -0.315
 -0.310  -0.307  -0.307  -0.301  -0.297  -0.288  -0.281  -0.276
 -0.272  -0.257  -0.250  -0.239  -0.235  -0.234  -0.233  -0.179
 -0.173  -0.166  -0.160  -0.157  -0.152  -0.147  -0.145  -0.144
 -0.144

          Ground-State Mulliken Net Atomic Charges

     Atom                 Charge (a.u.)
  ----------------------------------------
      1 O                    -0.212941
      2 C                     0.213113
      3 C                    -0.079473
      4 C                    -0.077716
      5 C                     0.215290
      6 O                    -0.177471
      7 C                    -0.061024
      8 C                    -0.051187
      9 O                    -0.192715
     10 C                     0.214603
     11 C                    -0.083280
     12 C                    -0.080214
     13 C                     0.207610
     14 O                    -0.200762
     15 O                    -0.172745
     16 O                    -0.176515
     17 O                    -0.174460
     18 C                    -0.131494
     19 C                     0.026688
     20 C                    -0.142937
     21 C                    -0.144666
     22 C                     0.026367
     23 O                    -0.183082
     24 H                     0.081276
     25 H                     0.084432
     26 H                     0.085592
     27 H                     0.078968
     28 H                     0.073976
     29 H                     0.078603
     30 H                     0.073375
     31 H                     0.086745
     32 O                    -0.212957
     33 C                    -0.129246
     34 C                     0.028363
     35 C                    -0.140668
     36 C                    -0.145999
     37 C                     0.024006
     38 O                    -0.186828
     39 H                     0.084767
     40 H                     0.086002
     41 H                     0.089462
     42 H                     0.087753
     43 H                     0.078178
     44 H                     0.075016
     45 H                     0.078547
     46 H                     0.073627
     47 H                     0.082673
     48 H                     0.092209
     49 H                     0.090314
     50 H                     0.092518
     51 H                     0.086678
     52 H                     0.094709
     53 H                     0.095316
     54 H                     0.074273
     55 H                     0.106733
     56 H                     0.090597
  ----------------------------------------
  Sum of atomic charges =     0.000000

                    Cartesian Multipole Moments
 -----------------------------------------------------------------
    Charge (ESU x 10^10)
                 0.0000
    Dipole Moment (Debye)
         X       1.7718      Y       0.6534      Z       1.2927
       Tot       2.2885
    Quadrupole Moments (Debye-Ang)
        XX    -141.9809     XY      -3.3580     YY    -159.0936
        XZ     -18.4644     YZ      -0.1877     ZZ    -158.5928

 Total job time:  87.73s(wall), 4177.55s(cpu)
        *  Thank you very much for using Q-Chem.  Have a nice day.  *
