 Q-Chem 5.0, Q-Chem, Inc., Pleasanton, CA (2017)
 Q-Chem 5.0.1 for Intel X86 EM64T Linux

User input:
--------------------------------------------------------------
$molecule
0  1
O -2.0416638783 -1.3332249098 2.0460394641
C -3.0347782809 -1.5332576964 1.3158310321
C -4.1828815935 -0.5329067285 0.9308361129
C -3.8459392253 1.0102244169 0.8964644246
C -2.4142554081 1.4501934321 0.3863427354
O -1.5379933106 0.3368015513 0.2245057704
C -0.3964441877 0.6838916047 -0.6570569202
C 0.7232074859 -0.3898500572 -0.3781955059
O 1.4474854303 -0.7845650737 -1.6095020792
C 2.5173113195 0.19281599 -1.8133434488
C 3.9467394683 -0.3633036129 -1.4253330315
C 4.6918689395 0.5257944964 -0.3268882066
C 3.9590202444 1.8745967767 0.0153765984
O 3.7884298265 2.8529109226 -0.7435112972
O -3.322763116 -2.7958607754 0.6968247815
O 3.3673613739 1.7760157878 1.3180452568
O 2.298534448 1.3068692664 -2.3304157763
C 2.5703955895 2.9914673792 1.6041059949
C 3.8443469971 -1.743431182 -0.6595269139
C 5.2788475029 -2.3941363189 -0.5596580267
C 5.9319524263 -1.5279637346 0.5802725152
C 4.7721793539 -0.5003165989 0.8804416291
O 3.5460544125 -1.3189279332 0.7308622379
H 4.5532145605 -0.4297522806 -2.3474031274
H 5.7022128255 0.7864955723 -0.6921022673
H 3.0391183885 -2.3985681287 -1.042807141
H 5.2019742942 -3.4537979449 -0.2693448649
H 5.8291522731 -2.3290854487 -1.51200797
H 6.1431568232 -2.1352172007 1.474990067
H 6.8623640539 -1.0307642204 0.2626936608
H 4.8008007731 -0.0246726996 1.878933825
O -2.1047588627 2.6300717399 0.1060834226
C -2.2651097488 -3.7750540958 1.034409552
C -4.9042949924 -0.7369093217 -0.4773154433
C -6.4258366222 -0.3888669625 -0.2554085264
C -6.3196971939 1.1559269959 0.0328083676
C -4.800850787 1.4375421343 -0.3053944129
O -4.4448680945 0.4006043505 -1.3083410281
H -4.9450701536 -0.6763360067 1.7218965216
H -4.0788740065 1.5178351909 1.8496010538
H -2.1826196269 -3.9304537196 2.1295895472
H -4.6885386529 -1.7048410824 -0.9688063995
H -6.9995464844 -0.5849527032 -1.175852784
H -6.8787131993 -0.954242879 0.574760648
H -6.979240153 1.7422140228 -0.6261873776
H -6.5561128176 1.4070436592 1.0795605767
H -4.583261385 2.4499021747 -0.698112398
H -1.2749024132 -3.4533330131 0.6511014647
H -2.5590363384 -4.7227299614 0.5466712175
H 2.1032571459 2.8231589655 2.5918174633
H 1.7814325025 3.1480844236 0.8401554797
H 3.2062870236 3.8992439433 1.6432154276
H 1.4208498208 -0.058686802 0.4223333111
H 0.2147370853 -1.3118061971 -0.0227757802
H -0.0489444167 1.7209102634 -0.4647570461
H -0.7140904109 0.6136345878 -1.7212311188
$end

$rem
JOBTYPE                   OPT
METHOD                    B3LYP
DFT_D                     d3_op
BASIS                     STO-3G
GEOM_OPT_MAX_CYCLES       100
GEOM_OPT_TOL_GRADIENT     300
GEOM_OPT_TOL_DISPLACEMENT 1200
GEOM_OPT_TOL_ENERGY       100
SYMMETRY                  False
THRESH                    12
SCF_CONVERGENCE           8
MAX_SUB_FILE_NUM          128
MEM_STATIC                400
MEM_TOTAL                 4000
$end
--------------------------------------------------------------

   16   -1510.2470232862      5.51E-09 Convergence criterion met
 Total energy in the final basis set = -1510.24702329
   14   -1510.2506851900      2.91E-09 Convergence criterion met
 Total energy in the final basis set = -1510.25068519
   14   -1510.2536158654      3.67E-09 Convergence criterion met
 Total energy in the final basis set = -1510.25361587
   14   -1510.2566016163      1.81E-09 Convergence criterion met
 Total energy in the final basis set = -1510.25660162
   14   -1510.2598886423      6.41E-09 Convergence criterion met
 Total energy in the final basis set = -1510.25988864
   15   -1510.2573438008      6.10E-09 Convergence criterion met
 Total energy in the final basis set = -1510.25734380
   14   -1510.2631816545      4.78E-09 Convergence criterion met
 Total energy in the final basis set = -1510.26318165
   13   -1510.2656457776      3.10E-09 Convergence criterion met
   12   -1510.2908183967      1.96E-09 Convergence criterion met
 Total energy in the final basis set = -1510.29081840
   11   -1510.2908240024      7.90E-09 Convergence criterion met
 Total energy in the final basis set = -1510.29082400
   12   -1510.2908345923      2.61E-09 Convergence criterion met
 Total energy in the final basis set = -1510.29083459
   11   -1510.2908355262      3.93E-09 Convergence criterion met
 Total energy in the final basis set = -1510.29083553
   11   -1510.2908382251      7.94E-09 Convergence criterion met
 Total energy in the final basis set = -1510.29083823
   11   -1510.2908371841      2.86E-09 Convergence criterion met
 Total energy in the final basis set = -1510.29083718

             Standard Nuclear Orientation (Angstroms)
    I     Atom           X                Y                Z
 ----------------------------------------------------------------
    1      O      -1.3939276688     0.1424837374     1.2150823551
    2      C      -2.5880192899    -0.2300812877     1.3208760530
    3      C      -3.8629776405     0.5898350348     0.9096451834
    4      C      -3.6365408157     1.5435566491    -0.3401206686
    5      C      -2.1951234506     1.4931414991    -0.9552933984
    6      O      -2.0366247533     0.2470242756    -1.6511836518
    7      C      -0.6429299900     0.1115580142    -2.1410501272
    8      C       0.1120361011    -0.8688359480    -1.1663032593
    9      O       1.5782773021    -0.9042465085    -1.3667341810
   10      C       2.1902965532     0.2671429097    -0.8154605377
   11      C       3.7570574020     0.1220609359    -0.8673103177
   12      C       4.4143668404     0.2324730330     0.5767961079
   13      C       3.3809910235     0.4397242241     1.7345010994
   14      O       3.4180708655     1.3169201361     2.6254467804
   15      O      -2.9918296263    -1.4780995257     1.8752420070
   16      O       2.3715900579    -0.5714867504     1.6309259944
   17      O       1.5585337871     1.2552339242    -0.3817750292
   18      C       1.3142969540    -0.3617094377     2.6492801415
   19      C       4.2485099738    -1.3155269707    -1.3150384255
   20      C       5.7843481396    -1.2307726978    -1.6752400058
   21      C       6.4285323261    -1.1357493130    -0.2424563175
   22      C       5.1416575840    -1.1799314648     0.6729255321
   23      O       4.2301690675    -2.0916347988    -0.0523375510
   24      H       4.1514696860     0.9135202780    -1.5308941606
   25      H       5.1387807842     1.0639708785     0.6284688219
   26      H       3.6037208688    -1.7970007809    -2.0739379171
   27      H       6.1075653436    -2.1417273945    -2.2034192667
   28      H       6.0155089956    -0.3565828135    -2.3048241428
   29      H       7.0778027940    -2.0010583278    -0.0337867899
   30      H       7.0128769978    -0.2128342399    -0.0977466858
   31      H       5.3103027132    -1.5404272044     1.7061837918
   32      O      -1.3410719165     2.4055642359    -0.9298913002
   33      C      -1.8171761487    -2.2762528880     2.2990735249
   34      C      -5.0501091882    -0.3248712453     0.3855787493
   35      C      -6.3800779292     0.5254061210     0.4021183372
   36      C      -6.1570905856     1.4621369899    -0.8429537605
   37      C      -4.7376048999     0.9758004385    -1.3393933623
   38      O      -4.7504725306    -0.4772662284    -1.0554686063
   39      H      -4.1742820339     1.1762849958     1.7948653741
   40      H      -3.8385167324     2.5944438437    -0.0683474707
   41      H      -1.3255249509    -1.8277196654     3.1859453160
   42      H      -5.1044015113    -1.3128493205     0.8813361442
   43      H      -7.2548272324    -0.1295277218     0.2626319824
   44      H      -6.5053866639     1.0862657932     1.3421399839
   45      H      -6.9169256615     1.2871359141    -1.6210485946
   46      H      -6.1604183629     2.5315834259    -0.5786662038
   47      H      -4.5227810534     1.1590224035    -2.4097425123
   48      H      -1.0698204344    -2.3698623495     1.4859954423
   49      H      -2.2093387058    -3.2757425936     2.5623058347
   50      H       0.3493102543    -0.1527443906     2.1354865844
   51      H       1.5944662189     0.4898660829     3.3009882576
   52      H       1.2253386293    -1.2856642837     3.2532377262
   53      H      -0.1468521896    -0.5568364800    -0.1287260421
   54      H      -0.2308964900    -1.9093707751    -1.3335736532
   55      H      -0.1544747383     1.1093869644    -2.1202294996
   56      H      -0.6819350476    -0.2865754419    -3.1746851914
 ----------------------------------------------------------------

    9   -1510.2908374582      3.26E-09 Convergence criterion met
 Total energy in the final basis set = -1510.29083746
 Final energy is   -1510.29083745824
 **  OPTIMIZATION CONVERGED  **

                    Orbital Energies (a.u.)
 --------------------------------------------------------------

 Alpha MOs
 -- Occupied --
-18.956 -18.924 -18.922 -18.922 -18.897 -18.890 -18.882 -18.871
-18.866 -18.861 -10.119 -10.093 -10.090 -10.090 -10.077 -10.062
-10.061 -10.056 -10.056 -10.054 -10.052 -10.046 -10.038 -10.038
-10.031 -10.030 -10.023 -10.021 -10.016 -10.015  -1.029  -1.006
 -1.002  -0.995  -0.972  -0.964  -0.954  -0.930  -0.926  -0.924
 -0.766  -0.757  -0.727  -0.719  -0.713  -0.703  -0.685  -0.674
 -0.646  -0.612  -0.596  -0.576  -0.548  -0.540  -0.539  -0.531
 -0.518  -0.505  -0.485  -0.474  -0.471  -0.462  -0.448  -0.436
 -0.436  -0.428  -0.424  -0.419  -0.416  -0.408  -0.404  -0.394
 -0.384  -0.375  -0.372  -0.366  -0.365  -0.349  -0.348  -0.346
 -0.341  -0.336  -0.333  -0.330  -0.325  -0.323  -0.317  -0.314
 -0.308  -0.303  -0.299  -0.298  -0.291  -0.288  -0.284  -0.278
 -0.269  -0.267  -0.247  -0.238  -0.236  -0.233  -0.228  -0.194
 -0.179  -0.173  -0.160  -0.154  -0.150  -0.149  -0.145  -0.141
 -0.136

          Ground-State Mulliken Net Atomic Charges

     Atom                 Charge (a.u.)
  ----------------------------------------
      1 O                    -0.211625
      2 C                     0.222947
      3 C                    -0.076695
      4 C                    -0.079927
      5 C                     0.211216
      6 O                    -0.175730
      7 C                    -0.058908
      8 C                    -0.058305
      9 O                    -0.172491
     10 C                     0.213663
     11 C                    -0.078073
     12 C                    -0.079084
     13 C                     0.212016
     14 O                    -0.213694
     15 O                    -0.163208
     16 O                    -0.171212
     17 O                    -0.213681
     18 C                    -0.148245
     19 C                     0.024057
     20 C                    -0.144648
     21 C                    -0.143801
     22 C                     0.025867
     23 O                    -0.187051
     24 H                     0.082793
     25 H                     0.084515
     26 H                     0.091487
     27 H                     0.076578
     28 H                     0.072431
     29 H                     0.076731
     30 H                     0.073468
     31 H                     0.081618
     32 O                    -0.203982
     33 C                    -0.128632
     34 C                     0.023693
     35 C                    -0.144149
     36 C                    -0.144174
     37 C                     0.026800
     38 O                    -0.186891
     39 H                     0.087674
     40 H                     0.085656
     41 H                     0.090559
     42 H                     0.091772
     43 H                     0.078525
     44 H                     0.073334
     45 H                     0.078322
     46 H                     0.074310
     47 H                     0.085612
     48 H                     0.096799
     49 H                     0.095911
     50 H                     0.102171
     51 H                     0.097332
     52 H                     0.074036
     53 H                     0.102935
     54 H                     0.082042
     55 H                     0.105390
     56 H                     0.081944
  ----------------------------------------
  Sum of atomic charges =    -0.000000

                    Cartesian Multipole Moments
 -----------------------------------------------------------------
    Charge (ESU x 10^10)
                -0.0000
    Dipole Moment (Debye)
         X      -1.7899      Y      -1.3129      Z       0.1612
       Tot       2.2256
    Quadrupole Moments (Debye-Ang)
        XX    -138.3982     XY      -6.0776     YY    -166.0228
        XZ     -11.0733     YZ      -6.5376     ZZ    -154.1885

 Total job time:  144.82s(wall), 6909.98s(cpu)
        *  Thank you very much for using Q-Chem.  Have a nice day.  *
