 Q-Chem 5.0, Q-Chem, Inc., Pleasanton, CA (2017)
 Q-Chem 5.0.1 for Intel X86 EM64T Linux

User input:
--------------------------------------------------------------
$molecule
0  1
O -3.94934 -3.66094 2.70899
C -3.26408 -4.56952 2.26188
C -3.36658 -6.02376 2.66595
C -4.73745 -6.52338 3.15068
C -5.89497 -5.55994 3.00924
O -5.43061 -4.32576 2.65344
C -6.44182 -3.48525 2.08754
C -6.00635 -2.02486 2.1488
O -6.42489 -1.339 0.9583
C -7.6912 -0.85405 0.97939
C -7.74522 0.64139 1.18281
C -8.57055 1.10056 2.39371
C -8.91196 0.02608 3.40645
O -9.64555 -0.93082 3.20458
O -2.19398 -4.23833 1.4909
O -8.34992 0.13214 4.64258
O -8.66494 -1.54998 0.7349
C -8.53236 -0.77423 5.6662
C -6.40543 1.36708 1.46589
C -6.51379 2.82898 1.03592
C -7.45755 3.36483 2.0904
C -7.58916 2.13224 2.99278
O -6.35029 1.47741 2.86652
H -8.16438 1.04697 0.23433
H -9.53657 1.56616 2.09899
H -5.5209 0.90964 0.97346
H -5.51021 3.28617 1.1935
H -6.82988 3.00113 -0.01539
H -6.94911 4.19823 2.6243
H -8.44889 3.69991 1.71542
H -7.87511 2.4514 4.0188
O -7.06853 -5.84855 3.21052
C -1.90374 -2.95631 1.07254
C -3.1902 -6.94758 1.43299
C -2.75368 -8.34271 1.87975
C -4.0397 -8.85794 2.48464
C -4.97577 -7.68679 2.17379
O -4.49359 -7.17184 0.96047
H -2.5289 -6.22996 3.36856
H -4.72477 -6.86202 4.20978
H -1.73543 -2.29519 1.94939
H -2.46623 -6.56416 0.68182
H -2.53729 -8.9316 0.95941
H -1.86674 -8.37001 2.54861
H -4.35464 -9.76523 1.92239
H -3.99879 -9.07987 3.57307
H -6.0326 -8.03442 2.16859
H -2.73865 -2.55787 0.45693
H -0.98175 -2.97462 0.45614
H -7.95845 -0.43969 6.55449
H -8.16375 -1.77641 5.35862
H -9.60811 -0.8352 5.93678
H -6.29682 -1.52151 3.09779
H -4.92435 -1.85975 2.07143
H -7.44762 -3.56546 2.55859
H -6.5259 -3.79307 1.02131
$end

$opt
CONSTRAINT
tors           1           2           3           4     +28.421
tors           3           4           5           6      -9.474
tors           4           5           6           7    +161.053
tors           5           6           7           8    +161.053
tors           6           7           8           9    +142.105
tors           7           8           9          10     +85.263
tors           8           9          10          11    +104.211
tors           9          10          11          12    -123.158
tors          11          12          13          14     -66.316
ENDCONSTRAINT
$end

$rem
JOBTYPE                   OPT
METHOD                    B3LYP
DFT_D                     d3_op
BASIS                     STO-3G
GEOM_OPT_MAX_CYCLES       100
GEOM_OPT_TOL_GRADIENT     300
GEOM_OPT_TOL_DISPLACEMENT 1200
GEOM_OPT_TOL_ENERGY       100
SYMMETRY                  False
THRESH                    12
SCF_CONVERGENCE           8
MAX_SUB_FILE_NUM          128
MEM_STATIC                400
MEM_TOTAL                 4000
$end
--------------------------------------------------------------

   16   -1509.9889113965      5.14E-09 Convergence criterion met
 Total energy in the final basis set = -1509.98891140
   14   -1510.0887111874      4.83E-09 Convergence criterion met
 Total energy in the final basis set = -1510.08871119
   14   -1510.1549995488      5.80E-09 Convergence criterion met
 Total energy in the final basis set = -1510.15499955
   14   -1510.1969066461      5.49E-09 Convergence criterion met
 Total energy in the final basis set = -1510.19690665
   14   -1510.2208724698      4.74E-09 Convergence criterion met
 Total energy in the final basis set = -1510.22087247
   14   -1510.2333512490      3.37E-09 Convergence criterion met
 Total energy in the final basis set = -1510.23335125
   14   -1510.2397783357      2.03E-09 Convergence criterion met
 Total energy in the final basis set = -1510.23977834
   13   -1510.2430111780      4.42E-09 Convergence criterion met
   11   -1510.2469294172      5.55E-09 Convergence criterion met
 Total energy in the final basis set = -1510.24692942
   11   -1510.2469619155      3.98E-09 Convergence criterion met
 Total energy in the final basis set = -1510.24696192
   11   -1510.2469773815      2.89E-09 Convergence criterion met
 Total energy in the final basis set = -1510.24697738
   11   -1510.2469922882      4.52E-09 Convergence criterion met
 Total energy in the final basis set = -1510.24699229
   10   -1510.2469960407      9.59E-09 Convergence criterion met
 Total energy in the final basis set = -1510.24699604
   10   -1510.2469981128      7.28E-09 Convergence criterion met
 Total energy in the final basis set = -1510.24699811

             Standard Nuclear Orientation (Angstroms)
    I     Atom           X                Y                Z
 ----------------------------------------------------------------
    1      O      -2.0416638783    -1.3332249098     2.0460394641
    2      C      -3.0347782809    -1.5332576964     1.3158310321
    3      C      -4.1828815935    -0.5329067285     0.9308361129
    4      C      -3.8459392253     1.0102244169     0.8964644246
    5      C      -2.4142554081     1.4501934321     0.3863427354
    6      O      -1.5379933106     0.3368015513     0.2245057704
    7      C      -0.3964441877     0.6838916047    -0.6570569202
    8      C       0.7232074859    -0.3898500572    -0.3781955059
    9      O       1.4474854303    -0.7845650737    -1.6095020792
   10      C       2.5173113195     0.1928159900    -1.8133434488
   11      C       3.9467394683    -0.3633036129    -1.4253330315
   12      C       4.6918689395     0.5257944964    -0.3268882066
   13      C       3.9590202444     1.8745967767     0.0153765984
   14      O       3.7884298265     2.8529109226    -0.7435112972
   15      O      -3.3227631160    -2.7958607754     0.6968247815
   16      O       3.3673613739     1.7760157878     1.3180452568
   17      O       2.2985344480     1.3068692664    -2.3304157763
   18      C       2.5703955895     2.9914673792     1.6041059949
   19      C       3.8443469971    -1.7434311820    -0.6595269139
   20      C       5.2788475029    -2.3941363189    -0.5596580267
   21      C       5.9319524263    -1.5279637346     0.5802725152
   22      C       4.7721793539    -0.5003165989     0.8804416291
   23      O       3.5460544125    -1.3189279332     0.7308622379
   24      H       4.5532145605    -0.4297522806    -2.3474031274
   25      H       5.7022128255     0.7864955723    -0.6921022673
   26      H       3.0391183885    -2.3985681287    -1.0428071410
   27      H       5.2019742942    -3.4537979449    -0.2693448649
   28      H       5.8291522731    -2.3290854487    -1.5120079700
   29      H       6.1431568232    -2.1352172007     1.4749900670
   30      H       6.8623640539    -1.0307642204     0.2626936608
   31      H       4.8008007731    -0.0246726996     1.8789338250
   32      O      -2.1047588627     2.6300717399     0.1060834226
   33      C      -2.2651097488    -3.7750540958     1.0344095520
   34      C      -4.9042949924    -0.7369093217    -0.4773154433
   35      C      -6.4258366222    -0.3888669625    -0.2554085264
   36      C      -6.3196971939     1.1559269959     0.0328083676
   37      C      -4.8008507870     1.4375421343    -0.3053944129
   38      O      -4.4448680945     0.4006043505    -1.3083410281
   39      H      -4.9450701536    -0.6763360067     1.7218965216
   40      H      -4.0788740065     1.5178351909     1.8496010538
   41      H      -2.1826196269    -3.9304537196     2.1295895472
   42      H      -4.6885386529    -1.7048410824    -0.9688063995
   43      H      -6.9995464844    -0.5849527032    -1.1758527840
   44      H      -6.8787131993    -0.9542428790     0.5747606480
   45      H      -6.9792401530     1.7422140228    -0.6261873776
   46      H      -6.5561128176     1.4070436592     1.0795605767
   47      H      -4.5832613850     2.4499021747    -0.6981123980
   48      H      -1.2749024132    -3.4533330131     0.6511014647
   49      H      -2.5590363384    -4.7227299614     0.5466712175
   50      H       2.1032571459     2.8231589655     2.5918174633
   51      H       1.7814325025     3.1480844236     0.8401554797
   52      H       3.2062870236     3.8992439433     1.6432154276
   53      H       1.4208498208    -0.0586868020     0.4223333111
   54      H       0.2147370853    -1.3118061971    -0.0227757802
   55      H      -0.0489444167     1.7209102634    -0.4647570461
   56      H      -0.7140904109     0.6136345878    -1.7212311188
 ----------------------------------------------------------------

    9   -1510.2469987054      9.81E-09 Convergence criterion met
 Total energy in the final basis set = -1510.24699871
 Final energy is   -1510.24699870541
 **  OPTIMIZATION CONVERGED  **

                    Orbital Energies (a.u.)
 --------------------------------------------------------------

 Alpha MOs
 -- Occupied --
-18.935 -18.930 -18.929 -18.906 -18.900 -18.888 -18.884 -18.878
-18.870 -18.867 -10.107 -10.099 -10.097 -10.096 -10.064 -10.064
-10.063 -10.061 -10.060 -10.059 -10.057 -10.056 -10.041 -10.040
-10.037 -10.034 -10.022 -10.021 -10.020 -10.018  -1.014  -1.010
 -1.006  -1.003  -0.972  -0.968  -0.939  -0.935  -0.933  -0.928
 -0.764  -0.760  -0.724  -0.722  -0.710  -0.704  -0.692  -0.661
 -0.659  -0.607  -0.597  -0.579  -0.547  -0.541  -0.538  -0.535
 -0.516  -0.511  -0.482  -0.477  -0.469  -0.459  -0.444  -0.441
 -0.435  -0.432  -0.420  -0.413  -0.410  -0.407  -0.405  -0.400
 -0.386  -0.379  -0.376  -0.371  -0.367  -0.358  -0.347  -0.345
 -0.341  -0.340  -0.334  -0.331  -0.329  -0.328  -0.314  -0.312
 -0.308  -0.308  -0.305  -0.297  -0.295  -0.290  -0.285  -0.280
 -0.273  -0.256  -0.251  -0.242  -0.238  -0.236  -0.232  -0.179
 -0.173  -0.170  -0.165  -0.158  -0.150  -0.148  -0.147  -0.144
 -0.140

          Ground-State Mulliken Net Atomic Charges

     Atom                 Charge (a.u.)
  ----------------------------------------
      1 O                    -0.209909
      2 C                     0.214683
      3 C                    -0.080621
      4 C                    -0.075460
      5 C                     0.213651
      6 O                    -0.169357
      7 C                    -0.052462
      8 C                    -0.051062
      9 O                    -0.195317
     10 C                     0.215528
     11 C                    -0.080627
     12 C                    -0.080424
     13 C                     0.201813
     14 O                    -0.202861
     15 O                    -0.173732
     16 O                    -0.171404
     17 O                    -0.173502
     18 C                    -0.129209
     19 C                     0.021356
     20 C                    -0.144888
     21 C                    -0.143637
     22 C                     0.023195
     23 O                    -0.193141
     24 H                     0.087461
     25 H                     0.085016
     26 H                     0.092728
     27 H                     0.078230
     28 H                     0.073703
     29 H                     0.078198
     30 H                     0.073459
     31 H                     0.091330
     32 O                    -0.218262
     33 C                    -0.127879
     34 C                     0.023394
     35 C                    -0.141202
     36 C                    -0.146171
     37 C                     0.023072
     38 O                    -0.193737
     39 H                     0.081698
     40 H                     0.085334
     41 H                     0.088336
     42 H                     0.091795
     43 H                     0.077661
     44 H                     0.073120
     45 H                     0.078578
     46 H                     0.073286
     47 H                     0.088003
     48 H                     0.087765
     49 H                     0.089401
     50 H                     0.092344
     51 H                     0.091818
     52 H                     0.089426
     53 H                     0.093122
     54 H                     0.092349
     55 H                     0.092459
     56 H                     0.091548
  ----------------------------------------
  Sum of atomic charges =     0.000000

                    Cartesian Multipole Moments
 -----------------------------------------------------------------
    Charge (ESU x 10^10)
                 0.0000
    Dipole Moment (Debye)
         X       0.3156      Y      -2.3564      Z       1.8202
       Tot       2.9943
    Quadrupole Moments (Debye-Ang)
        XX    -132.4325     XY      -3.7863     YY    -160.0538
        XZ      -3.9335     YZ       7.8404     ZZ    -164.2905

 Total job time:  73.53s(wall), 3499.71s(cpu)
        *  Thank you very much for using Q-Chem.  Have a nice day.  *
