 Q-Chem 5.0, Q-Chem, Inc., Pleasanton, CA (2017)
 Q-Chem 5.0.1 for Intel X86 EM64T Linux

User input:
--------------------------------------------------------------
$molecule
0  1
O -4.3027849724 -2.3995365286 1.5502380462
C -4.4542127311 -1.8237704883 0.452359238
C -4.8204453268 -0.3143315239 0.2059454054
C -4.0087904975 0.7826946388 1.0211787787
C -2.598260022 0.306720306 1.5549457681
O -1.6656261625 1.4001871526 1.4410984989
C -0.2776791211 0.8871554944 1.4900407928
C 0.1770043181 0.438942951 0.0551674167
O 1.6602480849 0.3820067441 0.0628136343
C 2.1279637786 -0.7222556319 -0.7069406943
C 3.6931811237 -0.8389344308 -0.7391007954
C 4.6539064203 0.3940815628 -1.0322877093
C 4.2604414524 1.8754364403 -0.6811389048
O 4.8092101564 2.8837144557 -1.1866025371
O -4.3256804662 -2.4879967652 -0.8123789675
O 3.4543556383 1.9228009564 0.4944525822
O 1.3692109196 -1.543334394 -1.2750123181
C 3.1974228992 3.3258144049 0.8934795766
C 4.3378936808 -1.4339087618 0.6024410541
C 5.5145531968 -2.3835169428 0.1561742331
C 6.5277000764 -1.3240750626 -0.4174844677
C 5.8273607711 0.0348190417 -0.0064331189
O 5.0612426322 -0.2994250252 1.2150443789
H 3.8665117379 -1.5715144358 -1.5481267927
H 4.9997591563 0.3813932049 -2.0811397182
H 3.6135095687 -1.8675422108 1.3187727025
H 5.9341747704 -2.9061471583 1.0310921641
H 5.2009389112 -3.1312132477 -0.5899014312
H 7.5197302812 -1.4078749942 0.0535303893
H 6.6487745899 -1.405258365 -1.5098352413
H 6.5228995658 0.8741193506 0.1891147247
O -2.2669223103 -0.8202659753 1.9769954512
C -3.9925386907 -3.9149302366 -0.5999115154
C -4.6480894318 0.2155594616 -1.285667899
C -5.7353522881 1.334627821 -1.5094876989
C -5.1701608648 2.4731831742 -0.5812586281
C -3.7883238841 1.8546156746 -0.1283223876
O -3.3843012847 0.9877361071 -1.2627478648
H -5.8853418822 -0.2266672126 0.4959127735
H -4.6042132734 1.1720377532 1.8679152364
H -4.7883939201 -4.4412431039 -0.034108303
H -4.606708658 -0.5877532938 -2.0456399099
H -5.7506747841 1.6487793738 -2.5655275438
H -6.7467233648 1.0062299667 -1.2212429253
H -5.0093698388 3.4099880635 -1.137831698
H -5.8265430348 2.6851260477 0.2782383368
H -2.9910667822 2.5851247452 0.1033507178
H -3.0357096083 -4.0321699261 -0.0513165277
H -3.8992522219 -4.3592157311 -1.6080066256
H 2.1309438867 3.5688236697 0.713027444
H 3.844462068 4.0048796292 0.3020498385
H 3.4177646063 3.421331792 1.973805168
H -0.2448351209 -0.5503436127 -0.2223306322
H -0.1601862396 1.1894017326 -0.6932726613
H -0.1966132797 0.0400552197 2.2031178815
H 0.3584529276 1.7279306491 1.8335489038
$end

$rem
JOBTYPE                   OPT
METHOD                    B3LYP
DFT_D                     d3_op
BASIS                     STO-3G
GEOM_OPT_MAX_CYCLES       100
GEOM_OPT_TOL_GRADIENT     300
GEOM_OPT_TOL_DISPLACEMENT 1200
GEOM_OPT_TOL_ENERGY       100
SYMMETRY                  False
THRESH                    12
SCF_CONVERGENCE           8
MAX_SUB_FILE_NUM          128
MEM_STATIC                400
MEM_TOTAL                 4000
$end
--------------------------------------------------------------

   16   -1510.2572498622      7.75E-09 Convergence criterion met
 Total energy in the final basis set = -1510.25724986
   14   -1510.2605084979      6.20E-09 Convergence criterion met
 Total energy in the final basis set = -1510.26050850
   13   -1510.2629646056      5.20E-09 Convergence criterion met
 Total energy in the final basis set = -1510.26296461
   13   -1510.2653730531      5.02E-09 Convergence criterion met
 Total energy in the final basis set = -1510.26537305
   12   -1510.2676012125      9.63E-09 Convergence criterion met
 Total energy in the final basis set = -1510.26760121
   13   -1510.2698260910      2.67E-09 Convergence criterion met
 Total energy in the final basis set = -1510.26982609
   13   -1510.2720612384      2.51E-09 Convergence criterion met
 Total energy in the final basis set = -1510.27206124
   13   -1510.2742510557      4.13E-09 Convergence criterion met
   11   -1510.2888805862      8.27E-09 Convergence criterion met
 Total energy in the final basis set = -1510.28888059
   11   -1510.2889128894      7.14E-09 Convergence criterion met
 Total energy in the final basis set = -1510.28891289
    9   -1510.2889274575      8.88E-09 Convergence criterion met
 Total energy in the final basis set = -1510.28892746
   12   -1510.2889658793      2.68E-09 Convergence criterion met
 Total energy in the final basis set = -1510.28896588
   11   -1510.2889762750      3.30E-09 Convergence criterion met
 Total energy in the final basis set = -1510.28897628
   11   -1510.2889829819      2.32E-09 Convergence criterion met
 Total energy in the final basis set = -1510.28898298

             Standard Nuclear Orientation (Angstroms)
    I     Atom           X                Y                Z
 ----------------------------------------------------------------
    1      O      -3.6728936612    -2.7873806461     0.5524057263
    2      C      -3.6377021068    -1.6465163482     0.0403133135
    3      C      -4.5530208728    -0.4272055084     0.4169986125
    4      C      -3.7782919647     0.8113930681     1.0393786243
    5      C      -2.2384565754     0.5423825916     1.1712096747
    6      O      -1.5090206048     1.7590774103     0.9659789950
    7      C      -0.0545585171     1.4728478064     0.9595553434
    8      C       0.3988170216     0.9540099479    -0.4537630147
    9      O       1.7203555822     0.3054572723    -0.2823433364
   10      C       1.8292928247    -0.8869554878    -1.0623022244
   11      C       3.2469698263    -1.4963608182    -0.8206080346
   12      C       4.4213528619    -0.4268586327    -0.7704285375
   13      C       3.9441340477     1.0333045285    -1.1132735700
   14      O       3.5368435961     1.4281682410    -2.2293021835
   15      O      -2.7889789507    -1.2638013174    -1.0467058242
   16      O       4.1106329966     1.8828508493     0.0289984133
   17      O       0.9166360126    -1.3588115144    -1.7768539574
   18      C       3.6207226785     3.2463255939    -0.2740628112
   19      C       3.3465703529    -2.1089072206     0.6482283415
   20      C       4.6286965382    -3.0282635634     0.7198358515
   21      C       5.7727281604    -1.9495398096     0.7868321168
   22      C       4.9351603567    -0.6123409463     0.7181451339
   23      O       3.7038266392    -0.9372096446     1.4761087144
   24      H       3.4215107445    -2.2639956345    -1.5945670075
   25      H       5.2046910394    -0.6965504429    -1.5024433826
   26      H       2.4105822549    -2.5748782193     1.0135604694
   27      H       4.6030155481    -3.6495550270     1.6290645128
   28      H       4.7156423821    -3.6887934625    -0.1576442915
   29      H       6.3261142257    -2.0083555009     1.7375430224
   30      H       6.4896121780    -2.0361075038    -0.0452146431
   31      H       5.4249677701     0.2838161345     1.1429921640
   32      O      -1.6978656488    -0.5561110026     1.4290087297
   33      C      -1.9172995943    -2.3933723395    -1.4511494188
   34      C      -5.1990513342     0.2539350246    -0.8675731439
   35      C      -6.4012825467     1.1640883077    -0.3943256474
   36      C      -5.6303932891     2.3884617399     0.2242026168
   37      C      -4.1302665117     1.9518206460    -0.0057863766
   38      O      -4.1719895887     1.2299317046    -1.2972275086
   39      H      -5.3270572623    -0.7978382259     1.1117037979
   40      H      -4.1694586010     1.0551762664     2.0451628127
   41      H      -1.9473074738    -3.1864317896    -0.6780477846
   42      H      -5.4325164995    -0.4486621642    -1.6906804434
   43      H      -7.0167300894     1.4671800038    -1.2562028906
   44      H      -7.0458414155     0.6518934822     0.3376672696
   45      H      -5.8475667026     3.3204847334    -0.3216145473
   46      H      -5.8594395997     2.5423862568     1.2908207417
   47      H      -3.3889162902     2.7728433984    -0.0405247901
   48      H      -0.8837799179    -2.0037270408    -1.5812747102
   49      H      -2.2791378000    -2.8093244479    -2.4128241833
   50      H       2.7198666774     3.4540942264     0.3372303327
   51      H       3.3690861160     3.3153449905    -1.3522110223
   52      H       4.4139073833     3.9738115382    -0.0145941218
   53      H      -0.3328369046     0.2196699194    -0.8538156963
   54      H       0.4928182992     1.7926337660    -1.1762504955
   55      H       0.1974400811     0.7006554236     1.7178929795
   56      H       0.4525183603     2.4246410268     1.2120208295
 ----------------------------------------------------------------

    9   -1510.2889831299      2.78E-09 Convergence criterion met
 Total energy in the final basis set = -1510.28898313
 Final energy is   -1510.28898312992
 **  OPTIMIZATION CONVERGED  **

                    Orbital Energies (a.u.)
 --------------------------------------------------------------

 Alpha MOs
 -- Occupied --
-18.946 -18.941 -18.932 -18.914 -18.890 -18.890 -18.885 -18.881
-18.868 -18.858 -10.112 -10.105 -10.101 -10.086 -10.077 -10.073
-10.064 -10.059 -10.058 -10.057 -10.057 -10.043 -10.040 -10.039
-10.031 -10.031 -10.023 -10.021 -10.019 -10.017  -1.024  -1.018
 -1.007  -0.994  -0.972  -0.967  -0.948  -0.942  -0.934  -0.919
 -0.767  -0.760  -0.730  -0.722  -0.713  -0.707  -0.696  -0.659
 -0.642  -0.617  -0.598  -0.582  -0.548  -0.543  -0.539  -0.535
 -0.518  -0.509  -0.487  -0.479  -0.470  -0.463  -0.450  -0.436
 -0.434  -0.431  -0.430  -0.414  -0.411  -0.407  -0.402  -0.398
 -0.392  -0.383  -0.375  -0.369  -0.367  -0.360  -0.347  -0.343
 -0.342  -0.340  -0.333  -0.331  -0.327  -0.323  -0.317  -0.313
 -0.309  -0.306  -0.304  -0.302  -0.296  -0.293  -0.283  -0.279
 -0.271  -0.257  -0.252  -0.247  -0.235  -0.232  -0.231  -0.190
 -0.177  -0.172  -0.167  -0.160  -0.157  -0.154  -0.145  -0.142
 -0.140

          Ground-State Mulliken Net Atomic Charges

     Atom                 Charge (a.u.)
  ----------------------------------------
      1 O                    -0.217938
      2 C                     0.211238
      3 C                    -0.080064
      4 C                    -0.077878
      5 C                     0.214250
      6 O                    -0.170984
      7 C                    -0.048610
      8 C                    -0.053215
      9 O                    -0.166807
     10 C                     0.220490
     11 C                    -0.078332
     12 C                    -0.077799
     13 C                     0.216123
     14 O                    -0.225006
     15 O                    -0.175795
     16 O                    -0.168522
     17 O                    -0.210001
     18 C                    -0.135093
     19 C                     0.025852
     20 C                    -0.143717
     21 C                    -0.144223
     22 C                     0.024947
     23 O                    -0.186304
     24 H                     0.087854
     25 H                     0.084786
     26 H                     0.085306
     27 H                     0.079331
     28 H                     0.074719
     29 H                     0.078333
     30 H                     0.073439
     31 H                     0.092762
     32 O                    -0.210591
     33 C                    -0.148161
     34 C                     0.026630
     35 C                    -0.144285
     36 C                    -0.144127
     37 C                     0.023444
     38 O                    -0.187068
     39 H                     0.083330
     40 H                     0.085409
     41 H                     0.093792
     42 H                     0.084395
     43 H                     0.077478
     44 H                     0.073574
     45 H                     0.077496
     46 H                     0.072573
     47 H                     0.090427
     48 H                     0.103865
     49 H                     0.076626
     50 H                     0.081384
     51 H                     0.101455
     52 H                     0.085209
     53 H                     0.106990
     54 H                     0.089131
     55 H                     0.102559
     56 H                     0.089323
  ----------------------------------------
  Sum of atomic charges =     0.000000

                    Cartesian Multipole Moments
 -----------------------------------------------------------------
    Charge (ESU x 10^10)
                 0.0000
    Dipole Moment (Debye)
         X       1.2819      Y       1.6131      Z       0.9200
       Tot       2.2565
    Quadrupole Moments (Debye-Ang)
        XX    -138.4463     XY     -11.1750     YY    -155.8588
        XZ      -2.6062     YZ       6.2215     ZZ    -167.7186

 Total job time:  200.48s(wall), 9552.23s(cpu)
        *  Thank you very much for using Q-Chem.  Have a nice day.  *
