 Q-Chem 5.0, Q-Chem, Inc., Pleasanton, CA (2017)
 Q-Chem 5.0.1 for Intel X86 EM64T Linux

User input:
--------------------------------------------------------------
$molecule
0  1
O -3.94934 -3.66094 2.70899
C -3.26408 -4.56952 2.26188
C -3.36658 -6.02376 2.66595
C -4.77372 -6.64113 2.71769
C -5.90468 -5.78727 2.1886
O -6.80351 -6.56947 1.52101
C -7.65138 -5.8259 0.63926
C -6.96653 -5.63275 -0.70974
O -7.94126 -5.29733 -1.70988
C -7.54315 -4.38252 -2.62845
C -8.61037 -4.07268 -3.65105
C -9.29685 -5.30244 -4.26319
C -9.08476 -6.6113 -3.5293
O -9.25431 -7.72532 -4.00341
O -2.42376 -4.27858 1.23239
O -9.655 -6.61399 -2.27415
O -6.4056 -3.9368 -2.71554
C -10.22864 -7.67924 -1.58048
C -9.84214 -3.32317 -3.09485
C -10.51381 -2.54565 -4.22671
C -11.0899 -3.68405 -5.04999
C -10.77118 -4.87251 -4.13364
O -10.80151 -4.31951 -2.83891
H -8.14019 -3.4185 -4.42117
H -8.95571 -5.46763 -5.30883
H -9.59876 -2.6467 -2.24686
H -11.3549 -1.97907 -3.76572
H -9.86587 -1.83748 -4.78656
H -12.18726 -3.5277 -5.14443
H -10.63322 -3.82271 -6.05386
H -11.46821 -5.71908 -4.32038
O -6.21197 -4.69797 2.652
C -2.25161 -3.02003 0.69479
C -2.63882 -7.01196 1.73062
C -2.28034 -8.28491 2.49403
C -3.64487 -8.91639 2.64252
C -4.50529 -7.91362 1.86596
O -3.64692 -7.44804 0.85334
H -2.90533 -6.05703 3.67855
H -5.06471 -6.90847 3.75806
H -1.87535 -2.32046 1.47154
H -1.72025 -6.60118 1.2598
H -1.66799 -8.92186 1.81595
H -1.72618 -8.11948 3.44299
H -3.6339 -9.89718 2.11608
H -3.99605 -9.0542 3.68797
H -5.42044 -8.44039 1.52289
H -3.21326 -2.64465 0.28393
H -1.50905 -3.07441 -0.12746
H -9.66368 -7.88759 -0.65626
H -10.26067 -8.6275 -2.15557
H -11.27029 -7.41187 -1.30967
H -6.12315 -4.91458 -0.60065
H -6.54382 -6.61864 -1.0021
H -8.03702 -4.8729 1.0657
H -8.54023 -6.45505 0.47939
$end

$opt
CONSTRAINT
tors           1           2           3           4     +47.368
tors           3           4           5           6    +142.105
tors           4           5           6           7    -161.053
tors           5           6           7           8     +85.263
tors           6           7           8           9    +161.053
tors           7           8           9          10    +142.105
tors           8           9          10          11    -180.000
tors           9          10          11          12     -47.368
tors          11          12          13          14    -161.053
ENDCONSTRAINT
$end

$rem
JOBTYPE                   OPT
METHOD                    B3LYP
DFT_D                     d3_op
BASIS                     STO-3G
GEOM_OPT_MAX_CYCLES       100
GEOM_OPT_TOL_GRADIENT     300
GEOM_OPT_TOL_DISPLACEMENT 1200
GEOM_OPT_TOL_ENERGY       100
SYMMETRY                  False
THRESH                    12
SCF_CONVERGENCE           8
MAX_SUB_FILE_NUM          128
MEM_STATIC                400
MEM_TOTAL                 4000
$end
--------------------------------------------------------------

   16   -1510.0921016177      3.55E-09 Convergence criterion met
 Total energy in the final basis set = -1510.09210162
   15   -1510.1663621313      2.03E-09 Convergence criterion met
 Total energy in the final basis set = -1510.16636213
   14   -1510.2055404906      4.19E-09 Convergence criterion met
 Total energy in the final basis set = -1510.20554049
   15   -1510.2307235360      2.17E-09 Convergence criterion met
 Total energy in the final basis set = -1510.23072354
   14   -1510.2425787852      6.39E-09 Convergence criterion met
 Total energy in the final basis set = -1510.24257879
   14   -1510.2494513197      3.67E-09 Convergence criterion met
 Total energy in the final basis set = -1510.24945132
   13   -1510.2536468948      8.30E-09 Convergence criterion met
 Total energy in the final basis set = -1510.25364689
   13   -1510.2559424998      7.95E-09 Convergence criterion met
   12   -1510.2571115812      2.84E-09 Convergence criterion met
 Total energy in the final basis set = -1510.25711158
   12   -1510.2571844692      2.69E-09 Convergence criterion met
 Total energy in the final basis set = -1510.25718447
   11   -1510.2572467407      8.83E-09 Convergence criterion met
 Total energy in the final basis set = -1510.25724674
   11   -1510.2573056717      8.33E-09 Convergence criterion met
 Total energy in the final basis set = -1510.25730567
   12   -1510.2573273920      2.32E-09 Convergence criterion met
 Total energy in the final basis set = -1510.25732739
   11   -1510.2573366054      5.53E-09 Convergence criterion met
 Total energy in the final basis set = -1510.25733661

             Standard Nuclear Orientation (Angstroms)
    I     Atom           X                Y                Z
 ----------------------------------------------------------------
    1      O      -4.3027849724    -2.3995365286     1.5502380462
    2      C      -4.4542127311    -1.8237704883     0.4523592380
    3      C      -4.8204453268    -0.3143315239     0.2059454054
    4      C      -4.0087904975     0.7826946388     1.0211787787
    5      C      -2.5982600220     0.3067203060     1.5549457681
    6      O      -1.6656261625     1.4001871526     1.4410984989
    7      C      -0.2776791211     0.8871554944     1.4900407928
    8      C       0.1770043181     0.4389429510     0.0551674167
    9      O       1.6602480849     0.3820067441     0.0628136343
   10      C       2.1279637786    -0.7222556319    -0.7069406943
   11      C       3.6931811237    -0.8389344308    -0.7391007954
   12      C       4.6539064203     0.3940815628    -1.0322877093
   13      C       4.2604414524     1.8754364403    -0.6811389048
   14      O       4.8092101564     2.8837144557    -1.1866025371
   15      O      -4.3256804662    -2.4879967652    -0.8123789675
   16      O       3.4543556383     1.9228009564     0.4944525822
   17      O       1.3692109196    -1.5433343940    -1.2750123181
   18      C       3.1974228992     3.3258144049     0.8934795766
   19      C       4.3378936808    -1.4339087618     0.6024410541
   20      C       5.5145531968    -2.3835169428     0.1561742331
   21      C       6.5277000764    -1.3240750626    -0.4174844677
   22      C       5.8273607711     0.0348190417    -0.0064331189
   23      O       5.0612426322    -0.2994250252     1.2150443789
   24      H       3.8665117379    -1.5715144358    -1.5481267927
   25      H       4.9997591563     0.3813932049    -2.0811397182
   26      H       3.6135095687    -1.8675422108     1.3187727025
   27      H       5.9341747704    -2.9061471583     1.0310921641
   28      H       5.2009389112    -3.1312132477    -0.5899014312
   29      H       7.5197302812    -1.4078749942     0.0535303893
   30      H       6.6487745899    -1.4052583650    -1.5098352413
   31      H       6.5228995658     0.8741193506     0.1891147247
   32      O      -2.2669223103    -0.8202659753     1.9769954512
   33      C      -3.9925386907    -3.9149302366    -0.5999115154
   34      C      -4.6480894318     0.2155594616    -1.2856678990
   35      C      -5.7353522881     1.3346278210    -1.5094876989
   36      C      -5.1701608648     2.4731831742    -0.5812586281
   37      C      -3.7883238841     1.8546156746    -0.1283223876
   38      O      -3.3843012847     0.9877361071    -1.2627478648
   39      H      -5.8853418822    -0.2266672126     0.4959127735
   40      H      -4.6042132734     1.1720377532     1.8679152364
   41      H      -4.7883939201    -4.4412431039    -0.0341083030
   42      H      -4.6067086580    -0.5877532938    -2.0456399099
   43      H      -5.7506747841     1.6487793738    -2.5655275438
   44      H      -6.7467233648     1.0062299667    -1.2212429253
   45      H      -5.0093698388     3.4099880635    -1.1378316980
   46      H      -5.8265430348     2.6851260477     0.2782383368
   47      H      -2.9910667822     2.5851247452     0.1033507178
   48      H      -3.0357096083    -4.0321699261    -0.0513165277
   49      H      -3.8992522219    -4.3592157311    -1.6080066256
   50      H       2.1309438867     3.5688236697     0.7130274440
   51      H       3.8444620680     4.0048796292     0.3020498385
   52      H       3.4177646063     3.4213317920     1.9738051680
   53      H      -0.2448351209    -0.5503436127    -0.2223306322
   54      H      -0.1601862396     1.1894017326    -0.6932726613
   55      H      -0.1966132797     0.0400552197     2.2031178815
   56      H       0.3584529276     1.7279306491     1.8335489038
 ----------------------------------------------------------------

   11   -1510.2573375437      2.21E-09 Convergence criterion met
 Total energy in the final basis set = -1510.25733754
 Final energy is   -1510.25733754373
 **  OPTIMIZATION CONVERGED  **

                    Orbital Energies (a.u.)
 --------------------------------------------------------------

 Alpha MOs
 -- Occupied --
-18.935 -18.933 -18.930 -18.929 -18.890 -18.884 -18.882 -18.872
-18.869 -18.866 -10.101 -10.098 -10.095 -10.095 -10.070 -10.064
-10.061 -10.061 -10.061 -10.056 -10.056 -10.054 -10.040 -10.040
-10.037 -10.036 -10.022 -10.020 -10.020 -10.019  -1.015  -1.011
 -1.006  -1.005  -0.972  -0.969  -0.940  -0.934  -0.930  -0.928
 -0.762  -0.761  -0.725  -0.722  -0.712  -0.705  -0.693  -0.657
 -0.657  -0.615  -0.598  -0.580  -0.543  -0.542  -0.538  -0.537
 -0.515  -0.511  -0.479  -0.479  -0.471  -0.463  -0.449  -0.435
 -0.433  -0.431  -0.421  -0.413  -0.407  -0.406  -0.405  -0.398
 -0.389  -0.381  -0.370  -0.369  -0.366  -0.353  -0.347  -0.343
 -0.341  -0.339  -0.336  -0.332  -0.330  -0.327  -0.322  -0.312
 -0.311  -0.309  -0.306  -0.298  -0.294  -0.287  -0.283  -0.275
 -0.273  -0.254  -0.253  -0.245  -0.235  -0.233  -0.226  -0.181
 -0.176  -0.172  -0.163  -0.160  -0.154  -0.147  -0.144  -0.144
 -0.139

          Ground-State Mulliken Net Atomic Charges

     Atom                 Charge (a.u.)
  ----------------------------------------
      1 O                    -0.203066
      2 C                     0.208326
      3 C                    -0.080978
      4 C                    -0.075641
      5 C                     0.209542
      6 O                    -0.177360
      7 C                    -0.050274
      8 C                    -0.055200
      9 O                    -0.160712
     10 C                     0.205316
     11 C                    -0.080654
     12 C                    -0.076534
     13 C                     0.207948
     14 O                    -0.222078
     15 O                    -0.172318
     16 O                    -0.153842
     17 O                    -0.217800
     18 C                    -0.134825
     19 C                     0.026946
     20 C                    -0.141544
     21 C                    -0.145427
     22 C                     0.025471
     23 O                    -0.185969
     24 H                     0.085316
     25 H                     0.085744
     26 H                     0.084420
     27 H                     0.078187
     28 H                     0.075410
     29 H                     0.078769
     30 H                     0.074621
     31 H                     0.083721
     32 O                    -0.202695
     33 C                    -0.128010
     34 C                     0.021316
     35 C                    -0.142494
     36 C                    -0.146072
     37 C                     0.021610
     38 O                    -0.195074
     39 H                     0.082382
     40 H                     0.086013
     41 H                     0.087680
     42 H                     0.094327
     43 H                     0.077517
     44 H                     0.072787
     45 H                     0.077693
     46 H                     0.072882
     47 H                     0.092592
     48 H                     0.092620
     49 H                     0.089845
     50 H                     0.082186
     51 H                     0.101275
     52 H                     0.087389
     53 H                     0.101413
     54 H                     0.087590
     55 H                     0.098045
     56 H                     0.091669
  ----------------------------------------
  Sum of atomic charges =     0.000000

                    Cartesian Multipole Moments
 -----------------------------------------------------------------
    Charge (ESU x 10^10)
                 0.0000
    Dipole Moment (Debye)
         X      -0.8955      Y       0.3119      Z      -0.5719
       Tot       1.1073
    Quadrupole Moments (Debye-Ang)
        XX    -141.8339     XY     -11.7218     YY    -155.5855
        XZ       2.5119     YZ       8.0628     ZZ    -166.0540

 Total job time:  64.21s(wall), 3055.80s(cpu)
        *  Thank you very much for using Q-Chem.  Have a nice day.  *
