 Q-Chem 5.0, Q-Chem, Inc., Pleasanton, CA (2017)
 Q-Chem 5.0.1 for Intel X86 EM64T Linux

User input:
--------------------------------------------------------------
$molecule
0  1
O -3.94934 -3.66094 2.70899
C -3.26408 -4.56952 2.26188
C -3.36658 -6.02376 2.66595
C -4.66266 -6.76517 2.29943
C -5.63801 -6.02118 1.41441
O -6.44257 -5.22426 2.17796
C -7.76314 -5.75135 2.34386
C -8.08417 -5.90788 3.82662
O -9.18191 -6.81842 3.99623
C -8.84881 -8.05853 4.43248
C -10.0198 -8.80989 5.01977
C -10.03177 -8.8938 6.5531
C -9.10258 -7.9383 7.27443
O -8.74551 -6.84616 6.85694
O -2.32343 -4.25267 1.33079
O -8.52691 -8.42009 8.40711
O -7.7065 -8.49945 4.47903
C -7.61447 -7.72383 9.17189
C -11.40438 -8.16112 4.77008
C -12.50677 -9.21166 4.90763
C -12.50294 -9.42806 6.40444
C -11.46157 -8.38786 6.82715
O -11.61741 -7.34817 5.89386
H -10.02757 -9.80747 4.52639
H -9.88469 -9.91868 6.96104
H -11.49225 -7.66525 3.77882
H -13.46679 -8.72372 4.62343
H -12.36604 -10.12748 4.29419
H -13.50564 -9.15355 6.80154
H -12.22873 -10.45233 6.73786
H -11.61205 -8.10732 7.89388
O -5.91353 -6.32659 0.26117
C -2.09793 -2.98046 0.84792
C -2.32394 -6.93063 1.97161
C -2.10904 -8.20856 2.78364
C -3.39259 -8.94813 2.4865
C -4.06406 -7.96256 1.52711
O -2.98816 -7.39331 0.82414
H -3.17733 -6.03941 3.76238
H -5.22128 -7.14231 3.18453
H -1.80025 -2.30345 1.67695
H -1.34112 -6.43805 1.80733
H -1.26448 -8.77011 2.32375
H -1.89561 -8.03754 3.86076
H -3.14005 -9.88416 1.93955
H -4.02205 -9.18728 3.37081
H -4.81934 -8.50153 0.91355
H -3.0139 -2.59094 0.35432
H -1.27732 -3.01477 0.10234
H -7.31124 -8.34967 10.03609
H -8.07183 -6.78547 9.5524
H -6.71235 -7.48475 8.56902
H -7.16172 -6.27057 4.33215
H -8.30391 -4.92698 4.29792
H -7.8578 -6.76405 1.88004
H -8.5191 -5.09705 1.86061
$end

$opt
CONSTRAINT
tors           1           2           3           4     +66.316
tors           3           4           5           6     -85.263
tors           4           5           6           7    -104.211
tors           5           6           7           8    +123.158
tors           6           7           8           9    -161.053
tors           7           8           9          10    +104.211
tors           8           9          10          11    +161.053
tors           9          10          11          12    -104.211
tors          11          12          13          14     +28.421
ENDCONSTRAINT
$end

$rem
JOBTYPE                   OPT
METHOD                    B3LYP
DFT_D                     d3_op
BASIS                     STO-3G
GEOM_OPT_MAX_CYCLES       100
GEOM_OPT_TOL_GRADIENT     300
GEOM_OPT_TOL_DISPLACEMENT 1200
GEOM_OPT_TOL_ENERGY       100
SYMMETRY                  False
THRESH                    12
SCF_CONVERGENCE           8
MAX_SUB_FILE_NUM          128
MEM_STATIC                400
MEM_TOTAL                 4000
$end
--------------------------------------------------------------

   15   -1510.1246175234      6.78E-09 Convergence criterion met
 Total energy in the final basis set = -1510.12461752
   13   -1510.1948504383      8.20E-09 Convergence criterion met
 Total energy in the final basis set = -1510.19485044
   14   -1510.2323985854      9.32E-09 Convergence criterion met
 Total energy in the final basis set = -1510.23239859
   14   -1510.2486666228      6.70E-09 Convergence criterion met
 Total energy in the final basis set = -1510.24866662
   14   -1510.2539596176      4.67E-09 Convergence criterion met
 Total energy in the final basis set = -1510.25395962
   13   -1510.2558839899      3.35E-09 Convergence criterion met
 Total energy in the final basis set = -1510.25588399
   12   -1510.2564860826      7.67E-09 Convergence criterion met
 Total energy in the final basis set = -1510.25648608
   12   -1510.2566940431      7.37E-09 Convergence criterion met
   10   -1510.2571416146      8.26E-09 Convergence criterion met
 Total energy in the final basis set = -1510.25714161
   11   -1510.2571539387      3.74E-09 Convergence criterion met
 Total energy in the final basis set = -1510.25715394
   10   -1510.2571642675      9.41E-09 Convergence criterion met
 Total energy in the final basis set = -1510.25716427
   10   -1510.2571725246      9.53E-09 Convergence criterion met
 Total energy in the final basis set = -1510.25717252
    9   -1510.2571797106      8.26E-09 Convergence criterion met
 Total energy in the final basis set = -1510.25717971
    9   -1510.2571829008      8.47E-09 Convergence criterion met
 Total energy in the final basis set = -1510.25718290

             Standard Nuclear Orientation (Angstroms)
    I     Atom           X                Y                Z
 ----------------------------------------------------------------
    1      O      -4.1542487738    -0.3670485226     2.3894803242
    2      C      -4.6117176345     0.1221273779     1.3331541502
    3      C      -3.8012916783     0.9352605731     0.2574543713
    4      C      -2.7164234482     0.0354488863    -0.4836536648
    5      C      -2.6570721800    -1.4527497034     0.0319999658
    6      O      -1.7935021363    -1.5740337126     1.2007281351
    7      C      -0.5062175148    -2.1909995712     0.7926353027
    8      C       0.6478354859    -1.1968827905     1.2076740662
    9      O       1.8936528446    -1.4913858342     0.4607500821
   10      C       2.0869960602    -0.5168559231    -0.5719649131
   11      C       3.5898545472    -0.5180935518    -1.0370661101
   12      C       4.4066238673     0.7213136553    -0.4738149726
   13      C       3.5752130226     1.6334684809     0.4862884172
   14      O       2.6183586799     1.2933116981     1.2175167625
   15      O      -5.9765463895    -0.0040145855     0.9248861160
   16      O       4.1229708688     2.9536316852     0.4468333401
   17      O       1.1754267199     0.2081962695    -1.0306604767
   18      C       3.3893174489     3.8334282292     1.3870880253
   19      C       4.4351121224    -1.7272085011    -0.4541096963
   20      C       5.7734652587    -1.8463267334    -1.2848287117
   21      C       6.5852291464    -0.6165139631    -0.7342143886
   22      C       5.5674144235    -0.0285371740     0.3209792951
   23      O       4.8892459679    -1.2250759038     0.8644175700
   24      H       3.6014039938    -0.5082263649    -2.1421354489
   25      H       4.8175766899     1.3466393459    -1.2855882905
   26      H       3.8649514751    -2.6677740997    -0.3341418490
   27      H       6.2808481868    -2.7980250962    -1.0603619864
   28      H       5.5956561955    -1.7886086587    -2.3705609882
   29      H       7.5149427825    -0.9343241827    -0.2361422844
   30      H       6.8354930028     0.1151289456    -1.5187766480
   31      H       6.0229905952     0.5673376562     1.1355875602
   32      O      -3.2554827452    -2.4231665845    -0.4752551450
   33      C      -6.7267755288    -0.8140414602     1.9121330977
   34      C      -4.6760511597     1.4125190876    -0.9745631939
   35      C      -3.8435145931     2.4692135242    -1.8052824553
   36      C      -2.8232329689     1.5361713099    -2.5573687581
   37      C      -3.2291131499     0.1237191785    -1.9827457329
   38      O      -4.7011456387     0.2165747099    -1.8485314357
   39      H      -3.3121096500     1.7814339743     0.7740405541
   40      H      -1.7048915121     0.4658262153    -0.3693324137
   41      H      -6.6801519590    -0.3695116168     2.9271887292
   42      H      -5.7052456824     1.7199653998    -0.7090691470
   43      H      -4.4976181184     3.0049387393    -2.5111640339
   44      H      -3.3458796102     3.2067330503    -1.1556829626
   45      H      -2.9794872897     1.5651809230    -3.6475698102
   46      H      -1.7719711124     1.7881733319    -2.3441674120
   47      H      -2.9545378481    -0.7457811718    -2.6107241068
   48      H      -6.3377864297    -1.8515453353     1.9635092288
   49      H      -7.7743982191    -0.8289962247     1.5593488951
   50      H       3.8715731052     4.8255486956     1.3160728186
   51      H       3.4546514817     3.4607435915     2.4296816968
   52      H       2.3185566398     3.9196878254     1.1109722694
   53      H       0.3156018042    -0.1586904421     0.9992240144
   54      H       0.8843251230    -1.3029626315     2.2855699656
   55      H      -0.4473300878    -2.3737531799    -0.3013353870
   56      H      -0.3792978266    -3.1672932489     1.3100550480
 ----------------------------------------------------------------

    9   -1510.2571838724      7.87E-09 Convergence criterion met
 Total energy in the final basis set = -1510.25718387
 Final energy is   -1510.25718387242
 **  OPTIMIZATION CONVERGED  **

                    Orbital Energies (a.u.)
 --------------------------------------------------------------

 Alpha MOs
 -- Occupied --
-18.942 -18.932 -18.927 -18.897 -18.892 -18.891 -18.882 -18.881
-18.869 -18.868 -10.105 -10.102 -10.099 -10.094 -10.070 -10.065
-10.064 -10.061 -10.060 -10.059 -10.054 -10.053 -10.042 -10.039
-10.035 -10.030 -10.023 -10.022 -10.016 -10.014  -1.019  -1.008
 -1.006  -1.000  -0.973  -0.964  -0.942  -0.934  -0.931  -0.927
 -0.766  -0.757  -0.726  -0.718  -0.713  -0.701  -0.690  -0.668
 -0.656  -0.608  -0.595  -0.578  -0.549  -0.541  -0.540  -0.532
 -0.515  -0.507  -0.485  -0.472  -0.465  -0.454  -0.451  -0.443
 -0.436  -0.428  -0.426  -0.417  -0.411  -0.408  -0.407  -0.392
 -0.390  -0.382  -0.377  -0.369  -0.361  -0.359  -0.351  -0.348
 -0.341  -0.340  -0.333  -0.329  -0.326  -0.323  -0.321  -0.313
 -0.305  -0.305  -0.302  -0.301  -0.286  -0.284  -0.281  -0.278
 -0.276  -0.261  -0.250  -0.248  -0.237  -0.234  -0.228  -0.185
 -0.175  -0.173  -0.161  -0.156  -0.152  -0.147  -0.146  -0.143
 -0.137

          Ground-State Mulliken Net Atomic Charges

     Atom                 Charge (a.u.)
  ----------------------------------------
      1 O                    -0.209498
      2 C                     0.204885
      3 C                    -0.077157
      4 C                    -0.082018
      5 C                     0.220087
      6 O                    -0.193182
      7 C                    -0.048865
      8 C                    -0.047604
      9 O                    -0.172573
     10 C                     0.214115
     11 C                    -0.079839
     12 C                    -0.079050
     13 C                     0.210606
     14 O                    -0.212219
     15 O                    -0.166170
     16 O                    -0.168645
     17 O                    -0.224901
     18 C                    -0.128555
     19 C                     0.026005
     20 C                    -0.144343
     21 C                    -0.143595
     22 C                     0.025776
     23 O                    -0.186308
     24 H                     0.083117
     25 H                     0.087350
     26 H                     0.090755
     27 H                     0.078517
     28 H                     0.073465
     29 H                     0.078723
     30 H                     0.074257
     31 H                     0.083351
     32 O                    -0.181614
     33 C                    -0.127671
     34 C                     0.024445
     35 C                    -0.144747
     36 C                    -0.144139
     37 C                     0.024495
     38 O                    -0.187750
     39 H                     0.085002
     40 H                     0.088249
     41 H                     0.088823
     42 H                     0.089813
     43 H                     0.076754
     44 H                     0.072289
     45 H                     0.076835
     46 H                     0.077281
     47 H                     0.084583
     48 H                     0.091769
     49 H                     0.090881
     50 H                     0.091774
     51 H                     0.090684
     52 H                     0.090526
     53 H                     0.098886
     54 H                     0.092107
     55 H                     0.080950
     56 H                     0.083291
  ----------------------------------------
  Sum of atomic charges =     0.000000

                    Cartesian Multipole Moments
 -----------------------------------------------------------------
    Charge (ESU x 10^10)
                 0.0000
    Dipole Moment (Debye)
         X       2.9137      Y       2.5926      Z      -1.1088
       Tot       4.0547
    Quadrupole Moments (Debye-Ang)
        XX    -148.5267     XY      -4.5129     YY    -153.4629
        XZ      -9.7377     YZ       4.1154     ZZ    -161.8909

 Total job time:  64.14s(wall), 3054.42s(cpu)
        *  Thank you very much for using Q-Chem.  Have a nice day.  *
