 Q-Chem 5.0, Q-Chem, Inc., Pleasanton, CA (2017)
 Q-Chem 5.0.1 for Intel X86 EM64T Linux

User input:
--------------------------------------------------------------
$molecule
0  1
O -4.1542487738 -0.3670485226 2.3894803242
C -4.6117176345 0.1221273779 1.3331541502
C -3.8012916783 0.9352605731 0.2574543713
C -2.7164234482 0.0354488863 -0.4836536648
C -2.65707218 -1.4527497034 0.0319999658
O -1.7935021363 -1.5740337126 1.2007281351
C -0.5062175148 -2.1909995712 0.7926353027
C 0.6478354859 -1.1968827905 1.2076740662
O 1.8936528446 -1.4913858342 0.4607500821
C 2.0869960602 -0.5168559231 -0.5719649131
C 3.5898545472 -0.5180935518 -1.0370661101
C 4.4066238673 0.7213136553 -0.4738149726
C 3.5752130226 1.6334684809 0.4862884172
O 2.6183586799 1.2933116981 1.2175167625
O -5.9765463895 -0.0040145855 0.924886116
O 4.1229708688 2.9536316852 0.4468333401
O 1.1754267199 0.2081962695 -1.0306604767
C 3.3893174489 3.8334282292 1.3870880253
C 4.4351121224 -1.7272085011 -0.4541096963
C 5.7734652587 -1.8463267334 -1.2848287117
C 6.5852291464 -0.6165139631 -0.7342143886
C 5.5674144235 -0.028537174 0.3209792951
O 4.8892459679 -1.2250759038 0.86441757
H 3.6014039938 -0.5082263649 -2.1421354489
H 4.8175766899 1.3466393459 -1.2855882905
H 3.8649514751 -2.6677740997 -0.334141849
H 6.2808481868 -2.7980250962 -1.0603619864
H 5.5956561955 -1.7886086587 -2.3705609882
H 7.5149427825 -0.9343241827 -0.2361422844
H 6.8354930028 0.1151289456 -1.518776648
H 6.0229905952 0.5673376562 1.1355875602
O -3.2554827452 -2.4231665845 -0.475255145
C -6.7267755288 -0.8140414602 1.9121330977
C -4.6760511597 1.4125190876 -0.9745631939
C -3.8435145931 2.4692135242 -1.8052824553
C -2.8232329689 1.5361713099 -2.5573687581
C -3.2291131499 0.1237191785 -1.9827457329
O -4.7011456387 0.2165747099 -1.8485314357
H -3.31210965 1.7814339743 0.7740405541
H -1.7048915121 0.4658262153 -0.3693324137
H -6.680151959 -0.3695116168 2.9271887292
H -5.7052456824 1.7199653998 -0.709069147
H -4.4976181184 3.0049387393 -2.5111640339
H -3.3458796102 3.2067330503 -1.1556829626
H -2.9794872897 1.565180923 -3.6475698102
H -1.7719711124 1.7881733319 -2.344167412
H -2.9545378481 -0.7457811718 -2.6107241068
H -6.3377864297 -1.8515453353 1.9635092288
H -7.7743982191 -0.8289962247 1.5593488951
H 3.8715731052 4.8255486956 1.3160728186
H 3.4546514817 3.4607435915 2.4296816968
H 2.3185566398 3.9196878254 1.1109722694
H 0.3156018042 -0.1586904421 0.9992240144
H 0.884325123 -1.3029626315 2.2855699656
H -0.4473300878 -2.3737531799 -0.301335387
H -0.3792978266 -3.1672932489 1.310055048
$end

$rem
JOBTYPE                   OPT
METHOD                    B3LYP
DFT_D                     d3_op
BASIS                     STO-3G
GEOM_OPT_MAX_CYCLES       100
GEOM_OPT_TOL_GRADIENT     300
GEOM_OPT_TOL_DISPLACEMENT 1200
GEOM_OPT_TOL_ENERGY       100
SYMMETRY                  False
THRESH                    12
SCF_CONVERGENCE           8
MAX_SUB_FILE_NUM          128
MEM_STATIC                400
MEM_TOTAL                 4000
$end
--------------------------------------------------------------

   16   -1510.2574487247      6.18E-09 Convergence criterion met
 Total energy in the final basis set = -1510.25744872
   14   -1510.2593359039      7.76E-09 Convergence criterion met
 Total energy in the final basis set = -1510.25933590
   14   -1510.2618993121      9.67E-09 Convergence criterion met
 Total energy in the final basis set = -1510.26189931
   14   -1510.2604007247      2.31E-09 Convergence criterion met
 Total energy in the final basis set = -1510.26040072
   14   -1510.2652940923      3.10E-09 Convergence criterion met
 Total energy in the final basis set = -1510.26529409
   14   -1510.2712114768      8.95E-09 Convergence criterion met
 Total energy in the final basis set = -1510.27121148
   14   -1510.2747690026      4.87E-09 Convergence criterion met
 Total energy in the final basis set = -1510.27476900
   14   -1510.2774125342      6.01E-09 Convergence criterion met
   12   -1510.3038327959      2.76E-09 Convergence criterion met
 Total energy in the final basis set = -1510.30383280
   11   -1510.3038357764      7.18E-09 Convergence criterion met
 Total energy in the final basis set = -1510.30383578
    9   -1510.3038378389      9.94E-09 Convergence criterion met
 Total energy in the final basis set = -1510.30383784
    9   -1510.3038301920      6.74E-09 Convergence criterion met
 Total energy in the final basis set = -1510.30383019
    9   -1510.3038321138      8.88E-09 Convergence criterion met
 Total energy in the final basis set = -1510.30383211
    9   -1510.3038299007      2.78E-09 Convergence criterion met
 Total energy in the final basis set = -1510.30382990

             Standard Nuclear Orientation (Angstroms)
    I     Atom           X                Y                Z
 ----------------------------------------------------------------
    1      O      -3.6840025222    -2.3791086368     0.5931504484
    2      C      -3.0392861745    -1.6787615385    -0.2183389986
    3      C      -3.3437909759    -0.1762661529    -0.5785560081
    4      C      -2.7252495592     0.8639090278     0.4455935663
    5      C      -1.7906175724     0.1848375645     1.4994236456
    6      O      -1.5759450183     1.0829614930     2.5859812839
    7      C      -0.5970668480     0.5172227096     3.5491035445
    8      C       0.8550065044     1.0465351830     3.2511487921
    9      O       1.3695566484     0.4707110310     1.9894009902
   10      C       1.1145731866     1.3656110112     0.8970293824
   11      C       1.4691489362     0.6628509930    -0.4605684713
   12      C       3.0111995449     0.6038054538    -0.8019642907
   13      C       3.8880875458     1.2718795235     0.3078546269
   14      O       3.4804310901     2.0111979813     1.2337086328
   15      O      -1.9781761706    -2.1790280203    -1.0426065755
   16      O       5.2594106790     0.9350128578     0.1010530099
   17      O       0.5328040151     2.4711497677     1.0223346717
   18      C       6.0987466430     1.5658369698     1.1470470414
   19      C       1.1021942334    -0.8837527449    -0.4464618476
   20      C       1.0606687258    -1.3764361829    -1.9441411092
   21      C       2.5947121782    -1.4360285966    -2.2916949107
   22      C       3.2336784726    -0.9651417270    -0.9250867586
   23      O       2.3239356988    -1.5217456115     0.0992209354
   24      H       0.9014459862     1.1902644024    -1.2466030619
   25      H       3.2318349411     1.1091226119    -1.7606616376
   26      H       0.2070204224    -1.1313186165     0.1651311996
   27      H       0.5930323360    -2.3700233174    -2.0101045065
   28      H       0.4946007826    -0.6783523701    -2.5806584838
   29      H       2.9163767049    -2.4620674001    -2.5316891772
   30      H       2.8715110546    -0.7754511714    -3.1288451382
   31      H       4.2775753578    -1.2892208120    -0.7475257223
   32      O      -1.2861500799    -0.9623900093     1.4222147700
   33      C      -1.6771193715    -3.5765184694    -0.6586824814
   34      C      -2.6900046632     0.3151651447    -1.9385869238
   35      C      -3.4487165738     1.6212926487    -2.4003215022
   36      C      -2.8891103520     2.6749481742    -1.3723715605
   37      C      -1.8825816898     1.7910291076    -0.5373904087
   38      O      -1.3607949711     0.8230901555    -1.5285463165
   39      H      -4.4430964629    -0.0699001547    -0.6039222739
   40      H      -3.5008589817     1.4417196753     0.9783437416
   41      H      -2.5877926090    -4.2091440121    -0.6683633425
   42      H      -2.5832876034    -0.4745345296    -2.7064492232
   43      H      -3.1724384492     1.8812081731    -3.4347537873
   44      H      -4.5432769738     1.5090800397    -2.3449080394
   45      H      -2.3523322428     3.4916895764    -1.8807245574
   46      H      -3.6781987155     3.1120840687    -0.7398568742
   47      H      -1.0415339108     2.3290087933    -0.0398891820
   48      H      -1.2244144652    -3.6216166093     0.3529574382
   49      H      -0.9528147833    -3.9534036989    -1.4037213479
   50      H       7.1396039227     1.2690786758     0.9222668381
   51      H       5.8203147379     1.2101082625     2.1600335356
   52      H       6.0134738866     2.6715107713     1.1259590110
   53      H       0.8428205073     2.1554334537     3.1877293957
   54      H       1.5371362856     0.7143174091     4.0602997011
   55      H      -0.6117838220    -0.5918849883     3.4861652287
   56      H      -0.9177567562     0.8501802976     4.5575118562
 ----------------------------------------------------------------

    8   -1510.3038394435      7.27E-09 Convergence criterion met
 Total energy in the final basis set = -1510.30383944
 Final energy is   -1510.30383944354
 **  OPTIMIZATION CONVERGED  **

                    Orbital Energies (a.u.)
 --------------------------------------------------------------

 Alpha MOs
 -- Occupied --
-18.943 -18.941 -18.925 -18.921 -18.885 -18.882 -18.882 -18.873
-18.862 -18.856 -10.107 -10.103 -10.093 -10.089 -10.072 -10.068
-10.067 -10.055 -10.053 -10.050 -10.046 -10.036 -10.036 -10.033
-10.031 -10.022 -10.016 -10.014 -10.009 -10.002  -1.022  -1.017
 -1.001  -0.997  -0.966  -0.957  -0.943  -0.940  -0.928  -0.922
 -0.759  -0.754  -0.723  -0.713  -0.708  -0.699  -0.690  -0.662
 -0.650  -0.614  -0.591  -0.574  -0.541  -0.536  -0.533  -0.523
 -0.508  -0.507  -0.487  -0.473  -0.460  -0.458  -0.443  -0.437
 -0.430  -0.425  -0.420  -0.414  -0.412  -0.403  -0.400  -0.399
 -0.393  -0.378  -0.374  -0.364  -0.361  -0.355  -0.350  -0.344
 -0.340  -0.335  -0.334  -0.325  -0.320  -0.320  -0.316  -0.306
 -0.302  -0.301  -0.297  -0.291  -0.285  -0.281  -0.274  -0.272
 -0.265  -0.257  -0.253  -0.242  -0.237  -0.229  -0.221  -0.190
 -0.182  -0.165  -0.163  -0.157  -0.155  -0.144  -0.144  -0.137
 -0.131

          Ground-State Mulliken Net Atomic Charges

     Atom                 Charge (a.u.)
  ----------------------------------------
      1 O                    -0.223385
      2 C                     0.212022
      3 C                    -0.081745
      4 C                    -0.079158
      5 C                     0.215979
      6 O                    -0.165679
      7 C                    -0.053588
      8 C                    -0.051493
      9 O                    -0.167952
     10 C                     0.217769
     11 C                    -0.083760
     12 C                    -0.078918
     13 C                     0.214916
     14 O                    -0.209285
     15 O                    -0.170289
     16 O                    -0.167576
     17 O                    -0.227300
     18 C                    -0.127721
     19 C                     0.020675
     20 C                    -0.142755
     21 C                    -0.144855
     22 C                     0.024439
     23 O                    -0.192285
     24 H                     0.094596
     25 H                     0.085454
     26 H                     0.102474
     27 H                     0.074535
     28 H                     0.080382
     29 H                     0.074058
     30 H                     0.070330
     31 H                     0.084309
     32 O                    -0.212207
     33 C                    -0.127697
     34 C                     0.024934
     35 C                    -0.144381
     36 C                    -0.144469
     37 C                     0.011555
     38 O                    -0.197717
     39 H                     0.082864
     40 H                     0.087955
     41 H                     0.088097
     42 H                     0.087344
     43 H                     0.075693
     44 H                     0.072400
     45 H                     0.077472
     46 H                     0.073309
     47 H                     0.104832
     48 H                     0.093063
     49 H                     0.085594
     50 H                     0.091979
     51 H                     0.091365
     52 H                     0.090319
     53 H                     0.102266
     54 H                     0.089418
     55 H                     0.101895
     56 H                     0.089925
  ----------------------------------------
  Sum of atomic charges =     0.000000

                    Cartesian Multipole Moments
 -----------------------------------------------------------------
    Charge (ESU x 10^10)
                 0.0000
    Dipole Moment (Debye)
         X       0.9266      Y       0.9619      Z      -0.7160
       Tot       1.5155
    Quadrupole Moments (Debye-Ang)
        XX    -147.1894     XY      -1.8837     YY    -163.4135
        XZ       4.8421     YZ       2.5632     ZZ    -149.2931

 Total job time:  161.05s(wall), 7673.12s(cpu)
        *  Thank you very much for using Q-Chem.  Have a nice day.  *
