 Q-Chem 5.0, Q-Chem, Inc., Pleasanton, CA (2017)
 Q-Chem 5.0.1 for Intel X86 EM64T Linux

User input:
--------------------------------------------------------------
$molecule
0  1
O -3.94934 -3.66094 2.70899
C -3.26408 -4.56952 2.26188
C -3.36658 -6.02376 2.66595
C -4.41631 -6.88207 1.94122
C -5.12384 -6.23632 0.77054
O -4.21131 -5.63577 -0.04925
C -3.63755 -6.53285 -1.00595
C -4.24318 -6.28901 -2.38431
O -5.63498 -6.64357 -2.37703
C -6.35402 -6.16169 -1.33303
C -6.65973 -7.2138 -0.29368
C -8.05451 -7.11109 0.3406
C -9.04764 -6.22703 -0.38662
O -10.24148 -6.45759 -0.51364
O -2.23441 -4.24525 1.43365
O -8.71703 -4.91481 -0.48718
O -6.43389 -4.94707 -1.1853
C -9.54306 -3.9178 -0.96784
C -7.05178 -8.60286 -1.09128
C -6.88323 -9.91409 -0.25966
C -7.89114 -9.64191 0.81851
C -8.67035 -8.5106 0.14026
O -8.43991 -8.65097 -1.22918
H -5.86881 -7.97029 -0.04756
H -8.01238 -6.82438 1.41254
H -6.51034 -8.77601 -2.04861
H -7.2402 -10.74755 -0.90994
H -5.87298 -10.18217 0.11769
H -8.48133 -10.56983 0.98297
H -7.46759 -9.26888 1.77694
H -9.73573 -8.57085 0.45779
O -5.9314 -5.43122 1.25577
C -1.9699 -2.97048 0.97938
C -2.08841 -6.86531 2.44475
C -2.05534 -8.02247 3.44064
C -3.16572 -8.89096 2.89123
C -3.52763 -8.11048 1.61814
O -2.30516 -7.53333 1.23195
H -3.53634 -5.98962 3.76604
H -5.22018 -7.2381 2.62809
H -1.76214 -2.29343 1.83524
H -1.14822 -6.27705 2.52146
H -1.08508 -8.55027 3.29544
H -2.15888 -7.73926 4.51011
H -2.73466 -9.88436 2.63392
H -4.0423 -9.02427 3.56124
H -3.99928 -8.8206 0.91145
H -2.83454 -2.58678 0.39653
H -1.07858 -2.99764 0.31982
H -8.99941 -2.95148 -0.9404
H -10.453 -3.83277 -0.33614
H -9.83205 -4.13624 -2.01814
H -4.12264 -5.21591 -2.65065
H -3.72398 -6.89996 -3.15267
H -3.79501 -7.60828 -0.826
H -2.5443 -6.34358 -1.04755
$end

$opt
CONSTRAINT
tors           1           2           3           4     +85.263
tors           3           4           5           6     +47.368
tors           4           5           6           7     +85.263
tors           5           6           7           8    +104.211
tors           6           7           8           9     -66.316
tors           7           8           9          10     +47.368
tors           8           9          10          11    -104.211
tors           9          10          11          12    -142.105
tors          11          12          13          14    +142.105
ENDCONSTRAINT
$end

$rem
JOBTYPE                   OPT
METHOD                    B3LYP
DFT_D                     d3_op
BASIS                     STO-3G
GEOM_OPT_MAX_CYCLES       100
GEOM_OPT_TOL_GRADIENT     300
GEOM_OPT_TOL_DISPLACEMENT 1200
GEOM_OPT_TOL_ENERGY       100
SYMMETRY                  False
THRESH                    12
SCF_CONVERGENCE           8
MAX_SUB_FILE_NUM          128
MEM_STATIC                400
MEM_TOTAL                 4000
$end
--------------------------------------------------------------

   16   -1509.9184072889      6.45E-09 Convergence criterion met
 Total energy in the final basis set = -1509.91840729
   15   -1510.0046771249      5.80E-09 Convergence criterion met
 Total energy in the final basis set = -1510.00467712
   14   -1510.0703344470      4.28E-09 Convergence criterion met
 Total energy in the final basis set = -1510.07033445
   14   -1510.1155025934      4.27E-09 Convergence criterion met
 Total energy in the final basis set = -1510.11550259
   14   -1510.1456268837      4.37E-09 Convergence criterion met
 Total energy in the final basis set = -1510.14562688
   14   -1510.1661396899      4.15E-09 Convergence criterion met
 Total energy in the final basis set = -1510.16613969
    2   -1510.1661396897      2.15E-09 Convergence criterion met
 Total energy in the final basis set = -1510.16613969
   14   -1510.1809298061      3.83E-09 Convergence criterion met
    9   -1510.2233562715      6.25E-09 Convergence criterion met
 Total energy in the final basis set = -1510.22335627
    9   -1510.2233585200      8.37E-09 Convergence criterion met
 Total energy in the final basis set = -1510.22335852
   10   -1510.2233603735      3.55E-09 Convergence criterion met
 Total energy in the final basis set = -1510.22336037
    9   -1510.2233621862      6.05E-09 Convergence criterion met
 Total energy in the final basis set = -1510.22336219
    9   -1510.2233636972      4.76E-09 Convergence criterion met
 Total energy in the final basis set = -1510.22336370
    9   -1510.2233647225      4.03E-09 Convergence criterion met
 Total energy in the final basis set = -1510.22336472

             Standard Nuclear Orientation (Angstroms)
    I     Atom           X                Y                Z
 ----------------------------------------------------------------
    1      O      -3.6302945514    -2.1090818790     1.4793935733
    2      C      -3.8406590740    -1.1283007291     0.7330612441
    3      C      -3.7292700465     0.3877539825     1.1445166130
    4      C      -2.2505121392     0.9658503008     1.0300173905
    5      C      -1.1774293169    -0.1377780906     0.6930752683
    6      O      -1.5481233172    -1.0147244905    -0.3904092653
    7      C      -1.2430091597    -0.5500062649    -1.7519033507
    8      C      -0.0046447712    -1.1834101738    -2.5405454843
    9      O       1.4163601613    -1.0525456722    -2.2049634307
   10      C       1.8258086738    -1.2755976408    -0.8248587542
   11      C       2.1350479722     0.0835286927    -0.0940052027
   12      C       3.3326718455     0.2082730992     0.9387447718
   13      C       4.5407116762    -0.8060254247     0.8858123728
   14      O       5.7368695970    -0.4987740163     1.0914237205
   15      O      -4.3016441154    -1.2316439936    -0.6190579523
   16      O       4.0989598334    -2.1432782075     0.6688303052
   17      O       1.8211982501    -2.4132944749    -0.3151714749
   18      C       5.2569193177    -3.0681501007     0.6820318543
   19      C       2.3969701003     1.3304327649    -1.0384745415
   20      C       1.8158756127     2.6033163963    -0.3075529752
   21      C       2.8505363757     2.7593107479     0.8685610574
   22      C       3.8981947380     1.6290545445     0.5170352336
   23      O       3.8592164273     1.5498904195    -0.9641710490
   24      H       1.2121614982     0.2366215579     0.4955908997
   25      H       2.9406959337     0.2026016121     1.9734678806
   26      H       2.0691803016     1.1689476768    -2.0837085211
   27      H       1.8345720247     3.4769227884    -0.9788961202
   28      H       0.7840677632     2.4522703870     0.0485442676
   29      H       3.3302664815     3.7506727849     0.8585208581
   30      H       2.3919907649     2.5995427382     1.8576692954
   31      H       4.9340530405     1.8038023119     0.8679957836
   32      O      -0.2109898151    -0.3917893311     1.4463922545
   33      C      -4.3316260015    -2.6545330203    -1.0256783848
   34      C      -4.4949486055     1.3496638799     0.1408395806
   35      C      -4.6278802900     2.7749750895     0.8080900877
   36      C      -3.1626727416     3.3258263689     0.6493527989
   37      C      -2.4564782275     2.1057626941    -0.0624195322
   38      O      -3.5083826447     1.5618577463    -0.9467138827
   39      H      -4.0989252387     0.4831063542     2.1809511759
   40      H      -1.9349441039     1.4111390041     1.9906131473
   41      H      -4.9954882342    -3.2555582610    -0.3712752318
   42      H      -5.4320588128     0.9278890001    -0.2693159982
   43      H      -5.3541360751     3.3928353099     0.2565577264
   44      H      -4.9469420859     2.7099477984     1.8605471803
   45      H      -3.1328695669     4.2151346182    -0.0002137621
   46      H      -2.6911079868     3.5746910468     1.6131142311
   47      H      -1.5499921374     2.3713835633    -0.6400205760
   48      H      -3.3154647426    -3.0990732843    -1.0012440143
   49      H      -4.7189432896    -2.6681130640    -2.0611632023
   50      H       4.8374245144    -4.0747075127     0.5010174352
   51      H       5.7813763770    -3.0521312263     1.6591585974
   52      H       5.9874670973    -2.8194218972    -0.1144634877
   53      H      -0.2487866818    -2.2693495629    -2.6409249470
   54      H      -0.0795450967    -0.7420572311    -3.5583072282
   55      H      -1.1619302593     0.5563118310    -1.7863895821
   56      H      -2.1251324266    -0.8315155872    -2.3676044862
 ----------------------------------------------------------------

    9   -1510.2233652796      2.95E-09 Convergence criterion met
 Total energy in the final basis set = -1510.22336528
 Final energy is   -1510.22336527956
 **  OPTIMIZATION CONVERGED  **

                    Orbital Energies (a.u.)
 --------------------------------------------------------------

 Alpha MOs
 -- Occupied --
-18.934 -18.929 -18.924 -18.924 -18.901 -18.895 -18.895 -18.879
-18.872 -18.861 -10.128 -10.101 -10.101 -10.089 -10.084 -10.076
-10.073 -10.069 -10.064 -10.055 -10.051 -10.050 -10.049 -10.046
-10.032 -10.030 -10.029 -10.021 -10.019 -10.017  -1.027  -1.010
 -1.004  -0.996  -0.983  -0.963  -0.957  -0.935  -0.930  -0.924
 -0.774  -0.756  -0.733  -0.718  -0.718  -0.712  -0.697  -0.662
 -0.655  -0.616  -0.605  -0.586  -0.559  -0.548  -0.539  -0.534
 -0.529  -0.505  -0.492  -0.478  -0.470  -0.463  -0.444  -0.442
 -0.439  -0.429  -0.425  -0.420  -0.415  -0.408  -0.405  -0.401
 -0.398  -0.381  -0.379  -0.374  -0.372  -0.368  -0.355  -0.348
 -0.346  -0.341  -0.338  -0.335  -0.332  -0.325  -0.323  -0.322
 -0.316  -0.314  -0.304  -0.303  -0.295  -0.293  -0.284  -0.280
 -0.269  -0.257  -0.247  -0.246  -0.241  -0.232  -0.221  -0.183
 -0.176  -0.175  -0.168  -0.158  -0.152  -0.149  -0.146  -0.142
 -0.136

          Ground-State Mulliken Net Atomic Charges

     Atom                 Charge (a.u.)
  ----------------------------------------
      1 O                    -0.214349
      2 C                     0.211353
      3 C                    -0.079536
      4 C                    -0.084648
      5 C                     0.228071
      6 O                    -0.195649
      7 C                    -0.045327
      8 C                    -0.048293
      9 O                    -0.204360
     10 C                     0.223152
     11 C                    -0.094031
     12 C                    -0.076436
     13 C                     0.208307
     14 O                    -0.219459
     15 O                    -0.169408
     16 O                    -0.159648
     17 O                    -0.168235
     18 C                    -0.127049
     19 C                     0.018751
     20 C                    -0.143195
     21 C                    -0.145521
     22 C                     0.022879
     23 O                    -0.192204
     24 H                     0.096368
     25 H                     0.085852
     26 H                     0.088792
     27 H                     0.075103
     28 H                     0.062946
     29 H                     0.076989
     30 H                     0.072762
     31 H                     0.090701
     32 O                    -0.174887
     33 C                    -0.128451
     34 C                     0.026264
     35 C                    -0.144518
     36 C                    -0.142832
     37 C                     0.022116
     38 O                    -0.188374
     39 H                     0.087358
     40 H                     0.085909
     41 H                     0.089634
     42 H                     0.091315
     43 H                     0.079821
     44 H                     0.075739
     45 H                     0.079954
     46 H                     0.075741
     47 H                     0.078079
     48 H                     0.092955
     49 H                     0.087985
     50 H                     0.092981
     51 H                     0.087606
     52 H                     0.088831
     53 H                     0.076738
     54 H                     0.087213
     55 H                     0.080697
     56 H                     0.097448
  ----------------------------------------
  Sum of atomic charges =     0.000000

                    Cartesian Multipole Moments
 -----------------------------------------------------------------
    Charge (ESU x 10^10)
                -0.0000
    Dipole Moment (Debye)
         X      -4.1484      Y       2.6589      Z      -0.1979
       Tot       4.9313
    Quadrupole Moments (Debye-Ang)
        XX    -164.7435     XY      -6.4381     YY    -156.1735
        XZ       3.6654     YZ       8.6223     ZZ    -159.2549

 Total job time:  123.81s(wall), 5907.59s(cpu)
        *  Thank you very much for using Q-Chem.  Have a nice day.  *
