 Q-Chem 5.0, Q-Chem, Inc., Pleasanton, CA (2017)
 Q-Chem 5.0.1 for Intel X86 EM64T Linux

User input:
--------------------------------------------------------------
$molecule
0  1
O -3.6302945514 -2.109081879 1.4793935733
C -3.840659074 -1.1283007291 0.7330612441
C -3.7292700465 0.3877539825 1.144516613
C -2.2505121392 0.9658503008 1.0300173905
C -1.1774293169 -0.1377780906 0.6930752683
O -1.5481233172 -1.0147244905 -0.3904092653
C -1.2430091597 -0.5500062649 -1.7519033507
C -0.0046447712 -1.1834101738 -2.5405454843
O 1.4163601613 -1.0525456722 -2.2049634307
C 1.8258086738 -1.2755976408 -0.8248587542
C 2.1350479722 0.0835286927 -0.0940052027
C 3.3326718455 0.2082730992 0.9387447718
C 4.5407116762 -0.8060254247 0.8858123728
O 5.736869597 -0.4987740163 1.0914237205
O -4.3016441154 -1.2316439936 -0.6190579523
O 4.0989598334 -2.1432782075 0.6688303052
O 1.8211982501 -2.4132944749 -0.3151714749
C 5.2569193177 -3.0681501007 0.6820318543
C 2.3969701003 1.3304327649 -1.0384745415
C 1.8158756127 2.6033163963 -0.3075529752
C 2.8505363757 2.7593107479 0.8685610574
C 3.898194738 1.6290545445 0.5170352336
O 3.8592164273 1.5498904195 -0.964171049
H 1.2121614982 0.2366215579 0.4955908997
H 2.9406959337 0.2026016121 1.9734678806
H 2.0691803016 1.1689476768 -2.0837085211
H 1.8345720247 3.4769227884 -0.9788961202
H 0.7840677632 2.452270387 0.0485442676
H 3.3302664815 3.7506727849 0.8585208581
H 2.3919907649 2.5995427382 1.8576692954
H 4.9340530405 1.8038023119 0.8679957836
O -0.2109898151 -0.3917893311 1.4463922545
C -4.3316260015 -2.6545330203 -1.0256783848
C -4.4949486055 1.3496638799 0.1408395806
C -4.62788029 2.7749750895 0.8080900877
C -3.1626727416 3.3258263689 0.6493527989
C -2.4564782275 2.1057626941 -0.0624195322
O -3.5083826447 1.5618577463 -0.9467138827
H -4.0989252387 0.4831063542 2.1809511759
H -1.9349441039 1.4111390041 1.9906131473
H -4.9954882342 -3.255558261 -0.3712752318
H -5.4320588128 0.9278890001 -0.2693159982
H -5.3541360751 3.3928353099 0.2565577264
H -4.9469420859 2.7099477984 1.8605471803
H -3.1328695669 4.2151346182 -0.0002137621
H -2.6911079868 3.5746910468 1.6131142311
H -1.5499921374 2.3713835633 -0.640020576
H -3.3154647426 -3.0990732843 -1.0012440143
H -4.7189432896 -2.668113064 -2.0611632023
H 4.8374245144 -4.0747075127 0.5010174352
H 5.781376377 -3.0521312263 1.6591585974
H 5.9874670973 -2.8194218972 -0.1144634877
H -0.2487866818 -2.2693495629 -2.640924947
H -0.0795450967 -0.7420572311 -3.5583072282
H -1.1619302593 0.556311831 -1.7863895821
H -2.1251324266 -0.8315155872 -2.3676044862
$end

$rem
JOBTYPE                   OPT
METHOD                    B3LYP
DFT_D                     d3_op
BASIS                     STO-3G
GEOM_OPT_MAX_CYCLES       100
GEOM_OPT_TOL_GRADIENT     300
GEOM_OPT_TOL_DISPLACEMENT 1200
GEOM_OPT_TOL_ENERGY       100
SYMMETRY                  False
THRESH                    12
SCF_CONVERGENCE           8
MAX_SUB_FILE_NUM          128
MEM_STATIC                400
MEM_TOTAL                 4000
$end
--------------------------------------------------------------

   16   -1510.2231775060      4.60E-09 Convergence criterion met
 Total energy in the final basis set = -1510.22317751
   15   -1510.2261736497      2.57E-09 Convergence criterion met
 Total energy in the final basis set = -1510.22617365
   14   -1510.2337793391      4.65E-09 Convergence criterion met
 Total energy in the final basis set = -1510.23377934
   14   -1510.2413101555      5.79E-09 Convergence criterion met
 Total energy in the final basis set = -1510.24131016
   13   -1510.2469111739      8.19E-09 Convergence criterion met
 Total energy in the final basis set = -1510.24691117
   13   -1510.2518759735      8.86E-09 Convergence criterion met
 Total energy in the final basis set = -1510.25187597
   13   -1510.2560681530      8.54E-09 Convergence criterion met
 Total energy in the final basis set = -1510.25606815
   13   -1510.2580323016      4.71E-09 Convergence criterion met
   12   -1510.2869000663      7.18E-09 Convergence criterion met
 Total energy in the final basis set = -1510.28690007
   12   -1510.2868663627      9.31E-09 Convergence criterion met
 Total energy in the final basis set = -1510.28686636
   12   -1510.2869799477      6.32E-09 Convergence criterion met
 Total energy in the final basis set = -1510.28697995
   11   -1510.2870037443      7.00E-09 Convergence criterion met
 Total energy in the final basis set = -1510.28700374
   11   -1510.2870019668      4.88E-09 Convergence criterion met
 Total energy in the final basis set = -1510.28700197
   11   -1510.2870042041      4.98E-09 Convergence criterion met
 Total energy in the final basis set = -1510.28700420

             Standard Nuclear Orientation (Angstroms)
    I     Atom           X                Y                Z
 ----------------------------------------------------------------
    1      O      -2.5337401530    -0.4531753364     2.5362548115
    2      C      -3.0111260151    -0.5717156854     1.3863507032
    3      C      -3.9024349781     0.4969833810     0.6483180788
    4      C      -3.0581974232     1.6925737994     0.0145664645
    5      C      -1.5278995261     1.6313223932     0.4069420901
    6      O      -0.7473707259     0.4757374831     0.1074540305
    7      C      -0.9065085815    -0.0758212230    -1.2606773703
    8      C       0.1531686108    -1.2303661539    -1.3284480974
    9      O       1.4241234754    -0.6923286840    -0.7896010246
   10      C       1.4649419341    -0.8163447148     0.6420142928
   11      C       2.5087563493     0.2029083803     1.2034637450
   12      C       3.8630153615     0.2655866910     0.3800392437
   13      C       3.9508952839    -0.7817622311    -0.7852763439
   14      O       4.2051874164    -0.5686118928    -1.9887225467
   15      O      -2.8482268110    -1.7193061227     0.5570418606
   16      O       3.7422641775    -2.0870549884    -0.2207668807
   17      O       0.7773545745    -1.6181685730     1.3149054791
   18      C       3.7148493038    -3.1021178011    -1.2962135127
   19      C       1.9869010208     1.7017217226     1.0194191591
   20      C       2.9053180814     2.6500185398     1.8885165076
   21      C       4.2089185084     2.7221299261     1.0090658823
   22      C       3.8228038719     1.7508806792    -0.1724388079
   23      O       2.3795818183     2.0118245297    -0.3734207232
   24      H       2.6834521914    -0.0444032309     2.2649715698
   25      H       4.7269473802     0.1064243989     1.0512598784
   26      H       0.8895385375     1.8539999830     1.1553826958
   27      H       2.4348713247     3.6399051043     1.9982317408
   28      H       3.0926005715     2.2368898910     2.8924828906
   29      H       4.3837312765     3.7410912116     0.6284547336
   30      H       5.1093723767     2.3865630066     1.5476364041
   31      H       4.3790948996     1.8896838336    -1.1201560810
   32      O      -0.9928280509     2.4886989315     1.1538016792
   33      C      -1.9756697311    -2.7120667033     1.2352016457
   34      C      -4.6585597881    -0.0512792034    -0.6294735374
   35      C      -5.7845248402     0.9804393761    -1.0249161102
   36      C      -4.9331658329     2.1332972909    -1.6781729014
   37      C      -3.4702599245     1.5675650924    -1.5167472558
   38      O      -3.6634744929     0.1087034039    -1.7217037530
   39      H      -4.6126125395     0.8969458449     1.3940603768
   40      H      -3.4084622472     2.6590815437     0.4181396353
   41      H      -2.3606060590    -2.9588452938     2.2444382331
   42      H      -4.9790125977    -1.1080217427    -0.5572207264
   43      H      -6.4817076601     0.5331827333    -1.7510201077
   44      H      -6.3569683072     1.3199886884    -0.1472539471
   45      H      -5.1757189617     2.2570755836    -2.7457417173
   46      H      -5.0648779428     3.1028562324    -1.1718645847
   47      H      -2.7320610459     1.9669847115    -2.2381447367
   48      H      -0.9281624046    -2.3296639165     1.3193968454
   49      H      -2.0028035329    -3.6153070236     0.5986499881
   50      H       3.5845956534    -4.0787286133    -0.7946119902
   51      H       4.6563653618    -3.1073180050    -1.8825160248
   52      H       2.8683518370    -2.9272760408    -1.9915382835
   53      H      -0.1788342210    -2.1148213687    -0.7490414490
   54      H       0.3401730581    -1.5190888884    -2.3820195681
   55      H      -0.6260185147     0.7022057770    -2.0029101127
   56      H      -1.9644455316    -0.4018799869    -1.4524690461
 ----------------------------------------------------------------

   10   -1510.2870043536      6.40E-09 Convergence criterion met
 Total energy in the final basis set = -1510.28700435
 Final energy is   -1510.28700435360
 **  OPTIMIZATION CONVERGED  **

                    Orbital Energies (a.u.)
 --------------------------------------------------------------

 Alpha MOs
 -- Occupied --
-18.929 -18.929 -18.926 -18.923 -18.916 -18.890 -18.873 -18.871
-18.869 -18.866 -10.110 -10.099 -10.096 -10.091 -10.077 -10.074
-10.070 -10.058 -10.057 -10.048 -10.045 -10.045 -10.040 -10.034
-10.034 -10.032 -10.027 -10.025 -10.007 -10.004  -1.018  -1.007
 -1.004  -0.997  -0.991  -0.954  -0.942  -0.931  -0.930  -0.927
 -0.775  -0.751  -0.732  -0.718  -0.716  -0.701  -0.687  -0.655
 -0.652  -0.605  -0.602  -0.579  -0.561  -0.550  -0.533  -0.525
 -0.521  -0.500  -0.489  -0.477  -0.474  -0.456  -0.451  -0.443
 -0.429  -0.424  -0.418  -0.418  -0.411  -0.408  -0.401  -0.393
 -0.391  -0.387  -0.372  -0.367  -0.363  -0.356  -0.350  -0.348
 -0.344  -0.338  -0.335  -0.333  -0.328  -0.324  -0.316  -0.314
 -0.309  -0.305  -0.295  -0.294  -0.292  -0.287  -0.283  -0.280
 -0.260  -0.258  -0.250  -0.245  -0.241  -0.235  -0.219  -0.186
 -0.172  -0.171  -0.167  -0.159  -0.155  -0.150  -0.145  -0.142
 -0.129

          Ground-State Mulliken Net Atomic Charges

     Atom                 Charge (a.u.)
  ----------------------------------------
      1 O                    -0.210726
      2 C                     0.204400
      3 C                    -0.081947
      4 C                    -0.085178
      5 C                     0.215503
      6 O                    -0.183017
      7 C                    -0.065767
      8 C                    -0.049012
      9 O                    -0.171694
     10 C                     0.231235
     11 C                    -0.077936
     12 C                    -0.079305
     13 C                     0.217019
     14 O                    -0.214789
     15 O                    -0.176262
     16 O                    -0.175407
     17 O                    -0.216591
     18 C                    -0.128070
     19 C                     0.014814
     20 C                    -0.144828
     21 C                    -0.144419
     22 C                     0.024311
     23 O                    -0.192709
     24 H                     0.084749
     25 H                     0.082576
     26 H                     0.105188
     27 H                     0.077143
     28 H                     0.071318
     29 H                     0.075020
     30 H                     0.070185
     31 H                     0.086190
     32 O                    -0.191902
     33 C                    -0.147800
     34 C                     0.025858
     35 C                    -0.143306
     36 C                    -0.141949
     37 C                     0.022658
     38 O                    -0.185479
     39 H                     0.088004
     40 H                     0.090653
     41 H                     0.084331
     42 H                     0.094505
     43 H                     0.080931
     44 H                     0.077498
     45 H                     0.081500
     46 H                     0.078462
     47 H                     0.086880
     48 H                     0.117797
     49 H                     0.079020
     50 H                     0.088522
     51 H                     0.087977
     52 H                     0.085623
     53 H                     0.094836
     54 H                     0.089279
     55 H                     0.077325
     56 H                     0.116784
  ----------------------------------------
  Sum of atomic charges =    -0.000000

                    Cartesian Multipole Moments
 -----------------------------------------------------------------
    Charge (ESU x 10^10)
                -0.0000
    Dipole Moment (Debye)
         X      -2.8209      Y      -0.4155      Z      -1.5269
       Tot       3.2344
    Quadrupole Moments (Debye-Ang)
        XX    -140.1224     XY      -6.1215     YY    -154.6542
        XZ       9.3140     YZ       1.5100     ZZ    -166.7834

 Total job time:  137.01s(wall), 6531.27s(cpu)
        *  Thank you very much for using Q-Chem.  Have a nice day.  *
