 Q-Chem 5.0, Q-Chem, Inc., Pleasanton, CA (2017)
 Q-Chem 5.0.1 for Intel X86 EM64T Linux

User input:
--------------------------------------------------------------
$molecule
0  1
O -4.0180264788 -1.7604085287 2.027317947
C -3.6476493047 -1.2047154081 0.9678035697
C -3.6918391906 0.3385751577 0.6543052876
C -2.3027873612 0.9974101937 0.2635655913
C -1.1169586131 0.0100946396 0.0406845254
O 0.1382505745 0.5512126869 0.5616839013
C 0.4821630689 -0.117168507 1.8297495814
C 2.0964098124 -0.3021658493 1.8135420464
O 2.3905285717 -1.7137906545 1.5046689772
C 1.9883996693 -2.0345359586 0.1494297019
C 2.0332335508 -0.877753149 -0.9519925953
C 2.3577889305 0.6381474566 -0.5890317359
C 2.4532070456 0.9277270266 0.9595598187
O 3.3690930345 0.4079898855 2.019391661
O -3.3436219974 -1.904465797 -0.2359904468
O 2.0412885466 2.2753324645 1.1965653923
O 1.7623534861 -3.2255746996 -0.1339151644
C 2.7312419604 2.8398708781 2.3915602224
C 3.3216051979 -1.1384541859 -1.8686848714
C 3.0974106143 -0.4079297386 -3.2508876969
C 3.3272917878 1.1003159335 -2.863759571
C 3.6925556313 0.9385577513 -1.3430959542
O 4.401063272 -0.3531164369 -1.2308488027
H 1.0978503832 -0.9286159662 -1.5415702614
H 1.5263702143 1.2790179361 -0.8841015576
H 3.6289978768 -2.1985331067 -1.9095332298
H 3.8306402211 -0.7557344937 -3.9945982967
H 2.0804321488 -0.5917285406 -3.6244688493
H 4.1123353929 1.5940268251 -3.4611300694
H 2.4127236821 1.7079286081 -2.94996557
H 4.2684939557 1.7668521019 -0.8905410391
O -1.1163846094 -0.9959143948 -0.6950489061
C -3.3082291079 -3.367331898 -0.0194410163
C -4.5672312388 0.6662453937 -0.6375121568
C -4.9800138206 2.1930101159 -0.6016205114
C -3.6108226298 2.8827999142 -0.9588745035
C -2.688601983 1.6188699788 -1.1725212262
O -3.5930859505 0.605742164 -1.7437626123
H -4.0992257375 0.8421362033 1.5479738382
H -1.9676434726 1.7732308489 0.969113635
H -4.3061573792 -3.7664484903 0.2607969984
H -5.3904072573 -0.0485630079 -0.8209793758
H -5.7542816249 2.401872068 -1.3599019779
H -5.3625920099 2.5002151614 0.3836197439
H -3.6811157488 3.4887422205 -1.8777780792
H -3.229231378 3.5302617501 -0.1547727387
H -1.8324479618 1.7727141482 -1.8541250663
H -2.5689947647 -3.655401982 0.7572867001
H -2.9979780832 -3.7897052352 -0.9925466163
H 1.9771369518 3.2919282311 3.0610835406
H 3.4377532637 3.6387721087 2.0846159016
H 3.3036044257 2.0755954561 2.9584630304
H 1.9863975537 0.1339963603 4.2698274421
H 2.0449306765 -0.5926809114 4.0532220575
H 0.0046666013 -1.10877656 1.9670881215
H 0.1765731838 0.5577971539 2.6629998059
$end

$rem
JOBTYPE                   OPT
METHOD                    B3LYP
DFT_D                     d3_op
BASIS                     STO-3G
GEOM_OPT_MAX_CYCLES       100
GEOM_OPT_TOL_GRADIENT     300
GEOM_OPT_TOL_DISPLACEMENT 1200
GEOM_OPT_TOL_ENERGY       100
SYMMETRY                  False
THRESH                    12
SCF_CONVERGENCE           8
MAX_SUB_FILE_NUM          128
MEM_STATIC                400
MEM_TOTAL                 4000
$end
--------------------------------------------------------------

   16   -1510.0984419923      6.63E-09 Convergence criterion met
 Total energy in the final basis set = -1510.09844199
   14   -1510.1218405920      3.43E-09 Convergence criterion met
 Total energy in the final basis set = -1510.12184059
   14   -1510.1367057484      4.19E-09 Convergence criterion met
 Total energy in the final basis set = -1510.13670575
   14   -1510.1479305615      3.27E-09 Convergence criterion met
 Total energy in the final basis set = -1510.14793056
   13   -1510.1570711774      8.82E-09 Convergence criterion met
 Total energy in the final basis set = -1510.15707118
   13   -1510.1653048150      5.43E-09 Convergence criterion met
 Total energy in the final basis set = -1510.16530482
   14   -1510.1730785327      2.98E-09 Convergence criterion met
 Total energy in the final basis set = -1510.17307853
   14   -1510.1805046484      3.28E-09 Convergence criterion met
   11   -1510.2361417995      4.10E-09 Convergence criterion met
 Total energy in the final basis set = -1510.23614180
   11   -1510.2361850506      6.30E-09 Convergence criterion met
 Total energy in the final basis set = -1510.23618505
   11   -1510.2362218030      4.08E-09 Convergence criterion met
 Total energy in the final basis set = -1510.23622180
   11   -1510.2362238657      3.63E-09 Convergence criterion met
 Total energy in the final basis set = -1510.23622387
   10   -1510.2362294512      8.41E-09 Convergence criterion met
 Total energy in the final basis set = -1510.23622945
   10   -1510.2362313733      6.71E-09 Convergence criterion met
 Total energy in the final basis set = -1510.23623137

             Standard Nuclear Orientation (Angstroms)
    I     Atom           X                Y                Z
 ----------------------------------------------------------------
    1      O      -2.1882224268     1.3039075706     2.7474778038
    2      C      -2.9068388521     0.7695643713     1.8721578766
    3      C      -3.4159045823     1.4071939174     0.5343117233
    4      C      -2.9755322078     0.5948279321    -0.7567714522
    5      C      -2.0757996640    -0.6477905873    -0.4416423385
    6      O      -1.0352017662    -0.2121598927     0.4497289352
    7      C      -0.1215818812    -1.3324788559     0.7758499180
    8      C       1.3170099211    -0.9999220433     0.2603828891
    9      O       1.6176712213    -1.9146370007    -0.8359877619
   10      C       2.8491604608    -1.6693724740    -1.5554347372
   11      C       3.4108419751    -0.2031604463    -1.6985633002
   12      C       2.9602945163     0.8914207676    -0.6589288183
   13      C       1.9893271327     0.3746374847     0.4378893435
   14      O       2.4091821844    -0.7929528676     1.2479460950
   15      O      -3.4269651936    -0.5609006726     1.9624149214
   16      O       1.4251762685     1.5369855940     1.0850970596
   17      O       3.3566128590    -2.6426348337    -2.1515234751
   18      C       0.8691185187     1.2227648384     2.4216367451
   19      C       4.9865642302    -0.1944274711    -1.4829404679
   20      C       5.5696171320     1.1129955740    -2.1492188937
   21      C       5.1197665916     2.2083445656    -1.1125816457
   22      C       4.3616291715     1.3243806446    -0.0458050781
   23      O       5.1293675241     0.0577900172    -0.0313809486
   24      H       3.1611120500     0.1161313791    -2.7275507925
   25      H       2.4630011628     1.7404393856    -1.1611739987
   26      H       5.4805101586    -1.1429397442    -1.7711207394
   27      H       6.6669679911     1.0506452489    -2.2223398071
   28      H       5.1565730363     1.2829089537    -3.1562742260
   29      H       5.9856420125     2.7103895589    -0.6523106263
   30      H       4.4626187166     2.9731815671    -1.5563807975
   31      H       4.2953075363     1.7557478047     0.9716589062
   32      O      -2.1857009717    -1.8114732181    -0.8800626556
   33      C      -2.9855396766    -1.2012343877     3.2220365455
   34      C      -4.9991499880     1.3179251448     0.3980429151
   35      C      -5.4569804341     2.2704763645    -0.7776547576
   36      C      -5.0296337097     1.4291079058    -2.0383728266
   37      C      -4.3799425417     0.1661895251    -1.3512338859
   38      O      -5.2176320235    -0.0400824298    -0.1467831577
   39      H      -3.0539080020     2.4494013191     0.4993745814
   40      H      -2.4197188142     1.2472293606    -1.4557430484
   41      H      -3.4857106017    -0.7477415305     4.1023814531
   42      H      -5.5495780320     1.4470016286     1.3501502243
   43      H      -6.5474144245     2.4231353812    -0.7440567452
   44      H      -4.9615297739     3.2534586999    -0.7321656208
   45      H      -5.9037731175     1.1326801193    -2.6396524048
   46      H      -4.3184101232     1.9641397381    -2.6876320160
   47      H      -4.3442292547    -0.7569711234    -1.9620914498
   48      H      -1.8891094222    -1.1190474875     3.3618006337
   49      H      -3.2744283073    -2.2652440500     3.1416823566
   50      H      -0.2445956954     1.1752027720     2.3970330153
   51      H       1.1696334996     2.0509513124     3.0921185109
   52      H       1.2848847643     0.2737831063     2.8125838235
   53      H       1.3340275465    -4.5924016200    -0.1661802967
   54      H       1.4316263707    -3.9009192604    -0.3865572565
   55      H      -0.4944002236    -2.2531274107     0.2750749897
   56      H      -0.1146516974    -1.4707961995     1.8763902274
 ----------------------------------------------------------------

    9   -1510.2362320558      4.41E-09 Convergence criterion met
 Total energy in the final basis set = -1510.23623206
 Final energy is   -1510.23623205580
 **  OPTIMIZATION CONVERGED  **

                    Orbital Energies (a.u.)
 --------------------------------------------------------------

 Alpha MOs
 -- Occupied --
-18.949 -18.944 -18.941 -18.916 -18.915 -18.893 -18.892 -18.892
-18.891 -18.880 -10.114 -10.111 -10.108 -10.107 -10.107 -10.082
-10.069 -10.066 -10.063 -10.063 -10.062 -10.046 -10.046 -10.045
-10.044 -10.043 -10.025 -10.024 -10.023 -10.022  -1.044  -1.025
 -1.014  -1.005  -0.975  -0.974  -0.958  -0.949  -0.941  -0.937
 -0.771  -0.770  -0.731  -0.728  -0.713  -0.710  -0.695  -0.666
 -0.658  -0.610  -0.603  -0.576  -0.570  -0.550  -0.542  -0.537
 -0.530  -0.518  -0.495  -0.482  -0.470  -0.466  -0.463  -0.446
 -0.439  -0.437  -0.431  -0.430  -0.417  -0.414  -0.409  -0.404
 -0.399  -0.393  -0.386  -0.378  -0.374  -0.361  -0.359  -0.352
 -0.348  -0.347  -0.336  -0.335  -0.333  -0.331  -0.322  -0.317
 -0.315  -0.313  -0.310  -0.306  -0.300  -0.298  -0.287  -0.283
 -0.281  -0.259  -0.257  -0.251  -0.242  -0.239  -0.237  -0.197
 -0.190  -0.182  -0.177  -0.171  -0.160  -0.158  -0.149  -0.148
 -0.139

          Ground-State Mulliken Net Atomic Charges

     Atom                 Charge (a.u.)
  ----------------------------------------
      1 O                    -0.219015
      2 C                     0.217305
      3 C                    -0.078531
      4 C                    -0.077212
      5 C                     0.218413
      6 O                    -0.173774
      7 C                    -0.061907
      8 C                     0.127511
      9 O                    -0.168803
     10 C                     0.216957
     11 C                    -0.086153
     12 C                    -0.071014
     13 C                     0.146227
     14 O                    -0.177121
     15 O                    -0.166271
     16 O                    -0.182681
     17 O                    -0.187980
     18 C                    -0.145423
     19 C                     0.025807
     20 C                    -0.143836
     21 C                    -0.143938
     22 C                     0.026110
     23 O                    -0.188241
     24 H                     0.088066
     25 H                     0.088659
     26 H                     0.091214
     27 H                     0.079674
     28 H                     0.073764
     29 H                     0.079036
     30 H                     0.074040
     31 H                     0.087070
     32 O                    -0.202930
     33 C                    -0.128053
     34 C                     0.026417
     35 C                    -0.144017
     36 C                    -0.143712
     37 C                     0.024748
     38 O                    -0.184737
     39 H                     0.086891
     40 H                     0.087091
     41 H                     0.088368
     42 H                     0.083496
     43 H                     0.079029
     44 H                     0.074178
     45 H                     0.079406
     46 H                     0.073505
     47 H                     0.091790
     48 H                     0.087041
     49 H                     0.094637
     50 H                     0.098926
     51 H                     0.082595
     52 H                     0.085231
     53 H                    -0.030597
     54 H                     0.011526
     55 H                     0.118445
     56 H                     0.092777
  ----------------------------------------
  Sum of atomic charges =    -0.000000

                    Cartesian Multipole Moments
 -----------------------------------------------------------------
    Charge (ESU x 10^10)
                 0.0000
    Dipole Moment (Debye)
         X      -1.3495      Y       4.0564      Z      -0.4763
       Tot       4.3014
    Quadrupole Moments (Debye-Ang)
        XX    -162.1139     XY       3.3978     YY    -168.6337
        XZ      -4.4398     YZ     -11.6080     ZZ    -154.4702

 Total job time:  209.05s(wall), 9981.82s(cpu)
        *  Thank you very much for using Q-Chem.  Have a nice day.  *
