 Q-Chem 5.0, Q-Chem, Inc., Pleasanton, CA (2017)
 Q-Chem 5.0.1 for Intel X86 EM64T Linux

User input:
--------------------------------------------------------------
$molecule
0  1
O 6.5370772299 -1.2371610058 0.4994322729
C 5.5682863371 -0.4494393194 0.3884826009
C 4.2044379438 -0.8920454174 -0.2614826476
C 2.8026924097 -0.1598928813 -0.0869422835
C 2.7084117461 1.2658010332 0.5683502705
O 1.4488215107 1.7343610413 1.0829255573
C 0.3056674615 0.9697367115 1.6272504142
C -0.1393815933 -0.5082963859 1.2672743447
O -1.0033706806 -0.5306868128 0.0656815607
C -2.3831764183 -0.729998789 0.4074204603
C -3.2493501754 0.1524960054 -0.5602046088
C -4.8035416091 0.0613724126 -0.2895055078
C -5.2344006809 -1.0456737784 0.739601363
O -5.8854710849 -0.8854137422 1.793751996
O 5.6155462295 0.9119944237 0.7979287639
O -4.936545637 -2.3255781659 0.1631995831
O -2.7690941957 -1.3427565796 1.427188547
C -5.3322460742 -3.3899232952 1.1119753615
C -2.9856735476 1.6853708712 -0.235483124
C -3.607314691 2.5715472017 -1.3833648879
C -5.1409295261 2.4835843992 -1.0373402139
C -5.1120035139 1.5300217356 0.223990296
O -3.867919663 1.9288508658 0.9259634973
H -2.9978352744 -0.0854332972 -1.6092940099
H -5.3417195838 -0.1399354306 -1.2343992432
H -1.9340090961 1.9167136915 0.0134426309
H -3.2305747457 3.6048969569 -1.3110645714
H -3.3671509119 2.1778155972 -2.3843482659
H -5.5522228782 3.4711045403 -0.7729917609
H -5.7381102937 2.0650844958 -1.8637377949
H -5.9849649419 1.5991644408 0.9029649452
O 3.5721041902 2.1641986561 0.4777685202
C 6.9715442447 1.2289883097 1.3114466396
C 4.3134033076 -0.9255907624 -1.8617856944
C 3.3820182706 -2.0844167774 -2.3993263339
C 1.9595335935 -1.4628565018 -2.1501838454
C 2.3426726375 -0.0324543583 -1.6063437839
O 3.6077870244 0.2971935858 -2.299504226
H 4.0729291559 -1.9296837322 0.0915337554
H 2.1520511418 -0.8522765004 0.4591988413
H 7.7379383046 1.1327001326 0.5158103359
H 5.3508509273 -0.9423837324 -2.2486237476
H 3.5641258545 -2.2532291787 -3.4731125617
H 3.5402470678 -3.0349919863 -1.8662645635
H 1.3817884408 -1.3746881823 -3.0826729262
H 1.3622595681 -2.0328608891 -1.421507802
H 1.5791124614 0.7508497012 -1.7804631227
H 7.2623395621 0.5707395354 2.155016325
H 6.924481338 2.2775922635 1.6570895772
H -5.0750372419 -4.3523042332 0.6302538057
H -6.4214910291 -3.3544648553 1.3222657589
H -4.7832798695 -3.2929617369 2.0716856202
H 0.7041531404 -1.2051354326 1.1191206666
H -0.7296683685 -0.8796946816 2.1326359235
H -0.566967165 1.6286217561 1.4296684691
H 0.451469158 0.9513860105 2.7347967351
$end

$rem
JOBTYPE                   OPT
METHOD                    B3LYP
DFT_D                     d3_op
BASIS                     STO-3G
GEOM_OPT_MAX_CYCLES       100
GEOM_OPT_TOL_GRADIENT     300
GEOM_OPT_TOL_DISPLACEMENT 1200
GEOM_OPT_TOL_ENERGY       100
SYMMETRY                  False
THRESH                    12
SCF_CONVERGENCE           8
MAX_SUB_FILE_NUM          128
MEM_STATIC                400
MEM_TOTAL                 4000
$end
--------------------------------------------------------------

   16   -1510.2281844862      6.72E-09 Convergence criterion met
 Total energy in the final basis set = -1510.22818449
   14   -1510.2340209137      2.56E-09 Convergence criterion met
 Total energy in the final basis set = -1510.23402091
   13   -1510.2377136599      9.45E-09 Convergence criterion met
 Total energy in the final basis set = -1510.23771366
   13   -1510.2413823823      7.58E-09 Convergence criterion met
 Total energy in the final basis set = -1510.24138238
   14   -1510.2451751577      6.36E-09 Convergence criterion met
 Total energy in the final basis set = -1510.24517516
   14   -1510.2485582174      5.47E-09 Convergence criterion met
 Total energy in the final basis set = -1510.24855822
   13   -1510.2511906895      7.04E-09 Convergence criterion met
 Total energy in the final basis set = -1510.25119069
   13   -1510.2541705942      4.12E-09 Convergence criterion met
   11   -1510.2842327794      4.14E-09 Convergence criterion met
 Total energy in the final basis set = -1510.28423278
   12   -1510.2842047615      9.93E-09 Convergence criterion met
 Total energy in the final basis set = -1510.28420476
   11   -1510.2842386597      6.94E-09 Convergence criterion met
 Total energy in the final basis set = -1510.28423866
   10   -1510.2842451949      5.46E-09 Convergence criterion met
 Total energy in the final basis set = -1510.28424519
   10   -1510.2842449984      8.26E-09 Convergence criterion met
 Total energy in the final basis set = -1510.28424500
   10   -1510.2842493115      5.37E-09 Convergence criterion met
 Total energy in the final basis set = -1510.28424931

             Standard Nuclear Orientation (Angstroms)
    I     Atom           X                Y                Z
 ----------------------------------------------------------------
    1      O       3.9165784638     2.1131604754    -0.8831205866
    2      C       3.8400915290     1.1607093262    -0.0797027443
    3      C       3.6995893608    -0.3692161039    -0.4209817768
    4      C       2.3634384022    -1.0344682091     0.1134898742
    5      C       1.4098291458     0.0121356715     0.7918552329
    6      O       0.5226778663    -0.3506340140     1.8605658137
    7      C       0.3744158980    -1.7891220119     2.1579110888
    8      C      -0.4733179860    -2.5493972143     1.0424410849
    9      O      -0.9073453400    -1.6303142007    -0.0309451869
   10      C      -1.9092907699    -0.7131157185     0.4610721415
   11      C      -2.2081342486     0.3436141161    -0.6469898719
   12      C      -3.7232607377     0.8102743717    -0.6541647941
   13      C      -4.6276276539     0.0601153889     0.3877102986
   14      O      -5.2333497331     0.5480549627     1.3640912773
   15      O       3.9704549925     1.2794388405     1.3444575989
   16      O      -4.7072265591    -1.3181632964    -0.0083963869
   17      O      -2.4187004411    -0.8096055194     1.5969097748
   18      C      -5.4951917837    -2.0814639622     0.9841572661
   19      C      -1.4761532272     1.7259433701    -0.3238490290
   20      C      -1.5602102551     2.6332446429    -1.6151154724
   21      C      -3.0600880079     3.1084139976    -1.5683950608
   22      C      -3.5740680399     2.3447917245    -0.2877133377
   23      O      -2.4072548800     2.3725153519     0.6247047712
   24      H      -1.8923553134    -0.0676750114    -1.6216990523
   25      H      -4.1625592003     0.6674286378    -1.6582059704
   26      H      -0.4523654893     1.6262953258     0.1093627135
   27      H      -0.8628526001     3.4815296875    -1.5287994750
   28      H      -1.3175867928     2.0727959934    -2.5320921351
   29      H      -3.1343292006     4.1979057249    -1.4230433688
   30      H      -3.6248863090     2.8327171144    -2.4732380669
   31      H      -4.4649846015     2.7731638922     0.2113970100
   32      O       1.3478102848     1.2119560563     0.4219319348
   33      C       3.9978174046     2.7082823484     1.7278165283
   34      C       3.5497269752    -0.5956383991    -1.9817045440
   35      C       3.8228672006    -2.1184548728    -2.2973622614
   36      C       2.4952555113    -2.7813906819    -1.7704975813
   37      C       1.7045956091    -1.5150879680    -1.2600916695
   38      O       2.0920945210    -0.4501180159    -2.2059458346
   39      H       4.5794126388    -0.8983382619    -0.0114439372
   40      H       2.5823362100    -1.8789827718     0.7858049809
   41      H       3.0407810445     3.2074337890     1.4713080090
   42      H       4.1096853979     0.1356634512    -2.5963035477
   43      H       3.9482620837    -2.2719351699    -3.3810035319
   44      H       4.7202000848    -2.4945638062    -1.7806565689
   45      H       1.9418055406    -3.2793671758    -2.5826721987
   46      H       2.6748727848    -3.5132766497    -0.9666835531
   47      H       0.5989428597    -1.6059336447    -1.1892135402
   48      H       4.8261957602     3.2517691319     1.2291423509
   49      H       4.1446657875     2.7303349688     2.8233188674
   50      H      -5.5121608993    -3.1269390587     0.6245897921
   51      H      -6.5341184491    -1.7011757080     1.0651843003
   52      H      -5.0256362304    -2.0406344722     1.9884423140
   53      H       0.1471048393    -3.3148128094     0.5369530843
   54      H      -1.3495826722    -3.0387994632     1.5164989366
   55      H      -0.1809879370    -1.8068476618     3.1165517641
   56      H       1.3518294413    -2.2928388441     2.3089187323
 ----------------------------------------------------------------

    8   -1510.2842501143      8.84E-09 Convergence criterion met
 Total energy in the final basis set = -1510.28425011
 Final energy is   -1510.28425011434
 **  OPTIMIZATION CONVERGED  **

                    Orbital Energies (a.u.)
 --------------------------------------------------------------

 Alpha MOs
 -- Occupied --
-18.950 -18.947 -18.923 -18.923 -18.889 -18.888 -18.886 -18.874
-18.867 -18.867 -10.114 -10.108 -10.094 -10.091 -10.089 -10.087
-10.058 -10.058 -10.055 -10.054 -10.047 -10.044 -10.038 -10.037
-10.033 -10.029 -10.024 -10.022 -10.008 -10.005  -1.029  -1.015
 -1.002  -1.000  -0.971  -0.958  -0.951  -0.944  -0.928  -0.927
 -0.765  -0.756  -0.726  -0.725  -0.710  -0.707  -0.692  -0.656
 -0.655  -0.624  -0.603  -0.585  -0.550  -0.541  -0.536  -0.526
 -0.515  -0.505  -0.484  -0.482  -0.465  -0.458  -0.453  -0.445
 -0.435  -0.432  -0.430  -0.418  -0.412  -0.406  -0.404  -0.404
 -0.401  -0.391  -0.377  -0.364  -0.363  -0.357  -0.354  -0.349
 -0.343  -0.339  -0.336  -0.332  -0.327  -0.321  -0.317  -0.312
 -0.307  -0.304  -0.297  -0.295  -0.290  -0.284  -0.277  -0.276
 -0.264  -0.257  -0.253  -0.246  -0.246  -0.234  -0.221  -0.198
 -0.179  -0.169  -0.168  -0.163  -0.158  -0.147  -0.145  -0.144
 -0.132

          Ground-State Mulliken Net Atomic Charges

     Atom                 Charge (a.u.)
  ----------------------------------------
      1 O                    -0.210938
      2 C                     0.215890
      3 C                    -0.078603
      4 C                    -0.084485
      5 C                     0.219871
      6 O                    -0.162493
      7 C                    -0.049539
      8 C                    -0.053491
      9 O                    -0.175570
     10 C                     0.220324
     11 C                    -0.079921
     12 C                    -0.079879
     13 C                     0.213738
     14 O                    -0.209459
     15 O                    -0.178546
     16 O                    -0.177978
     17 O                    -0.204754
     18 C                    -0.129176
     19 C                     0.013672
     20 C                    -0.143988
     21 C                    -0.144540
     22 C                     0.024626
     23 O                    -0.188962
     24 H                     0.086390
     25 H                     0.083295
     26 H                     0.105460
     27 H                     0.079842
     28 H                     0.073139
     29 H                     0.076439
     30 H                     0.070387
     31 H                     0.087579
     32 O                    -0.198997
     33 C                    -0.128922
     34 C                     0.025038
     35 C                    -0.144254
     36 C                    -0.145460
     37 C                     0.010740
     38 O                    -0.188210
     39 H                     0.082466
     40 H                     0.075918
     41 H                     0.094247
     42 H                     0.090813
     43 H                     0.078404
     44 H                     0.072426
     45 H                     0.077981
     46 H                     0.068171
     47 H                     0.101921
     48 H                     0.087609
     49 H                     0.087813
     50 H                     0.085871
     51 H                     0.087421
     52 H                     0.091222
     53 H                     0.087933
     54 H                     0.095638
     55 H                     0.102547
     56 H                     0.083335
  ----------------------------------------
  Sum of atomic charges =    -0.000000

                    Cartesian Multipole Moments
 -----------------------------------------------------------------
    Charge (ESU x 10^10)
                -0.0000
    Dipole Moment (Debye)
         X       1.7614      Y      -4.9434      Z      -0.3373
       Tot       5.2586
    Quadrupole Moments (Debye-Ang)
        XX    -155.6878     XY      -1.4632     YY    -151.4277
        XZ      11.8484     YZ      -4.7292     ZZ    -162.4019

 Total job time:  189.82s(wall), 9044.20s(cpu)
        *  Thank you very much for using Q-Chem.  Have a nice day.  *
