 Q-Chem 5.0, Q-Chem, Inc., Pleasanton, CA (2017)
 Q-Chem 5.0.1 for Intel X86 EM64T Linux

User input:
--------------------------------------------------------------
$molecule
0  1
O -1.0006212774 -2.4469716674 2.1096056922
C -1.681012434 -2.6214794212 0.7189118207
C -0.9517663536 0.2287286181 0.5328466276
C -1.3736021125 0.915712598 -0.862719481
C -2.0436882367 0.6029507046 -2.1641359465
O -1.1155595705 0.360041623 -3.3472077668
C 0.0352552199 1.4439944239 -3.7744452552
C 1.2831840528 1.5224366017 -2.8183735959
O 0.8231737369 1.7768778356 -1.505528527
C 1.253091322 2.2687519116 -0.2581898855
C 2.3083681597 1.3515820435 0.4222101002
C 1.7521840199 -0.1204972078 0.8791003251
C 0.2563876824 -0.8449050546 0.602671599
O 0.1353733604 -1.5184087759 1.9441426497
O -2.6611568611 -3.558036314 0.9749803711
O 0.4050718896 -1.9538852325 -0.3381606747
O 0.6305125206 3.2155275986 0.2688653195
C 0.6388329219 -1.5439207336 -1.7319501748
C 3.5759109105 0.9481387491 -0.4387671177
C 4.7368508362 0.585547606 0.5644396728
C 4.2390031152 -0.8055266884 1.1059847985
C 2.9125448949 -1.010469384 0.2806646955
O 3.2197910847 -0.3603282325 -1.0201064423
H 2.624994378 1.8906511978 1.3403393744
H 1.7971002694 -0.1300249314 1.984843462
H 3.8495200717 1.6695735055 -1.2344499639
H 5.6930110602 0.491591479 0.0235366439
H 4.8525395471 1.3404734767 1.3590159608
H 4.9591356798 -1.6083640388 0.8792218637
H 4.0527822043 -0.7955222134 2.1923352781
H 2.5954497792 -2.0584180614 0.1202598157
O -3.2100344257 0.2273106493 -2.4791486052
C -2.8313218443 -4.2489603763 2.3009895765
C -2.2901749312 0.1950785886 1.3840242612
C -2.221271927 1.5171579426 2.2480263518
C -2.2777256886 2.5806320989 1.0876931677
C -2.6561501119 1.6797700697 -0.1617680746
O -3.3688846074 0.5178792836 0.4345256811
H -0.4123849723 1.0778869311 0.9718771665
H -0.5982659224 1.591912767 -1.1569954555
H -3.1045730271 -3.5285401849 3.0981686808
H -2.5130854438 -0.7350723694 1.9387532848
H -3.0969396466 1.5979282401 2.9135378355
H -1.302429089 1.5863919599 2.8549763515
H -3.0568245744 3.3391107475 1.264435493
H -1.3109339754 3.0923222313 0.9294301533
H -3.3175068017 2.1926986347 -0.8861743669
H -1.9000401637 -4.7777541027 2.5849286423
H -3.6506212092 -4.9848350829 2.1620852101
H 1.5931372447 -0.9762778056 -1.8096046611
H -0.1875400548 -0.9561557595 -2.1817217223
H 0.7381079403 -2.4955828108 -2.2874478741
H 1.9071057737 0.6070053729 -2.8759071538
H 1.9113292332 2.3736281642 -3.2109382712
H -0.3798731714 2.3937052692 -4.0362978711
H 0.3561849484 0.8916453269 -4.7534379928
$end

$rem
JOBTYPE                   OPT
METHOD                    B3LYP
DFT_D                     d3_op
BASIS                     STO-3G
GEOM_OPT_MAX_CYCLES       100
GEOM_OPT_TOL_GRADIENT     300
GEOM_OPT_TOL_DISPLACEMENT 1200
GEOM_OPT_TOL_ENERGY       100
SYMMETRY                  False
THRESH                    12
SCF_CONVERGENCE           8
MAX_SUB_FILE_NUM          128
MEM_STATIC                400
MEM_TOTAL                 4000
$end
--------------------------------------------------------------

   16   -1509.9929215928      8.03E-09 Convergence criterion met
 Total energy in the final basis set = -1509.99292159
   14   -1510.0211341592      3.44E-09 Convergence criterion met
 Total energy in the final basis set = -1510.02113416
   14   -1510.0460491095      5.86E-09 Convergence criterion met
 Total energy in the final basis set = -1510.04604911
   14   -1510.0589420992      3.79E-09 Convergence criterion met
 Total energy in the final basis set = -1510.05894210
   14   -1510.0709928207      3.32E-09 Convergence criterion met
 Total energy in the final basis set = -1510.07099282
   14   -1510.0791271858      2.62E-09 Convergence criterion met
 Total energy in the final basis set = -1510.07912719
   13   -1510.0856232239      6.65E-09 Convergence criterion met
 Total energy in the final basis set = -1510.08562322
   13   -1510.0905677731      5.95E-09 Convergence criterion met
   12   -1510.1819850712      4.74E-09 Convergence criterion met
 Total energy in the final basis set = -1510.18198507
   12   -1510.1819651055      4.99E-09 Convergence criterion met
 Total energy in the final basis set = -1510.18196511
   11   -1510.1819915027      7.51E-09 Convergence criterion met
 Total energy in the final basis set = -1510.18199150
   10   -1510.1819928208      6.12E-09 Convergence criterion met
 Total energy in the final basis set = -1510.18199282
   11   -1510.1819897940      2.91E-09 Convergence criterion met
 Total energy in the final basis set = -1510.18198979
   11   -1510.1819894142      2.86E-09 Convergence criterion met
 Total energy in the final basis set = -1510.18198941

             Standard Nuclear Orientation (Angstroms)
    I     Atom           X                Y                Z
 ----------------------------------------------------------------
    1      O      -1.9690314803    -1.7448282809    -0.4289760819
    2      C      -3.0202671784    -2.2544686560     0.3915955935
    3      C      -0.4724313546     0.3603628580     1.0058059823
    4      C      -0.9128120495     1.6109521989     0.1341372352
    5      C      -1.0221299068     1.3563286515    -1.4274837941
    6      O      -0.0919791613     1.9744043837    -2.3473980401
    7      C       1.1059816195     2.6317117146    -1.7865426633
    8      C       2.1178313998     1.6606120547    -1.0539623260
    9      O       2.2055507122     2.1380610055     0.3444524772
   10      C       2.4285476321     1.1796632211     1.3758980538
   11      C       2.6764362857    -0.3729736302     1.1348106637
   12      C       1.4879381544    -1.4041698046     0.8567101156
   13      C       0.1240144840    -0.8861536709     0.2004134468
   14      O      -0.7124668616    -2.1142667299     0.2635851621
   15      O      -4.1714018354    -1.9254662258    -0.2672092442
   16      O       0.3242289906    -0.4069825951    -1.1852359444
   17      O       2.4690774389     1.6384681879     2.5449508411
   18      C       0.1501433124    -1.4193685980    -2.2465650995
   19      C       3.7373552492    -0.8135820318     0.0229808246
   20      C       4.5399486665    -2.0324327643     0.6178044203
   21      C       3.4147159129    -3.1321802771     0.6321998432
   22      C       2.2394461217    -2.3950002169    -0.1250619421
   23      O       2.9291560187    -1.4521342406    -1.0420913715
   24      H       3.0876946568    -0.6630423465     2.1181535012
   25      H       1.2001407653    -1.8995388404     1.8017857097
   26      H       4.3575816855     0.0032678915    -0.3920739490
   27      H       5.3652406936    -2.3121825217    -0.0567748340
   28      H       4.9520090253    -1.8220341375     1.6174777780
   29      H       3.7195008004    -4.0355082074     0.0812303029
   30      H       3.1206492863    -3.4252774215     1.6528467866
   31      H       1.5679257157    -3.0715303648    -0.6839925269
   32      O      -2.0185637215     0.8248895229    -1.9798676276
   33      C      -4.0939603432    -1.1502286575    -1.5590544512
   34      C      -1.7953054922     0.0803527400     1.8395372488
   35      C      -1.8628688865     1.1543608879     2.9945024624
   36      C      -2.2369588563     2.4481599364     2.1803362210
   37      C      -2.3687075877     1.8648509462     0.7180897444
   38      O      -2.8893904410     0.4963979602     0.9324125609
   39      H       0.3085149047     0.6803357939     1.7099754984
   40      H      -0.2358145381     2.4558665087     0.3368271877
   41      H      -3.8256889834    -1.8431763562    -2.3803888406
   42      H      -1.9334821896    -0.9735701686     2.1520124465
   43      H      -2.6535889703     0.8879703150     3.7136816522
   44      H      -0.9076172068     1.2505091518     3.5352773251
   45      H      -3.1979047173     2.8715287081     2.5129853553
   46      H      -1.4643490386     3.2310194780     2.2470770606
   47      H      -3.0380535416     2.4292607744     0.0404349054
   48      H      -3.3464516414    -0.3164719680    -1.5142310703
   49      H      -5.1146694078    -0.7624832750    -1.7265335420
   50      H       1.1152466019    -1.5522612574    -2.7747857222
   51      H      -0.6141894344    -1.0230430670    -2.9468523213
   52      H      -0.1976130036    -2.3849313774    -1.8389746470
   53      H       1.7093675664     0.6214192764    -1.1354851393
   54      H       3.1191673358     1.7289062995    -1.5282180721
   55      H       0.8421573517     3.4614141595    -1.0931385995
   56      H       1.5939506582     3.0800285674    -2.6760476771
 ----------------------------------------------------------------

    9   -1510.1819899968      3.50E-09 Convergence criterion met
 Total energy in the final basis set = -1510.18199000
 Final energy is   -1510.18198999681
 **  OPTIMIZATION CONVERGED  **

                    Orbital Energies (a.u.)
 --------------------------------------------------------------

 Alpha MOs
 -- Occupied --
-18.971 -18.962 -18.957 -18.940 -18.938 -18.919 -18.902 -18.887
-18.873 -18.857 -10.129 -10.109 -10.101 -10.073 -10.072 -10.071
-10.066 -10.060 -10.057 -10.057 -10.053 -10.046 -10.038 -10.035
-10.034 -10.032 -10.031 -10.019 -10.017  -9.973  -1.073  -1.014
 -1.004  -0.995  -0.986  -0.972  -0.971  -0.941  -0.925  -0.860
 -0.777  -0.763  -0.735  -0.719  -0.716  -0.706  -0.703  -0.669
 -0.655  -0.624  -0.605  -0.592  -0.560  -0.552  -0.544  -0.541
 -0.530  -0.515  -0.500  -0.489  -0.483  -0.466  -0.459  -0.447
 -0.441  -0.439  -0.434  -0.428  -0.421  -0.415  -0.408  -0.403
 -0.397  -0.394  -0.388  -0.382  -0.375  -0.371  -0.366  -0.356
 -0.347  -0.340  -0.340  -0.333  -0.329  -0.325  -0.320  -0.319
 -0.313  -0.310  -0.305  -0.303  -0.296  -0.292  -0.285  -0.274
 -0.272  -0.253  -0.250  -0.245  -0.235  -0.231  -0.227  -0.214
 -0.186  -0.170  -0.167  -0.161  -0.160  -0.152  -0.144  -0.140
 -0.129

          Ground-State Mulliken Net Atomic Charges

     Atom                 Charge (a.u.)
  ----------------------------------------
      1 O                    -0.106635
      2 C                     0.061740
      3 C                    -0.079351
      4 C                    -0.088616
      5 C                     0.224125
      6 O                    -0.176266
      7 C                    -0.049196
      8 C                    -0.076246
      9 O                    -0.177645
     10 C                     0.198914
     11 C                    -0.092226
     12 C                    -0.071929
     13 C                     0.176335
     14 O                    -0.095398
     15 O                    -0.151553
     16 O                    -0.181615
     17 O                    -0.210032
     18 C                    -0.130831
     19 C                     0.021421
     20 C                    -0.141420
     21 C                    -0.144887
     22 C                     0.019167
     23 O                    -0.194149
     24 H                     0.089647
     25 H                     0.087476
     26 H                     0.083222
     27 H                     0.079770
     28 H                     0.077178
     29 H                     0.080610
     30 H                     0.076957
     31 H                     0.086076
     32 O                    -0.230302
     33 C                    -0.153706
     34 C                     0.018056
     35 C                    -0.143577
     36 C                    -0.144686
     37 C                     0.026005
     38 O                    -0.191756
     39 H                     0.084557
     40 H                     0.085719
     41 H                     0.079692
     42 H                     0.098287
     43 H                     0.080025
     44 H                     0.076081
     45 H                     0.078625
     46 H                     0.075193
     47 H                     0.084945
     48 H                     0.131255
     49 H                     0.085596
     50 H                     0.093239
     51 H                     0.100673
     52 H                     0.097473
     53 H                     0.124660
     54 H                     0.075907
     55 H                     0.083999
     56 H                     0.089398
  ----------------------------------------
  Sum of atomic charges =    -0.000000

                    Cartesian Multipole Moments
 -----------------------------------------------------------------
    Charge (ESU x 10^10)
                 0.0000
    Dipole Moment (Debye)
         X       3.7353      Y      -0.1649      Z      -0.5547
       Tot       3.7798
    Quadrupole Moments (Debye-Ang)
        XX    -163.9369     XY     -12.6173     YY    -159.6478
        XZ      -0.6282     YZ       0.9742     ZZ    -165.1432

 Total job time:  236.12s(wall), 11272.99s(cpu)
        *  Thank you very much for using Q-Chem.  Have a nice day.  *
