 Q-Chem 5.0, Q-Chem, Inc., Pleasanton, CA (2017)
 Q-Chem 5.0.1 for Intel X86 EM64T Linux

User input:
--------------------------------------------------------------
$molecule
0  1
O -3.94934 -3.66094 2.70899
C -3.26408 -4.56952 2.26188
C -3.36658 -6.02376 2.66595
C -3.9434 -6.32711 4.05847
C -4.51789 -5.15366 4.82075
O -3.72809 -4.05359 4.64328
C -4.35353 -3.03183 3.85964
C -3.36192 -2.46254 2.8503
O -2.02901 -2.5328 3.38066
C -1.06765 -2.89558 2.4956
C 0.1659 -3.45519 3.16332
C 1.28277 -3.88723 2.20197
C 1.16242 -3.38037 0.77883
O 2.09099 -3.23641 -0.00322
O -2.84038 -4.50987 0.96188
O 0.01299 -3.76428 0.14578
O -0.97285 -2.1234 1.55172
C -0.23576 -3.70401 -1.21936
C 0.91794 -2.41505 4.02001
C 1.7483 -3.13484 5.0804
C 2.82419 -3.76047 4.21686
C 2.46993 -3.15113 2.85442
O 1.91078 -1.89992 3.16958
H -0.17435 -4.28544 3.8233
H 1.42331 -4.98949 2.15681
H 0.24897 -1.66695 4.49873
H 2.21428 -2.34557 5.71325
H 1.19182 -3.84265 5.73178
H 3.81379 -3.39774 4.57315
H 2.81494 -4.87135 4.17557
H 3.37032 -3.12894 2.20185
O -5.68264 -5.07827 5.19214
C -3.38214 -3.71824 -0.03369
C -4.3779 -6.80477 1.79189
C -4.03981 -8.29414 1.81241
C -4.45792 -8.65827 3.22032
C -5.0542 -7.32531 3.68515
O -5.58458 -6.75934 2.51335
H -2.35108 -6.46165 2.53222
H -3.17528 -6.77493 4.72662
H -3.03174 -2.67352 0.0299
H -4.43144 -6.45124 0.73969
H -4.73139 -8.79633 1.09819
H -2.9913 -8.54774 1.54568
H -5.24737 -9.4403 3.16108
H -3.63614 -8.99707 3.88779
H -5.77238 -7.50074 4.51581
H -4.49174 -3.76998 -0.00743
H -3.06189 -4.11754 -1.01596
H -1.06926 -3.00156 -1.41077
H -0.51151 -4.71443 -1.58475
H 0.62951 -3.3416 -1.81278
H -3.48036 -1.79386 1.91112
H -3.58211 -1.37547 3.05432
H -4.41302 -2.23372 4.65078
H -5.53212 -3.00421 3.81162
$end

$opt
CONSTRAINT
tors           1           2           3           4     -24.651
tors           3           4           5           6     -39.988
tors           4           5           6           7    +111.018
tors           5           6           7           8    -136.596
tors           6           7           8           9     -30.562
tors           7           8           9          10    +139.603
tors           8           9          10          11    -158.177
tors           9          10          11          12    +179.732
tors          11          12          13          14    +155.449
ENDCONSTRAINT
$end

$rem
JOBTYPE                   OPT
METHOD                    B3LYP
DFT_D                     d3_op
BASIS                     STO-3G
GEOM_OPT_MAX_CYCLES       100
GEOM_OPT_TOL_GRADIENT     300
GEOM_OPT_TOL_DISPLACEMENT 1200
GEOM_OPT_TOL_ENERGY       100
SYMMETRY                  False
THRESH                    12
SCF_CONVERGENCE           8
MAX_SUB_FILE_NUM          128
MEM_STATIC                400
MEM_TOTAL                 4000
$end
--------------------------------------------------------------

   18   -1509.4723967732      9.36E-09 Convergence criterion met
 Total energy in the final basis set = -1509.47239677
   15   -1509.6241409287      2.27E-09 Convergence criterion met
 Total energy in the final basis set = -1509.62414093
   15   -1509.7335746492      3.15E-09 Convergence criterion met
 Total energy in the final basis set = -1509.73357465
   15   -1509.8196485863      3.41E-09 Convergence criterion met
 Total energy in the final basis set = -1509.81964859
   14   -1509.8901387103      7.42E-09 Convergence criterion met
 Total energy in the final basis set = -1509.89013871
   14   -1509.9476658630      7.44E-09 Convergence criterion met
 Total energy in the final basis set = -1509.94766586
   14   -1509.9958762192      3.62E-09 Convergence criterion met
 Total energy in the final basis set = -1509.99587622
   14   -1510.0364356436      5.28E-09 Convergence criterion met
   12   -1510.2516624793      4.02E-09 Convergence criterion met
 Total energy in the final basis set = -1510.25166248
   11   -1510.2517014184      4.88E-09 Convergence criterion met
 Total energy in the final basis set = -1510.25170142
   11   -1510.2517498325      4.99E-09 Convergence criterion met
 Total energy in the final basis set = -1510.25174983
   11   -1510.2517876011      8.49E-09 Convergence criterion met
 Total energy in the final basis set = -1510.25178760
   11   -1510.2518037985      4.92E-09 Convergence criterion met
 Total energy in the final basis set = -1510.25180380
   11   -1510.2518149818      2.87E-09 Convergence criterion met
 Total energy in the final basis set = -1510.25181498

             Standard Nuclear Orientation (Angstroms)
    I     Atom           X                Y                Z
 ----------------------------------------------------------------
    1      O       2.9135689863    -0.8555364539     2.0281173927
    2      C       1.9744329482    -1.1358923280     1.2519668716
    3      C       1.8720542381    -0.7967725167    -0.2739192453
    4      C       2.7461822081     0.4531980917    -0.6803290061
    5      C       2.8681989127     1.6866433066     0.3019808560
    6      O       1.6086892449     1.9910619753     0.9409334265
    7      C       1.5260471756     1.7222594694     2.3911411008
    8      C       0.1134421546     1.0392812486     2.5638588753
    9      O      -0.7364706552     1.6254729319     1.4973186056
   10      C      -1.5698036366     0.6261183150     0.9101728077
   11      C      -1.9930513992     1.1462919036    -0.5162538016
   12      C      -2.9134473569     0.1095152436    -1.2554323764
   13      C      -2.5998921484    -1.3953995844    -0.9468317207
   14      O      -3.3860223607    -2.3633548288    -1.0352762224
   15      O       0.8492355070    -1.9512880982     1.6310906629
   16      O      -1.1678296343    -1.5391526323    -0.8822398198
   17      O      -1.8788051186    -0.4557343866     1.4550914392
   18      C      -0.7942939601    -2.9546278593    -0.6496968255
   19      C      -3.0660107885     2.2881335146    -0.2426282548
   20      C      -3.6310348923     2.8701230386    -1.5999585799
   21      C      -4.6754735869     1.7631009100    -2.0079718185
   22      C      -4.3643231203     0.6635661430    -0.9208327243
   23      O      -4.1863764047     1.4792909566     0.3049798782
   24      H      -1.1102795309     1.4710607475    -1.0933254195
   25      H      -2.7445780261     0.2048143028    -2.3456778891
   26      H      -2.7360160409     3.0457038350     0.4947014752
   27      H      -4.1138222794     3.8458761549    -1.4335655687
   28      H      -2.8348331633     2.9956859819    -2.3514473807
   29      H      -5.7094602070     2.1280687496    -1.8984444277
   30      H      -4.5347536670     1.3961221937    -3.0372640471
   31      H      -5.1394022959    -0.1134523609    -0.7733150442
   32      O       3.9056535878     2.3645497993     0.4574830379
   33      C       1.0201767399    -2.4917462875     3.0010847025
   34      C       2.7373837327    -1.9338359912    -0.9848185087
   35      C       2.7633792577    -1.7157765790    -2.5510564540
   36      C       3.8686334624    -0.6022420771    -2.6950154163
   37      C       4.0934846194    -0.2317946376    -1.1779160914
   38      O       4.1037138827    -1.5682761042    -0.5362223101
   39      H       0.8135154727    -0.7508010598    -0.6006542189
   40      H       2.2530307756     0.8900311542    -1.5726162886
   41      H       0.0109737415    -2.5756826001     3.4453952939
   42      H       2.4833345053    -2.9619027674    -0.6607753855
   43      H       3.0486633959    -2.6459087225    -3.0671676428
   44      H       1.7817946707    -1.3891790918    -2.9314318519
   45      H       4.7944010056    -1.0124798978    -3.1300618822
   46      H       3.5391791252     0.2557069540    -3.3023989110
   47      H       5.0161444308     0.3321725545    -0.9389899485
   48      H       1.6592506984    -1.8209679213     3.6083498084
   49      H       1.4909051984    -3.4949765045     2.9587310876
   50      H      -1.7093022241    -3.5682006583    -0.5375375822
   51      H      -0.1721539757    -2.9736671938     0.2702745282
   52      H      -0.2055352313    -3.3186568886    -1.5149556613
   53      H       0.1590750699    -0.0595830995     2.4295846046
   54      H      -0.3093335789     1.2586057861     3.5686356818
   55      H       1.5679582244     2.6791968675     2.9582528715
   56      H       2.3314459057     1.0453539512     2.7485949197
 ----------------------------------------------------------------

   10   -1510.2518159639      7.07E-09 Convergence criterion met
 Total energy in the final basis set = -1510.25181596
 Final energy is   -1510.25181596386
 **  OPTIMIZATION CONVERGED  **

                    Orbital Energies (a.u.)
 --------------------------------------------------------------

 Alpha MOs
 -- Occupied --
-18.950 -18.929 -18.923 -18.899 -18.899 -18.891 -18.891 -18.885
-18.878 -18.871 -10.112 -10.110 -10.099 -10.097 -10.072 -10.072
-10.066 -10.066 -10.062 -10.059 -10.058 -10.043 -10.042 -10.037
-10.037 -10.036 -10.026 -10.023 -10.021 -10.019  -1.025  -1.013
 -1.004  -1.001  -0.975  -0.969  -0.950  -0.943  -0.930  -0.926
 -0.767  -0.764  -0.729  -0.725  -0.713  -0.707  -0.696  -0.672
 -0.652  -0.614  -0.601  -0.580  -0.548  -0.545  -0.542  -0.536
 -0.519  -0.507  -0.491  -0.480  -0.466  -0.461  -0.458  -0.452
 -0.441  -0.431  -0.430  -0.421  -0.419  -0.406  -0.405  -0.401
 -0.387  -0.382  -0.377  -0.373  -0.364  -0.360  -0.355  -0.352
 -0.349  -0.345  -0.335  -0.334  -0.330  -0.326  -0.321  -0.319
 -0.313  -0.311  -0.308  -0.305  -0.298  -0.284  -0.282  -0.277
 -0.271  -0.259  -0.250  -0.246  -0.238  -0.233  -0.231  -0.192
 -0.173  -0.171  -0.164  -0.159  -0.157  -0.152  -0.151  -0.146
 -0.144

          Ground-State Mulliken Net Atomic Charges

     Atom                 Charge (a.u.)
  ----------------------------------------
      1 O                    -0.211721
      2 C                     0.213580
      3 C                    -0.083141
      4 C                    -0.082619
      5 C                     0.223027
      6 O                    -0.201024
      7 C                    -0.046480
      8 C                    -0.054118
      9 O                    -0.170790
     10 C                     0.220102
     11 C                    -0.074861
     12 C                    -0.080343
     13 C                     0.218157
     14 O                    -0.216085
     15 O                    -0.168772
     16 O                    -0.182130
     17 O                    -0.207905
     18 C                    -0.146866
     19 C                     0.023449
     20 C                    -0.145661
     21 C                    -0.141171
     22 C                     0.023975
     23 O                    -0.191889
     24 H                     0.088292
     25 H                     0.082390
     26 H                     0.087236
     27 H                     0.078526
     28 H                     0.073166
     29 H                     0.078154
     30 H                     0.072921
     31 H                     0.090380
     32 O                    -0.184218
     33 C                    -0.134411
     34 C                     0.023854
     35 C                    -0.145549
     36 C                    -0.140742
     37 C                     0.023696
     38 O                    -0.189692
     39 H                     0.105081
     40 H                     0.082191
     41 H                     0.097062
     42 H                     0.081414
     43 H                     0.078688
     44 H                     0.075452
     45 H                     0.078806
     46 H                     0.074060
     47 H                     0.091894
     48 H                     0.098691
     49 H                     0.087909
     50 H                     0.097888
     51 H                     0.100962
     52 H                     0.073925
     53 H                     0.094632
     54 H                     0.081499
     55 H                     0.082266
     56 H                     0.096864
  ----------------------------------------
  Sum of atomic charges =    -0.000000

                    Cartesian Multipole Moments
 -----------------------------------------------------------------
    Charge (ESU x 10^10)
                -0.0000
    Dipole Moment (Debye)
         X       0.1195      Y      -0.4048      Z      -1.5715
       Tot       1.6272
    Quadrupole Moments (Debye-Ang)
        XX    -180.3198     XY     -10.1119     YY    -160.5850
        XZ       0.6829     YZ      -4.0393     ZZ    -147.0886

 Total job time:  247.89s(wall), 11833.55s(cpu)
        *  Thank you very much for using Q-Chem.  Have a nice day.  *
