 Q-Chem 5.0, Q-Chem, Inc., Pleasanton, CA (2017)
 Q-Chem 5.0.1 for Intel X86 EM64T Linux

User input:
--------------------------------------------------------------
$molecule
0  1
O 2.9135689863 -0.8555364539 2.0281173927
C 1.9744329482 -1.135892328 1.2519668716
C 1.8720542381 -0.7967725167 -0.2739192453
C 2.7461822081 0.4531980917 -0.6803290061
C 2.8681989127 1.6866433066 0.301980856
O 1.6086892449 1.9910619753 0.9409334265
C 1.5260471756 1.7222594694 2.3911411008
C 0.1134421546 1.0392812486 2.5638588753
O -0.7364706552 1.6254729319 1.4973186056
C -1.5698036366 0.626118315 0.9101728077
C -1.9930513992 1.1462919036 -0.5162538016
C -2.9134473569 0.1095152436 -1.2554323764
C -2.5998921484 -1.3953995844 -0.9468317207
O -3.3860223607 -2.3633548288 -1.0352762224
O 0.849235507 -1.9512880982 1.6310906629
O -1.1678296343 -1.5391526323 -0.8822398198
O -1.8788051186 -0.4557343866 1.4550914392
C -0.7942939601 -2.9546278593 -0.6496968255
C -3.0660107885 2.2881335146 -0.2426282548
C -3.6310348923 2.8701230386 -1.5999585799
C -4.6754735869 1.76310091 -2.0079718185
C -4.3643231203 0.663566143 -0.9208327243
O -4.1863764047 1.4792909566 0.3049798782
H -1.1102795309 1.4710607475 -1.0933254195
H -2.7445780261 0.2048143028 -2.3456778891
H -2.7360160409 3.045703835 0.4947014752
H -4.1138222794 3.8458761549 -1.4335655687
H -2.8348331633 2.9956859819 -2.3514473807
H -5.709460207 2.1280687496 -1.8984444277
H -4.534753667 1.3961221937 -3.0372640471
H -5.1394022959 -0.1134523609 -0.7733150442
O 3.9056535878 2.3645497993 0.4574830379
C 1.0201767399 -2.4917462875 3.0010847025
C 2.7373837327 -1.9338359912 -0.9848185087
C 2.7633792577 -1.715776579 -2.551056454
C 3.8686334624 -0.6022420771 -2.6950154163
C 4.0934846194 -0.2317946376 -1.1779160914
O 4.1037138827 -1.5682761042 -0.5362223101
H 0.8135154727 -0.7508010598 -0.6006542189
H 2.2530307756 0.8900311542 -1.5726162886
H 0.0109737415 -2.5756826001 3.4453952939
H 2.4833345053 -2.9619027674 -0.6607753855
H 3.0486633959 -2.6459087225 -3.0671676428
H 1.7817946707 -1.3891790918 -2.9314318519
H 4.7944010056 -1.0124798978 -3.1300618822
H 3.5391791252 0.255706954 -3.302398911
H 5.0161444308 0.3321725545 -0.9389899485
H 1.6592506984 -1.8209679213 3.6083498084
H 1.4909051984 -3.4949765045 2.9587310876
H -1.7093022241 -3.5682006583 -0.5375375822
H -0.1721539757 -2.9736671938 0.2702745282
H -0.2055352313 -3.3186568886 -1.5149556613
H 0.1590750699 -0.0595830995 2.4295846046
H -0.3093335789 1.2586057861 3.5686356818
H 1.5679582244 2.6791968675 2.9582528715
H 2.3314459057 1.0453539512 2.7485949197
$end

$rem
JOBTYPE                   OPT
METHOD                    B3LYP
DFT_D                     d3_op
BASIS                     STO-3G
GEOM_OPT_MAX_CYCLES       100
GEOM_OPT_TOL_GRADIENT     300
GEOM_OPT_TOL_DISPLACEMENT 1200
GEOM_OPT_TOL_ENERGY       100
SYMMETRY                  False
THRESH                    12
SCF_CONVERGENCE           8
MAX_SUB_FILE_NUM          128
MEM_STATIC                400
MEM_TOTAL                 4000
$end
--------------------------------------------------------------

   16   -1510.2515944804      5.67E-09 Convergence criterion met
 Total energy in the final basis set = -1510.25159448
   14   -1510.2531897409      5.68E-09 Convergence criterion met
 Total energy in the final basis set = -1510.25318974
   13   -1510.2553860763      8.85E-09 Convergence criterion met
 Total energy in the final basis set = -1510.25538608
   14   -1510.2568683599      4.70E-09 Convergence criterion met
 Total energy in the final basis set = -1510.25686836
   15   -1510.2619050679      2.78E-09 Convergence criterion met
 Total energy in the final basis set = -1510.26190507
   14   -1510.2693706734      3.65E-09 Convergence criterion met
 Total energy in the final basis set = -1510.26937067
   13   -1510.2752571231      7.67E-09 Convergence criterion met
 Total energy in the final basis set = -1510.27525712
   13   -1510.2800542304      3.37E-09 Convergence criterion met
   10   -1510.3072458781      5.77E-09 Convergence criterion met
 Total energy in the final basis set = -1510.30724588
    9   -1510.3072482546      8.27E-09 Convergence criterion met
 Total energy in the final basis set = -1510.30724825
    9   -1510.3072485086      2.01E-09 Convergence criterion met
 Total energy in the final basis set = -1510.30724851
    9   -1510.3072490703      2.44E-09 Convergence criterion met
 Total energy in the final basis set = -1510.30724907
    9   -1510.3072501746      3.97E-09 Convergence criterion met
 Total energy in the final basis set = -1510.30725017
    9   -1510.3072504734      2.94E-09 Convergence criterion met
 Total energy in the final basis set = -1510.30725047

             Standard Nuclear Orientation (Angstroms)
    I     Atom           X                Y                Z
 ----------------------------------------------------------------
    1      O       1.8495543478    -0.5692774836    -1.4016614149
    2      C       1.8392013983     0.5813513837    -0.9057450458
    3      C       2.6216527309     1.0709726275     0.3573163747
    4      C       3.2353274942    -0.1111122101     1.2116512919
    5      C       2.8458803254    -1.5448484753     0.7062082063
    6      O       1.5041560814    -1.8139985072     1.1530386797
    7      C       1.0339038134    -3.0950166180     0.5790514499
    8      C       0.0276542794    -2.8126708523    -0.5936948296
    9      O      -1.3340240222    -2.5191627784    -0.0804815289
   10      C      -1.5516993734    -1.1220794072     0.0786448526
   11      C      -3.0093277166    -0.8991770546     0.6124885892
   12      C      -3.4906003103     0.6022687135     0.4593240034
   13      C      -2.4236856209     1.5678052074    -0.1796951126
   14      O      -2.3033973927     1.8410994614    -1.3982325039
   15      O       1.1423099364     1.6971273144    -1.4577970297
   16      O      -1.7169413892     2.2142620630     0.8768992808
   17      O      -0.7187764449    -0.2269343576    -0.1902813451
   18      C      -0.7008161098     3.1435465206     0.3242650700
   19      C      -4.0858921155    -1.6572457449    -0.2759518655
   20      C      -5.4577903788    -1.6768796314     0.5065668751
   21      C      -5.9332697506    -0.1873319962     0.3237972290
   22      C      -4.7347689943     0.4140597849    -0.5094927460
   23      O      -4.3259779408    -0.7083801133    -1.3858982905
   24      H      -3.0503886062    -1.2332428699     1.6656599227
   25      H      -3.7865180164     1.0194009402     1.4377678026
   26      H      -3.7391199048    -2.6358874850    -0.6607109342
   27      H      -6.1584020541    -2.3859524556     0.0376522519
   28      H      -5.3271658886    -1.9566189426     1.5640882784
   29      H      -6.8692505533    -0.1315656629    -0.2544032943
   30      H      -6.0782058078     0.3346750595     1.2831557828
   31      H      -4.9755229454     1.3068298985    -1.1182423337
   32      O       3.5793176383    -2.3779012946     0.1316171749
   33      C       0.3083636094     1.3072856835    -2.6251647043
   34      C       3.9457666849     1.8401455169    -0.0768060411
   35      C       4.5328790003     2.5845125755     1.1870948612
   36      C       5.1686878021     1.3830869186     1.9813467486
   37      C       4.7872020606     0.1688249995     1.0480134770
   38      O       4.9011106313     0.7367364548    -0.3166693627
   39      H       1.9540610058     1.7125882687     0.9590756818
   40      H       2.9127130288    -0.0261044952     2.2647254869
   41      H      -0.7555919165     1.5060412458    -2.3489062638
   42      H       3.8295075642     2.4656591708    -0.9833099528
   43      H       5.2957813141     3.3185364831     0.8823158713
   44      H       3.7489655972     3.1068425696     1.7587058303
   45      H       6.2632906623     1.4835978458     2.0547409151
   46      H       4.7536640109     1.2751346127     2.9960228912
   47      H       5.4214308018    -0.7338352466     1.1417842770
   48      H       0.4677810756     0.2361452935    -2.8529975848
   49      H       0.6116583629     1.9311286910    -3.4876423499
   50      H      -1.1778928351     3.9364172584    -0.2866716485
   51      H       0.0521708515     2.6031613389    -0.3016164809
   52      H      -0.2116598595     3.6054008161     1.2011682325
   53      H       0.4312563617    -1.9617338180    -1.1908050237
   54      H      -0.0775681642    -3.7177924498    -1.2260431019
   55      H       0.5393299951    -3.6738869977     1.3862991485
   56      H       1.9141308949    -3.6525660689     0.1885206070
 ----------------------------------------------------------------

    9   -1510.3072509568      3.61E-09 Convergence criterion met
 Total energy in the final basis set = -1510.30725096
 Final energy is   -1510.30725095678
 **  OPTIMIZATION CONVERGED  **

                    Orbital Energies (a.u.)
 --------------------------------------------------------------

 Alpha MOs
 -- Occupied --
-18.943 -18.939 -18.924 -18.921 -18.888 -18.886 -18.885 -18.884
-18.868 -18.861 -10.109 -10.107 -10.095 -10.094 -10.064 -10.062
-10.062 -10.059 -10.057 -10.057 -10.040 -10.040 -10.039 -10.038
-10.035 -10.033 -10.021 -10.020 -10.020 -10.019  -1.020  -1.014
 -1.002  -0.999  -0.970  -0.969  -0.943  -0.941  -0.929  -0.925
 -0.764  -0.762  -0.726  -0.722  -0.712  -0.706  -0.693  -0.654
 -0.651  -0.615  -0.595  -0.577  -0.545  -0.543  -0.537  -0.535
 -0.512  -0.510  -0.479  -0.473  -0.463  -0.455  -0.453  -0.452
 -0.433  -0.432  -0.425  -0.419  -0.416  -0.405  -0.399  -0.390
 -0.389  -0.379  -0.370  -0.368  -0.361  -0.355  -0.351  -0.348
 -0.342  -0.337  -0.334  -0.332  -0.327  -0.325  -0.324  -0.315
 -0.311  -0.308  -0.304  -0.300  -0.297  -0.280  -0.275  -0.273
 -0.270  -0.254  -0.250  -0.242  -0.239  -0.234  -0.234  -0.189
 -0.179  -0.168  -0.161  -0.159  -0.156  -0.150  -0.145  -0.144
 -0.143

          Ground-State Mulliken Net Atomic Charges

     Atom                 Charge (a.u.)
  ----------------------------------------
      1 O                    -0.211875
      2 C                     0.233217
      3 C                    -0.077068
      4 C                    -0.080075
      5 C                     0.217219
      6 O                    -0.179580
      7 C                    -0.057052
      8 C                    -0.058722
      9 O                    -0.173365
     10 C                     0.219044
     11 C                    -0.077879
     12 C                    -0.081745
     13 C                     0.220583
     14 O                    -0.228309
     15 O                    -0.169311
     16 O                    -0.172102
     17 O                    -0.212374
     18 C                    -0.147039
     19 C                     0.024070
     20 C                    -0.144006
     21 C                    -0.144152
     22 C                     0.025419
     23 O                    -0.189526
     24 H                     0.086203
     25 H                     0.084140
     26 H                     0.089048
     27 H                     0.077990
     28 H                     0.073088
     29 H                     0.077904
     30 H                     0.073260
     31 H                     0.086472
     32 O                    -0.214634
     33 C                    -0.146017
     34 C                     0.025093
     35 C                    -0.143746
     36 C                    -0.143804
     37 C                     0.024926
     38 O                    -0.188267
     39 H                     0.089959
     40 H                     0.085435
     41 H                     0.117848
     42 H                     0.085262
     43 H                     0.078468
     44 H                     0.073663
     45 H                     0.078295
     46 H                     0.073412
     47 H                     0.089410
     48 H                     0.094827
     49 H                     0.081485
     50 H                     0.078857
     51 H                     0.110788
     52 H                     0.077082
     53 H                     0.113663
     54 H                     0.087706
     55 H                     0.084559
     56 H                     0.102250
  ----------------------------------------
  Sum of atomic charges =    -0.000000

                    Cartesian Multipole Moments
 -----------------------------------------------------------------
    Charge (ESU x 10^10)
                -0.0000
    Dipole Moment (Debye)
         X      -1.4353      Y       0.6930      Z       3.0076
       Tot       3.4038
    Quadrupole Moments (Debye-Ang)
        XX    -159.0291     XY       9.1249     YY    -153.5895
        XZ       0.8331     YZ      -0.4001     ZZ    -159.2933

 Total job time:  145.20s(wall), 6930.73s(cpu)
        *  Thank you very much for using Q-Chem.  Have a nice day.  *
