 Q-Chem 5.0, Q-Chem, Inc., Pleasanton, CA (2017)
 Q-Chem 5.0.1 for Intel X86 EM64T Linux

User input:
--------------------------------------------------------------
$molecule
0  1
O -5.1577698132 0.3838292458 2.5152290996
C -4.7538123445 0.1482576244 1.3546105504
C -3.7278415111 1.017168256 0.5395184001
C -2.633004234 0.2190054419 -0.2733508579
C -2.375328371 -1.251614222 0.2014082167
O -1.1085314983 -1.6449127456 -0.3458187881
C -0.6432525528 -2.9142823737 0.2644609346
C 0.7236715995 -2.6373710159 0.9994206195
O 1.2552639844 -1.3516695793 0.491139603
C 2.6988652351 -1.358809786 0.4829326546
C 3.168090172 0.0649366365 0.9479201525
C 4.6520786143 0.5035288293 0.6408164712
C 5.3341314106 -0.0886862476 -0.6504209064
O 6.4957077683 0.1781396124 -1.0325959376
O -5.3410011757 -0.8262166438 0.4865854948
O 4.3782954255 -0.7724365698 -1.4607454659
O 3.386810829 -2.3936541256 0.3576856844
C 5.0026871349 -1.208172743 -2.7298604429
C 2.3362063518 1.308118013 0.4011184977
C 2.3239816962 2.3888026059 1.5495227947
C 3.8404703925 2.8135321384 1.5557367769
C 4.3896739047 2.0387370893 0.2903500277
O 3.2173524993 1.9321525101 -0.6122497268
H 3.0437147155 0.0222410943 2.0479463461
H 5.3245030785 0.3689059159 1.5061826702
H 1.3518199099 1.0436070051 -0.0310299751
H 1.6720550014 3.2330089225 1.2726886994
H 1.9862203481 1.9796463272 2.5151204014
H 3.9610019963 3.9006430324 1.4269463294
H 4.3604179115 2.5086174098 2.4781884618
H 5.2373046043 2.5277660107 -0.2285512982
O -3.028612503 -1.9499185236 1.0079283554
C -6.3381475116 -1.6276376046 1.2294072824
C -4.5094259729 1.7035137431 -0.6682053347
C -3.5730016567 2.7691356079 -1.36856603
C -2.6394292719 1.8420956385 -2.233478001
C -3.1371664848 0.4157584215 -1.7743693349
O -4.5991235575 0.6024537902 -1.65497913
H -3.2765992365 1.7526900286 1.2273873409
H -1.6553080632 0.7236437362 -0.1646679201
H -7.1295350146 -0.9898245354 1.6738487865
H -5.5209328958 2.0695699429 -0.4054900778
H -4.1665308984 3.4500627237 -1.9989891424
H -3.0128651141 3.3692289639 -0.6333421411
H -2.8226015192 1.9816046177 -3.3110489172
H -1.5678660639 1.999904035 -2.032277791
H -2.9003345219 -0.4197219818 -2.4612504774
H -5.8601311008 -2.2161571075 2.0389854342
H -6.7864244482 -2.3155627635 0.4891957075
H 4.1920835658 -1.6709800122 -3.3221218379
H 5.804460411 -1.9539055217 -2.5531861886
H 5.4328941517 -0.3513589829 -3.28745366
H 0.5583127386 -2.5377847782 2.0953015011
H 1.4488464124 -3.4591155116 0.8169619878
H -0.5006900152 -3.649890868 -0.5541253851
H -1.4211183409 -3.2841021212 0.9671872391
$end

$rem
JOBTYPE                   OPT
METHOD                    B3LYP
DFT_D                     d3_op
BASIS                     STO-3G
GEOM_OPT_MAX_CYCLES       100
GEOM_OPT_TOL_GRADIENT     300
GEOM_OPT_TOL_DISPLACEMENT 1200
GEOM_OPT_TOL_ENERGY       100
SYMMETRY                  False
THRESH                    12
SCF_CONVERGENCE           8
MAX_SUB_FILE_NUM          128
MEM_STATIC                400
MEM_TOTAL                 4000
$end
--------------------------------------------------------------

   16   -1510.2576547360      5.05E-09 Convergence criterion met
 Total energy in the final basis set = -1510.25765474
   13   -1510.2634395016      7.66E-09 Convergence criterion met
 Total energy in the final basis set = -1510.26343950
   13   -1510.2677124102      6.70E-09 Convergence criterion met
 Total energy in the final basis set = -1510.26771241
   13   -1510.2709696759      9.28E-09 Convergence criterion met
 Total energy in the final basis set = -1510.27096968
   13   -1510.2734992530      5.73E-09 Convergence criterion met
 Total energy in the final basis set = -1510.27349925
   13   -1510.2756368352      3.42E-09 Convergence criterion met
 Total energy in the final basis set = -1510.27563684
   13   -1510.2775285035      4.95E-09 Convergence criterion met
 Total energy in the final basis set = -1510.27752850
   13   -1510.2791737153      7.76E-09 Convergence criterion met
   11   -1510.3071583944      8.23E-09 Convergence criterion met
 Total energy in the final basis set = -1510.30715839
   11   -1510.3071665912      7.70E-09 Convergence criterion met
 Total energy in the final basis set = -1510.30716659
   11   -1510.3071666944      6.50E-09 Convergence criterion met
 Total energy in the final basis set = -1510.30716669
   10   -1510.3071695352      4.61E-09 Convergence criterion met
 Total energy in the final basis set = -1510.30716954
    9   -1510.3071725413      5.38E-09 Convergence criterion met
 Total energy in the final basis set = -1510.30717254
    9   -1510.3071718231      3.50E-09 Convergence criterion met
 Total energy in the final basis set = -1510.30717182

             Standard Nuclear Orientation (Angstroms)
    I     Atom           X                Y                Z
 ----------------------------------------------------------------
    1      O      -1.8858139916    -0.1255861652     2.1102420559
    2      C      -2.4814240457     0.2060872108     1.0516068547
    3      C      -1.8514478515     1.0128821446    -0.1362735470
    4      C      -0.9314113567     0.1235591810    -1.0667217824
    5      C      -1.0297552174    -1.3890105612    -0.7189239061
    6      O       0.0984214779    -2.0669915037    -1.2921283518
    7      C       0.1866862111    -3.4425682173    -0.7591247570
    8      C       0.5114826918    -3.4488034543     0.8013967234
    9      O       0.6609802456    -2.0880104090     1.3767294642
   10      C       1.8599325262    -1.4710118549     0.8952254810
   11      C       2.1088371549    -0.1146834872     1.6444729342
   12      C       3.0480681702     0.8654788152     0.8217661000
   13      C       3.2833592638     0.3969970203    -0.6569029190
   14      O       4.3739336710     0.1115528455    -1.1960967987
   15      O      -3.8663257093    -0.0342482658     0.8225848563
   16      O       2.0228634784     0.4153934459    -1.3508774867
   17      O       2.6221569229    -1.9972962162     0.0533233718
   18      C       2.1418820170    -0.2240824517    -2.6813666585
   19      C       0.8389440722     0.8046289557     1.9118570207
   20      C       1.2205883294     1.7891109279     3.0854882391
   21      C       2.2352886685     2.7564553417     2.3670320775
   22      C       2.1938747919     2.2014010005     0.8877455380
   23      O       0.8082085797     1.7113523011     0.7385505892
   24      H       2.5872173648    -0.3787108382     2.6066611165
   25      H       4.0369836619     0.9779635394     1.2992779425
   26      H      -0.1549466293     0.2885363630     2.0245469851
   27      H       0.3257353324     2.3320760767     3.4291270715
   28      H       1.6651517653     1.2650594026     3.9462703110
   29      H       1.8913759126     3.8026864209     2.3969909399
   30      H       3.2490007259     2.7070480508     2.7957255455
   31      H       2.4343081377     2.9392113005     0.0977772265
   32      O      -1.9153962199    -1.9672366027    -0.0492473044
   33      C      -4.4178356323    -0.8753499131     1.9091963025
   34      C      -2.8842134111     1.5930008490    -1.1890108141
   35      C      -2.1571261298     2.7502993448    -1.9800731682
   36      C      -1.1606697838     1.9239502283    -2.8746947658
   37      C      -1.5573792153     0.4431744957    -2.4891719458
   38      O      -3.0091309293     0.5204382763    -2.2053032329
   39      H      -1.2150114148     1.8053993848     0.3011771465
   40      H       0.1368227336     0.4279333106    -0.9892470430
   41      H      -4.2839739723    -0.4009981226     2.9027611083
   42      H      -3.8775916347     1.8481640804    -0.7735363734
   43      H      -2.8814665896     3.3084990657    -2.5945835317
   44      H      -1.6421691869     3.4555753566    -1.3086526992
   45      H      -1.3288534675     2.1070242469    -3.9479252737
   46      H      -0.1061308116     2.1348555603    -2.6365197780
   47      H      -1.3512539084    -0.3177533699    -3.2669522590
   48      H      -3.9321368746    -1.8723518792     1.9212393915
   49      H      -5.4955106502    -0.9880662932     1.6902568458
   50      H       1.4881373546    -1.1206814120    -2.6724309035
   51      H       3.1978876608    -0.5040881600    -2.8642333107
   52      H       1.7961885445     0.4884964438    -3.4552547425
   53      H      -0.3331939666    -3.8937920199     1.3621138877
   54      H       1.4307222617    -4.0454846231     0.9810262180
   55      H       1.0122923340    -3.9175678271    -1.3234677405
   56      H      -0.7575622355    -3.9991888427    -0.9411476798
 ----------------------------------------------------------------

    8   -1510.3071717820      9.89E-09 Convergence criterion met
 Total energy in the final basis set = -1510.30717178
 Final energy is   -1510.30717178196
 **  OPTIMIZATION CONVERGED  **

                    Orbital Energies (a.u.)
 --------------------------------------------------------------

 Alpha MOs
 -- Occupied --
-18.943 -18.937 -18.932 -18.926 -18.884 -18.880 -18.877 -18.877
-18.870 -18.866 -10.104 -10.098 -10.096 -10.096 -10.076 -10.075
-10.059 -10.057 -10.051 -10.049 -10.046 -10.036 -10.035 -10.034
-10.019 -10.017 -10.015 -10.012 -10.011 -10.010  -1.025  -1.010
 -1.004  -1.001  -0.967  -0.960  -0.941  -0.938  -0.929  -0.929
 -0.760  -0.752  -0.723  -0.716  -0.709  -0.699  -0.691  -0.654
 -0.650  -0.620  -0.594  -0.575  -0.542  -0.538  -0.534  -0.528
 -0.509  -0.504  -0.481  -0.477  -0.464  -0.459  -0.444  -0.434
 -0.427  -0.422  -0.419  -0.419  -0.410  -0.405  -0.403  -0.401
 -0.390  -0.376  -0.371  -0.366  -0.361  -0.355  -0.351  -0.344
 -0.343  -0.339  -0.332  -0.322  -0.320  -0.318  -0.314  -0.309
 -0.304  -0.298  -0.295  -0.294  -0.289  -0.282  -0.276  -0.274
 -0.270  -0.256  -0.253  -0.244  -0.239  -0.233  -0.218  -0.196
 -0.173  -0.168  -0.168  -0.159  -0.154  -0.149  -0.144  -0.141
 -0.134

          Ground-State Mulliken Net Atomic Charges

     Atom                 Charge (a.u.)
  ----------------------------------------
      1 O                    -0.223946
      2 C                     0.221712
      3 C                    -0.088263
      4 C                    -0.094360
      5 C                     0.212954
      6 O                    -0.172868
      7 C                    -0.049567
      8 C                    -0.050661
      9 O                    -0.164171
     10 C                     0.212801
     11 C                    -0.079982
     12 C                    -0.079965
     13 C                     0.217253
     14 O                    -0.212266
     15 O                    -0.162618
     16 O                    -0.176835
     17 O                    -0.212725
     18 C                    -0.140006
     19 C                     0.002899
     20 C                    -0.144235
     21 C                    -0.145246
     22 C                     0.026329
     23 O                    -0.198558
     24 H                     0.085033
     25 H                     0.084630
     26 H                     0.119259
     27 H                     0.075702
     28 H                     0.071428
     29 H                     0.075400
     30 H                     0.072468
     31 H                     0.080610
     32 O                    -0.212831
     33 C                    -0.126062
     34 C                     0.024040
     35 C                    -0.142760
     36 C                    -0.144040
     37 C                     0.023580
     38 O                    -0.191760
     39 H                     0.101224
     40 H                     0.120615
     41 H                     0.087878
     42 H                     0.086522
     43 H                     0.074713
     44 H                     0.074360
     45 H                     0.073916
     46 H                     0.077354
     47 H                     0.078759
     48 H                     0.094710
     49 H                     0.089617
     50 H                     0.098441
     51 H                     0.100349
     52 H                     0.079403
     53 H                     0.096067
     54 H                     0.088857
     55 H                     0.094540
     56 H                     0.090302
  ----------------------------------------
  Sum of atomic charges =    -0.000000

                    Cartesian Multipole Moments
 -----------------------------------------------------------------
    Charge (ESU x 10^10)
                -0.0000
    Dipole Moment (Debye)
         X      -0.0585      Y       0.1288      Z       1.1420
       Tot       1.1507
    Quadrupole Moments (Debye-Ang)
        XX    -169.8854     XY       2.0013     YY    -146.7005
        XZ       1.1780     YZ      -0.1780     ZZ    -155.1400

 Total job time:  173.32s(wall), 8257.93s(cpu)
        *  Thank you very much for using Q-Chem.  Have a nice day.  *
