 Q-Chem 5.0, Q-Chem, Inc., Pleasanton, CA (2017)
 Q-Chem 5.0.1 for Intel X86 EM64T Linux

User input:
--------------------------------------------------------------
$molecule
0  1
O -3.94934 -3.66094 2.70899
C -3.26408 -4.56952 2.26188
C -3.36658 -6.02376 2.66595
C -3.29087 -7.07186 1.54363
C -2.94321 -6.55859 0.16386
O -3.29118 -7.48525 -0.77722
C -3.23803 -6.97713 -2.11447
C -4.61904 -7.04573 -2.7581
O -5.46402 -7.93419 -2.01008
C -6.38999 -8.60788 -2.73663
C -7.72084 -8.7228 -2.03215
C -8.65464 -9.80899 -2.58577
C -8.00884 -10.8348 -3.49536
O -8.58214 -11.77998 -4.01741
O -2.11251 -4.17889 1.65595
O -6.65232 -10.96808 -3.50192
O -6.39675 -8.53238 -3.96308
C -5.93713 -11.93121 -4.18701
C -7.62058 -9.19 -0.55957
C -8.86081 -8.73102 0.20584
C -9.91732 -9.63382 -0.39874
C -9.03985 -10.52662 -1.28372
O -7.80843 -10.58327 -0.60596
H -8.18384 -7.71 -2.05322
H -9.50963 -9.37223 -3.14666
H -6.70551 -8.84075 -0.03422
H -8.70848 -9.02703 1.26888
H -9.0831 -7.64323 0.16043
H -10.38867 -10.22028 0.42083
H -10.69763 -9.11675 -0.99843
H -9.53823 -11.50354 -1.47075
O -1.99601 -5.81861 -0.05493
C -1.77955 -2.87545 1.34516
C -2.15782 -6.45402 3.52171
C -2.51481 -7.68607 4.3531
C -2.54277 -8.75222 3.27822
C -2.11885 -7.92787 2.05884
O -1.23827 -6.96903 2.59092
H -4.29399 -6.12479 3.27391
H -4.23373 -7.65989 1.4632
H -1.72596 -2.26151 2.26951
H -1.78282 -5.64123 4.18222
H -1.65603 -7.89135 5.03166
H -3.44445 -7.59145 4.95452
H -1.76328 -9.51037 3.51503
H -3.52427 -9.25177 3.12782
H -1.69975 -8.59174 1.27041
H -2.53131 -2.44535 0.64941
H -0.78652 -2.86248 0.85109
H -4.854 -11.77646 -4.00467
H -6.13212 -11.84708 -5.27743
H -6.21762 -12.94511 -3.83009
H -5.06497 -6.04183 -2.58708
H -4.55043 -7.17269 -3.86133
H -2.58859 -7.69238 -2.6625
H -2.7918 -5.96728 -2.26948
$end

$opt
CONSTRAINT
tors           1           2           3           4    +137.712
tors           3           4           5           6    -162.179
tors           4           5           6           7    +168.529
tors           5           6           7           8    -118.848
tors           6           7           8           9     -16.696
tors           7           8           9          10    -148.043
tors           8           9          10          11    -140.430
tors           9          10          11          12    -162.263
tors          11          12          13          14    +179.076
ENDCONSTRAINT
$end

$rem
JOBTYPE                   OPT
METHOD                    B3LYP
DFT_D                     d3_op
BASIS                     STO-3G
GEOM_OPT_MAX_CYCLES       100
GEOM_OPT_TOL_GRADIENT     300
GEOM_OPT_TOL_DISPLACEMENT 1200
GEOM_OPT_TOL_ENERGY       100
SYMMETRY                  False
THRESH                    12
SCF_CONVERGENCE           8
MAX_SUB_FILE_NUM          128
MEM_STATIC                400
MEM_TOTAL                 4000
$end
--------------------------------------------------------------

   15   -1510.0872668786      7.64E-09 Convergence criterion met
 Total energy in the final basis set = -1510.08726688
   14   -1510.1636744896      6.58E-09 Convergence criterion met
 Total energy in the final basis set = -1510.16367449
   14   -1510.2063168760      5.90E-09 Convergence criterion met
 Total energy in the final basis set = -1510.20631688
   14   -1510.2277765255      7.94E-09 Convergence criterion met
 Total energy in the final basis set = -1510.22777653
   14   -1510.2392687979      4.42E-09 Convergence criterion met
 Total energy in the final basis set = -1510.23926880
   13   -1510.2454374845      3.75E-09 Convergence criterion met
 Total energy in the final basis set = -1510.24543748
   13   -1510.2494060152      2.62E-09 Convergence criterion met
 Total energy in the final basis set = -1510.24940602
   13   -1510.2519914988      2.10E-09 Convergence criterion met
   11   -1510.2578332429      3.64E-09 Convergence criterion met
 Total energy in the final basis set = -1510.25783324
   11   -1510.2578460672      5.48E-09 Convergence criterion met
 Total energy in the final basis set = -1510.25784607
    9   -1510.2578518775      9.38E-09 Convergence criterion met
 Total energy in the final basis set = -1510.25785188
    9   -1510.2578556332      6.15E-09 Convergence criterion met
 Total energy in the final basis set = -1510.25785563
    9   -1510.2578573350      4.38E-09 Convergence criterion met
 Total energy in the final basis set = -1510.25785733
    9   -1510.2578591788      2.70E-09 Convergence criterion met
 Total energy in the final basis set = -1510.25785918

             Standard Nuclear Orientation (Angstroms)
    I     Atom           X                Y                Z
 ----------------------------------------------------------------
    1      O      -5.1577698132     0.3838292458     2.5152290996
    2      C      -4.7538123445     0.1482576244     1.3546105504
    3      C      -3.7278415111     1.0171682560     0.5395184001
    4      C      -2.6330042340     0.2190054419    -0.2733508579
    5      C      -2.3753283710    -1.2516142220     0.2014082167
    6      O      -1.1085314983    -1.6449127456    -0.3458187881
    7      C      -0.6432525528    -2.9142823737     0.2644609346
    8      C       0.7236715995    -2.6373710159     0.9994206195
    9      O       1.2552639844    -1.3516695793     0.4911396030
   10      C       2.6988652351    -1.3588097860     0.4829326546
   11      C       3.1680901720     0.0649366365     0.9479201525
   12      C       4.6520786143     0.5035288293     0.6408164712
   13      C       5.3341314106    -0.0886862476    -0.6504209064
   14      O       6.4957077683     0.1781396124    -1.0325959376
   15      O      -5.3410011757    -0.8262166438     0.4865854948
   16      O       4.3782954255    -0.7724365698    -1.4607454659
   17      O       3.3868108290    -2.3936541256     0.3576856844
   18      C       5.0026871349    -1.2081727430    -2.7298604429
   19      C       2.3362063518     1.3081180130     0.4011184977
   20      C       2.3239816962     2.3888026059     1.5495227947
   21      C       3.8404703925     2.8135321384     1.5557367769
   22      C       4.3896739047     2.0387370893     0.2903500277
   23      O       3.2173524993     1.9321525101    -0.6122497268
   24      H       3.0437147155     0.0222410943     2.0479463461
   25      H       5.3245030785     0.3689059159     1.5061826702
   26      H       1.3518199099     1.0436070051    -0.0310299751
   27      H       1.6720550014     3.2330089225     1.2726886994
   28      H       1.9862203481     1.9796463272     2.5151204014
   29      H       3.9610019963     3.9006430324     1.4269463294
   30      H       4.3604179115     2.5086174098     2.4781884618
   31      H       5.2373046043     2.5277660107    -0.2285512982
   32      O      -3.0286125030    -1.9499185236     1.0079283554
   33      C      -6.3381475116    -1.6276376046     1.2294072824
   34      C      -4.5094259729     1.7035137431    -0.6682053347
   35      C      -3.5730016567     2.7691356079    -1.3685660300
   36      C      -2.6394292719     1.8420956385    -2.2334780010
   37      C      -3.1371664848     0.4157584215    -1.7743693349
   38      O      -4.5991235575     0.6024537902    -1.6549791300
   39      H      -3.2765992365     1.7526900286     1.2273873409
   40      H      -1.6553080632     0.7236437362    -0.1646679201
   41      H      -7.1295350146    -0.9898245354     1.6738487865
   42      H      -5.5209328958     2.0695699429    -0.4054900778
   43      H      -4.1665308984     3.4500627237    -1.9989891424
   44      H      -3.0128651141     3.3692289639    -0.6333421411
   45      H      -2.8226015192     1.9816046177    -3.3110489172
   46      H      -1.5678660639     1.9999040350    -2.0322777910
   47      H      -2.9003345219    -0.4197219818    -2.4612504774
   48      H      -5.8601311008    -2.2161571075     2.0389854342
   49      H      -6.7864244482    -2.3155627635     0.4891957075
   50      H       4.1920835658    -1.6709800122    -3.3221218379
   51      H       5.8044604110    -1.9539055217    -2.5531861886
   52      H       5.4328941517    -0.3513589829    -3.2874536600
   53      H       0.5583127386    -2.5377847782     2.0953015011
   54      H       1.4488464124    -3.4591155116     0.8169619878
   55      H      -0.5006900152    -3.6498908680    -0.5541253851
   56      H      -1.4211183409    -3.2841021212     0.9671872391
 ----------------------------------------------------------------

    8   -1510.2578595806      8.34E-09 Convergence criterion met
 Total energy in the final basis set = -1510.25785958
 Final energy is   -1510.25785958059
 **  OPTIMIZATION CONVERGED  **

                    Orbital Energies (a.u.)
 --------------------------------------------------------------

 Alpha MOs
 -- Occupied --
-18.934 -18.934 -18.924 -18.923 -18.890 -18.889 -18.883 -18.883
-18.867 -18.862 -10.104 -10.103 -10.096 -10.090 -10.074 -10.070
-10.062 -10.062 -10.061 -10.061 -10.061 -10.054 -10.040 -10.039
-10.039 -10.036 -10.023 -10.022 -10.021 -10.020  -1.018  -1.011
 -1.005  -1.000  -0.972  -0.971  -0.944  -0.933  -0.930  -0.924
 -0.765  -0.763  -0.727  -0.723  -0.717  -0.706  -0.695  -0.659
 -0.652  -0.618  -0.601  -0.578  -0.547  -0.544  -0.540  -0.537
 -0.519  -0.507  -0.485  -0.477  -0.468  -0.462  -0.444  -0.440
 -0.437  -0.433  -0.427  -0.413  -0.410  -0.408  -0.404  -0.402
 -0.387  -0.385  -0.372  -0.368  -0.365  -0.358  -0.351  -0.344
 -0.340  -0.338  -0.334  -0.333  -0.331  -0.324  -0.320  -0.315
 -0.312  -0.308  -0.306  -0.300  -0.299  -0.293  -0.285  -0.274
 -0.271  -0.256  -0.246  -0.243  -0.239  -0.235  -0.234  -0.181
 -0.175  -0.171  -0.168  -0.158  -0.154  -0.149  -0.145  -0.144
 -0.141

          Ground-State Mulliken Net Atomic Charges

     Atom                 Charge (a.u.)
  ----------------------------------------
      1 O                    -0.219563
      2 C                     0.211243
      3 C                    -0.079816
      4 C                    -0.078809
      5 C                     0.212058
      6 O                    -0.168542
      7 C                    -0.055402
      8 C                    -0.052187
      9 O                    -0.179602
     10 C                     0.220372
     11 C                    -0.077679
     12 C                    -0.077296
     13 C                     0.212036
     14 O                    -0.219100
     15 O                    -0.162321
     16 O                    -0.164062
     17 O                    -0.205066
     18 C                    -0.125639
     19 C                     0.024980
     20 C                    -0.141997
     21 C                    -0.145697
     22 C                     0.024235
     23 O                    -0.191505
     24 H                     0.082768
     25 H                     0.085804
     26 H                     0.090729
     27 H                     0.076742
     28 H                     0.073173
     29 H                     0.078823
     30 H                     0.074090
     31 H                     0.086022
     32 O                    -0.210563
     33 C                    -0.126131
     34 C                     0.026355
     35 C                    -0.145084
     36 C                    -0.141996
     37 C                     0.027617
     38 O                    -0.183653
     39 H                     0.084049
     40 H                     0.087003
     41 H                     0.086347
     42 H                     0.083020
     43 H                     0.078357
     44 H                     0.073723
     45 H                     0.078365
     46 H                     0.075380
     47 H                     0.086242
     48 H                     0.089739
     49 H                     0.088947
     50 H                     0.091287
     51 H                     0.089454
     52 H                     0.090629
     53 H                     0.078690
     54 H                     0.096690
     55 H                     0.085289
     56 H                     0.101453
  ----------------------------------------
  Sum of atomic charges =    -0.000000

                    Cartesian Multipole Moments
 -----------------------------------------------------------------
    Charge (ESU x 10^10)
                -0.0000
    Dipole Moment (Debye)
         X       0.2729      Y       0.4946      Z       0.5792
       Tot       0.8091
    Quadrupole Moments (Debye-Ang)
        XX    -178.6621     XY       0.7803     YY    -151.7881
        XZ       8.4476     YZ       1.3045     ZZ    -158.7488

 Total job time:  68.59s(wall), 3269.87s(cpu)
        *  Thank you very much for using Q-Chem.  Have a nice day.  *
