 Q-Chem 5.0, Q-Chem, Inc., Pleasanton, CA (2017)
 Q-Chem 5.0.1 for Intel X86 EM64T Linux

User input:
--------------------------------------------------------------
$molecule
0  1
O -3.94934 -3.66094 2.70899
C -3.26408 -4.56952 2.26188
C -3.36658 -6.02376 2.66595
C -2.86159 -7.07008 1.65895
C -2.14771 -6.53916 0.4356
O -2.79738 -5.43509 -0.03809
C -2.3506 -4.21649 0.56576
C -0.96355 -3.85079 0.0476
O -0.10742 -3.50022 1.14625
C 1.04312 -2.8661 0.80964
C 2.05381 -2.84602 1.93158
C 2.61569 -4.22103 2.32135
C 2.37215 -5.33993 1.32865
O 2.91427 -6.43551 1.34843
O -2.05015 -4.24981 2.94653
O 1.73924 -5.1295 0.14369
O 1.2472 -2.35904 -0.28765
C 1.67727 -6.04304 -0.90023
C 3.36542 -2.10082 1.59754
C 4.0376 -1.64209 2.8913
C 4.50439 -2.969 3.45329
C 4.12108 -3.90421 2.30087
O 4.24314 -3.1038 1.15024
H 1.56709 -2.3241 2.78615
H 2.24424 -4.57361 3.3082
H 3.22381 -1.23262 0.91782
H 4.93221 -1.0474 2.59709
H 3.40527 -1.03431 3.57377
H 5.60883 -2.92671 3.58115
H 4.02028 -3.27958 4.40466
H 4.7497 -4.82168 2.32337
O -1.58158 -7.29627 -0.33745
C -1.6442 -3.05883 3.54843
C -2.60565 -6.51129 3.9379
C -3.20943 -7.80947 4.48068
C -2.68546 -8.80613 3.47197
C -1.89662 -7.88033 2.54747
O -1.36145 -6.92382 3.42914
H -4.45169 -6.17096 2.86565
H -3.686 -7.71067 1.27193
H -0.61548 -3.18617 3.94306
H -2.58536 -5.75429 4.75266
H -2.74513 -8.03381 5.46753
H -4.31459 -7.77437 4.58867
H -1.96944 -9.48574 3.98686
H -3.45982 -9.40733 2.94859
H -1.15791 -8.47093 1.9623
H -2.31574 -2.8068 4.39602
H -1.6509 -2.22981 2.80988
H 1.14282 -5.5987 -1.76353
H 1.14212 -6.96019 -0.57393
H 2.70127 -6.30874 -1.23899
H -0.49937 -4.6207 -0.61716
H -1.09598 -2.98291 -0.64278
H -1.55714 -4.70146 1.08339
H -2.97175 -3.30889 0.30544
$end

$opt
CONSTRAINT
tors           1           2           3           4    +156.418
tors           3           4           5           6     -41.485
tors           4           5           6           7     +88.097
tors           5           6           7           8     +72.710
tors           6           7           8           9    -132.747
tors           7           8           9          10    -165.422
tors           8           9          10          11    -164.937
tors           9          10          11          12     +66.316
tors          11          12          13          14    +167.536
ENDCONSTRAINT
$end

$rem
JOBTYPE                   OPT
METHOD                    B3LYP
DFT_D                     d3_op
BASIS                     STO-3G
GEOM_OPT_MAX_CYCLES       100
GEOM_OPT_TOL_GRADIENT     300
GEOM_OPT_TOL_DISPLACEMENT 1200
GEOM_OPT_TOL_ENERGY       100
SYMMETRY                  False
THRESH                    12
SCF_CONVERGENCE           8
MAX_SUB_FILE_NUM          128
MEM_STATIC                400
MEM_TOTAL                 4000
$end
--------------------------------------------------------------

   17   -1509.8124478906      8.45E-09 Convergence criterion met
 Total energy in the final basis set = -1509.81244789
   14   -1509.9077679195      5.67E-09 Convergence criterion met
 Total energy in the final basis set = -1509.90776792
   14   -1509.9740358809      6.11E-09 Convergence criterion met
 Total energy in the final basis set = -1509.97403588
   14   -1510.0215223245      3.21E-09 Convergence criterion met
 Total energy in the final basis set = -1510.02152232
   14   -1510.0573449536      3.35E-09 Convergence criterion met
 Total energy in the final basis set = -1510.05734495
   14   -1510.0862054468      2.39E-09 Convergence criterion met
 Total energy in the final basis set = -1510.08620545
   13   -1510.1110547157      9.84E-09 Convergence criterion met
 Total energy in the final basis set = -1510.11105472
   13   -1510.1332830634      7.67E-09 Convergence criterion met
   11   -1510.2500654592      3.61E-09 Convergence criterion met
 Total energy in the final basis set = -1510.25006546
   11   -1510.2500691476      8.81E-09 Convergence criterion met
 Total energy in the final basis set = -1510.25006915
   11   -1510.2500807481      3.94E-09 Convergence criterion met
 Total energy in the final basis set = -1510.25008075
   11   -1510.2500926205      7.05E-09 Convergence criterion met
 Total energy in the final basis set = -1510.25009262
   11   -1510.2501024850      4.23E-09 Convergence criterion met
 Total energy in the final basis set = -1510.25010249
   11   -1510.2501079158      5.88E-09 Convergence criterion met
 Total energy in the final basis set = -1510.25010792

             Standard Nuclear Orientation (Angstroms)
    I     Atom           X                Y                Z
 ----------------------------------------------------------------
    1      O      -2.5766761403    -3.0067683111    -0.9895922422
    2      C      -2.5384859405    -1.7663265245    -0.8160477265
    3      C      -3.7606831756    -0.8290718436    -0.5425524623
    4      C      -3.4987836975     0.5457960796     0.1910654317
    5      C      -2.4641737689     0.8251374225     1.3621688090
    6      O      -2.3401609516    -0.1634687545     2.4149399784
    7      C      -1.3692023538    -1.2447442885     2.1762045372
    8      C       0.1077297619    -0.6847068678     2.3079426483
    9      O       0.9523064648    -1.1244653989     1.1746096295
   10      C       2.3421114729    -0.8982034201     1.4855407445
   11      C       3.1719468292    -1.0009079178     0.1586414459
   12      C       2.9277271917     0.1057212134    -0.9513957654
   13      C       2.2059960409     1.4454190681    -0.5459987202
   14      O       2.1616371904     2.4649015730    -1.2717093315
   15      O      -1.3816678053    -0.9536660222    -1.0053584162
   16      O       1.6841930955     1.3915527251     0.7787559852
   17      O       2.7810560897    -0.7016471178     2.6371565223
   18      C       1.0385002077     2.6768119690     1.1461705938
   19      C       4.7379447197    -0.8716501728     0.3932386191
   20      C       5.4554859909    -1.6740101758    -0.7591507128
   21      C       5.1516566909    -0.7434119953    -1.9924313151
   22      C       4.4364561167     0.4802301849    -1.2923329277
   23      O       5.0470529770     0.5373152043     0.0562705362
   24      H       2.9390894848    -1.9884875559    -0.2813337768
   25      H       2.3997768840    -0.3139236800    -1.8263915795
   26      H       5.0588914353    -1.1043664973     1.4274006996
   27      H       6.5377802371    -1.7406860105    -0.5636307460
   28      H       5.0530436103    -2.6923785049    -0.8794606590
   29      H       6.0760546860    -0.4153472018    -2.4932504529
   30      H       4.4996828701    -1.2264300422    -2.7379060302
   31      H       4.5409105906     1.4523051231    -1.8129109265
   32      O      -1.9290123714     1.9491714077     1.4973890252
   33      C      -0.2161178641    -1.7835305884    -1.3983516089
   34      C      -4.1656570395    -0.2486725359    -1.9782527995
   35      C      -5.4753200257     0.6353614521    -1.8832261757
   36      C      -4.8946706925     2.0017807460    -1.3538717842
   37      C      -3.4139681121     1.5660697528    -1.0328935803
   38      O      -3.0803085193     0.7316408212    -2.2103091659
   39      H      -4.5675262247    -1.4119220569    -0.0652932859
   40      H      -4.4556477098     0.7607346507     0.7120328439
   41      H       0.5034589124    -1.7289727924    -0.5536705774
   42      H      -4.1778166291    -1.0141452447    -2.7790169744
   43      H      -5.9391866415     0.7440568564    -2.8761299741
   44      H      -6.2164361600     0.1969898176    -1.1953715338
   45      H      -4.9049166398     2.7734395772    -2.1408452047
   46      H      -5.4306505402     2.3854825071    -0.4710224796
   47      H      -2.6778595152     2.3822345177    -0.8971416491
   48      H       0.2186653001    -1.3504810502    -2.3187360273
   49      H      -0.5455392224    -2.8260992871    -1.5765470414
   50      H       1.4970151164     3.0352695444     2.0875846404
   51      H      -0.0503394188     2.5042907999     1.2995491675
   52      H       1.2033398908     3.4097574806     0.3314950015
   53      H       0.0650585168     0.4247873736     2.3154875373
   54      H       0.5691096145    -1.0094892439     3.2645867253
   55      H      -1.4938192661    -1.7199271258     1.1821551461
   56      H      -1.5748883681    -1.9974345386     2.9634322889
 ----------------------------------------------------------------

   11   -1510.2501074699      2.76E-09 Convergence criterion met
 Total energy in the final basis set = -1510.25010747
 Final energy is   -1510.25010746985
 **  OPTIMIZATION CONVERGED  **

                    Orbital Energies (a.u.)
 --------------------------------------------------------------

 Alpha MOs
 -- Occupied --
-18.937 -18.934 -18.933 -18.913 -18.911 -18.893 -18.887 -18.879
-18.875 -18.872 -10.123 -10.106 -10.102 -10.101 -10.081 -10.067
-10.066 -10.062 -10.060 -10.058 -10.046 -10.046 -10.044 -10.042
-10.041 -10.039 -10.026 -10.023 -10.021 -10.020  -1.018  -1.015
 -1.013  -1.007  -0.975  -0.971  -0.948  -0.939  -0.937  -0.934
 -0.768  -0.765  -0.728  -0.726  -0.712  -0.707  -0.699  -0.657
 -0.655  -0.618  -0.604  -0.587  -0.551  -0.545  -0.542  -0.538
 -0.520  -0.510  -0.489  -0.481  -0.473  -0.458  -0.452  -0.442
 -0.438  -0.434  -0.425  -0.418  -0.417  -0.411  -0.409  -0.403
 -0.397  -0.386  -0.381  -0.373  -0.369  -0.362  -0.355  -0.347
 -0.345  -0.341  -0.338  -0.335  -0.332  -0.327  -0.324  -0.320
 -0.312  -0.311  -0.308  -0.307  -0.297  -0.293  -0.289  -0.277
 -0.270  -0.253  -0.246  -0.244  -0.239  -0.236  -0.235  -0.182
 -0.177  -0.172  -0.169  -0.166  -0.159  -0.157  -0.152  -0.146
 -0.145

          Ground-State Mulliken Net Atomic Charges

     Atom                 Charge (a.u.)
  ----------------------------------------
      1 O                    -0.219098
      2 C                     0.202617
      3 C                    -0.078166
      4 C                    -0.083668
      5 C                     0.230034
      6 O                    -0.197961
      7 C                    -0.044648
      8 C                    -0.053586
      9 O                    -0.179306
     10 C                     0.223807
     11 C                    -0.081892
     12 C                    -0.076397
     13 C                     0.214495
     14 O                    -0.216960
     15 O                    -0.167225
     16 O                    -0.171797
     17 O                    -0.208894
     18 C                    -0.145755
     19 C                     0.023852
     20 C                    -0.142813
     21 C                    -0.145220
     22 C                     0.024634
     23 O                    -0.190496
     24 H                     0.081550
     25 H                     0.085895
     26 H                     0.090381
     27 H                     0.078556
     28 H                     0.072693
     29 H                     0.079052
     30 H                     0.073132
     31 H                     0.088883
     32 O                    -0.187072
     33 C                    -0.152323
     34 C                     0.025504
     35 C                    -0.145661
     36 C                    -0.141057
     37 C                     0.025182
     38 O                    -0.185811
     39 H                     0.087088
     40 H                     0.084191
     41 H                     0.106234
     42 H                     0.083918
     43 H                     0.079772
     44 H                     0.074020
     45 H                     0.079253
     46 H                     0.073983
     47 H                     0.091731
     48 H                     0.080071
     49 H                     0.094153
     50 H                     0.086425
     51 H                     0.101687
     52 H                     0.101078
     53 H                     0.095259
     54 H                     0.093243
     55 H                     0.090113
     56 H                     0.093323
  ----------------------------------------
  Sum of atomic charges =    -0.000000

                    Cartesian Multipole Moments
 -----------------------------------------------------------------
    Charge (ESU x 10^10)
                -0.0000
    Dipole Moment (Debye)
         X      -1.9434      Y      -1.6347      Z      -0.9572
       Tot       2.7139
    Quadrupole Moments (Debye-Ang)
        XX    -149.6490     XY     -10.9850     YY    -164.7342
        XZ      -5.5972     YZ       0.8655     ZZ    -164.5104

 Total job time:  156.14s(wall), 7455.01s(cpu)
        *  Thank you very much for using Q-Chem.  Have a nice day.  *
