 Q-Chem 5.0, Q-Chem, Inc., Pleasanton, CA (2017)
 Q-Chem 5.0.1 for Intel X86 EM64T Linux

User input:
--------------------------------------------------------------
$molecule
0  1
O -2.5766761403 -3.0067683111 -0.9895922422
C -2.5384859405 -1.7663265245 -0.8160477265
C -3.7606831756 -0.8290718436 -0.5425524623
C -3.4987836975 0.5457960796 0.1910654317
C -2.4641737689 0.8251374225 1.362168809
O -2.3401609516 -0.1634687545 2.4149399784
C -1.3692023538 -1.2447442885 2.1762045372
C 0.1077297619 -0.6847068678 2.3079426483
O 0.9523064648 -1.1244653989 1.1746096295
C 2.3421114729 -0.8982034201 1.4855407445
C 3.1719468292 -1.0009079178 0.1586414459
C 2.9277271917 0.1057212134 -0.9513957654
C 2.2059960409 1.4454190681 -0.5459987202
O 2.1616371904 2.464901573 -1.2717093315
O -1.3816678053 -0.9536660222 -1.0053584162
O 1.6841930955 1.3915527251 0.7787559852
O 2.7810560897 -0.7016471178 2.6371565223
C 1.0385002077 2.676811969 1.1461705938
C 4.7379447197 -0.8716501728 0.3932386191
C 5.4554859909 -1.6740101758 -0.7591507128
C 5.1516566909 -0.7434119953 -1.9924313151
C 4.4364561167 0.4802301849 -1.2923329277
O 5.047052977 0.5373152043 0.0562705362
H 2.9390894848 -1.9884875559 -0.2813337768
H 2.399776884 -0.31392368 -1.8263915795
H 5.0588914353 -1.1043664973 1.4274006996
H 6.5377802371 -1.7406860105 -0.563630746
H 5.0530436103 -2.6923785049 -0.879460659
H 6.076054686 -0.4153472018 -2.4932504529
H 4.4996828701 -1.2264300422 -2.7379060302
H 4.5409105906 1.4523051231 -1.8129109265
O -1.9290123714 1.9491714077 1.4973890252
C -0.2161178641 -1.7835305884 -1.3983516089
C -4.1656570395 -0.2486725359 -1.9782527995
C -5.4753200257 0.6353614521 -1.8832261757
C -4.8946706925 2.001780746 -1.3538717842
C -3.4139681121 1.5660697528 -1.0328935803
O -3.0803085193 0.7316408212 -2.2103091659
H -4.5675262247 -1.4119220569 -0.0652932859
H -4.4556477098 0.7607346507 0.7120328439
H 0.5034589124 -1.7289727924 -0.5536705774
H -4.1778166291 -1.0141452447 -2.7790169744
H -5.9391866415 0.7440568564 -2.8761299741
H -6.21643616 0.1969898176 -1.1953715338
H -4.9049166398 2.7734395772 -2.1408452047
H -5.4306505402 2.3854825071 -0.4710224796
H -2.6778595152 2.3822345177 -0.8971416491
H 0.2186653001 -1.3504810502 -2.3187360273
H -0.5455392224 -2.8260992871 -1.5765470414
H 1.4970151164 3.0352695444 2.0875846404
H -0.0503394188 2.5042907999 1.2995491675
H 1.2033398908 3.4097574806 0.3314950015
H 0.0650585168 0.4247873736 2.3154875373
H 0.5691096145 -1.0094892439 3.2645867253
H -1.4938192661 -1.7199271258 1.1821551461
H -1.5748883681 -1.9974345386 2.9634322889
$end

$rem
JOBTYPE                   OPT
METHOD                    B3LYP
DFT_D                     d3_op
BASIS                     STO-3G
GEOM_OPT_MAX_CYCLES       100
GEOM_OPT_TOL_GRADIENT     300
GEOM_OPT_TOL_DISPLACEMENT 1200
GEOM_OPT_TOL_ENERGY       100
SYMMETRY                  False
THRESH                    12
SCF_CONVERGENCE           8
MAX_SUB_FILE_NUM          128
MEM_STATIC                400
MEM_TOTAL                 4000
$end
--------------------------------------------------------------

   16   -1510.2502453009      5.83E-09 Convergence criterion met
 Total energy in the final basis set = -1510.25024530
   14   -1510.2484372948      3.41E-09 Convergence criterion met
 Total energy in the final basis set = -1510.24843729
   14   -1510.2525730636      6.66E-09 Convergence criterion met
 Total energy in the final basis set = -1510.25257306
   14   -1510.2525228975      7.37E-09 Convergence criterion met
 Total energy in the final basis set = -1510.25252290
   15   -1510.2589258992      1.80E-09 Convergence criterion met
 Total energy in the final basis set = -1510.25892590
   14   -1510.2614064271      9.10E-09 Convergence criterion met
 Total energy in the final basis set = -1510.26140643
   13   -1510.2662785024      6.82E-09 Convergence criterion met
 Total energy in the final basis set = -1510.26627850
   14   -1510.2722050284      7.29E-09 Convergence criterion met
   12   -1510.2985916772      4.00E-09 Convergence criterion met
 Total energy in the final basis set = -1510.29859168
   11   -1510.2986036272      9.07E-09 Convergence criterion met
 Total energy in the final basis set = -1510.29860363
   11   -1510.2986032775      9.49E-09 Convergence criterion met
 Total energy in the final basis set = -1510.29860328
   12   -1510.2985811316      3.92E-09 Convergence criterion met
 Total energy in the final basis set = -1510.29858113
   11   -1510.2986074390      8.88E-09 Convergence criterion met
 Total energy in the final basis set = -1510.29860744
    9   -1510.2986066264      8.40E-09 Convergence criterion met
 Total energy in the final basis set = -1510.29860663

             Standard Nuclear Orientation (Angstroms)
    I     Atom           X                Y                Z
 ----------------------------------------------------------------
    1      O       2.6928208793     1.2576428551     2.8704031304
    2      C       2.4561610759     1.1169906759     1.6489030328
    3      C       3.5189758034     0.8312695911     0.5331322144
    4      C       3.6285460203    -0.6732173842     0.0364762279
    5      C       2.4893615301    -1.6755761423     0.4626912159
    6      O       1.9306478786    -1.3010187098     1.7215609178
    7      C       0.9532558794    -2.3022398967     2.2147944403
    8      C      -0.3633633129    -2.4361990543     1.3739547827
    9      O      -1.1343522229    -1.1742094398     1.4502445799
   10      C      -2.3558541108    -1.3156807448     0.6964329771
   11      C      -3.1593307818     0.0344394939     0.7517815222
   12      C      -2.5853239212     1.2230550681    -0.1289144044
   13      C      -1.2648288612     0.9370404926    -0.9238316813
   14      O      -0.4092581673     1.7844740929    -1.2602241399
   15      O       1.1769438967     1.2756324911     1.0386423905
   16      O      -1.2167088171    -0.4472547601    -1.2588578970
   17      O      -2.7389579730    -2.4010864497     0.2138347173
   18      C      -0.0028084626    -0.7707280551    -2.0460975825
   19      C      -4.5899390809    -0.1661968650     0.0974805033
   20      C      -5.5225088398     1.0247418541     0.5486242037
   21      C      -4.9564699035     2.2009975079    -0.3305586919
   22      C      -3.8080650239     1.4619854279    -1.1258250788
   23      O      -4.3496015496     0.1029827240    -1.3393613300
   24      H      -3.2335666956     0.3447395560     1.8099796355
   25      H      -2.4089251749     2.1223170106     0.4860962912
   26      H      -5.0031236231    -1.1844031547     0.2324956022
   27      H      -6.5737025576     0.8059075153     0.3024727294
   28      H      -5.4464399497     1.2254190821     1.6293140452
   29      H      -5.7177261107     2.5889481034    -1.0262970314
   30      H      -4.5704985905     3.0379684688     0.2728658565
   31      H      -3.5279470902     1.9281800121    -2.0903893327
   32      O       2.1445225664    -2.6881715797    -0.1863869958
   33      C       0.1273155458     1.4150259438     2.0772664846
   34      C       3.2315618815     1.5786991996    -0.8431513332
   35      C       4.6082674989     1.7371177952    -1.5976398302
   36      C       4.8885545423     0.2467490484    -2.0246409818
   37      C       3.5723552159    -0.4719281124    -1.5329181334
   38      O       2.5315244569     0.5725342728    -1.6756750825
   39      H       4.4956404555     1.1457655926     0.9413877402
   40      H       4.5903838300    -1.1175415746     0.3551294760
   41      H      -0.5027860990     0.4982308922     2.0292939853
   42      H       2.6170194850     2.4950396839    -0.7553368118
   43      H       4.4900761601     2.3904964571    -2.4768824987
   44      H       5.3962797384     2.1518780352    -0.9490583425
   45      H       4.9970711963     0.1503362139    -3.1164867595
   46      H       5.7868350492    -0.1704976347    -1.5419633741
   47      H       3.2833682703    -1.3871037340    -2.0856955255
   48      H      -0.4735025732     2.3147377015     1.8469232657
   49      H       0.6050943648     1.5173629859     3.0714959195
   50      H      -0.2095666002    -0.6295145941    -3.1264329563
   51      H       0.2130913175    -1.8390539496    -1.8594712754
   52      H       0.8746474001    -0.1385661654    -1.7555715232
   53      H      -0.1090298329    -2.6830878500     0.3218028595
   54      H      -0.9576448524    -3.2796965589     1.7903961389
   55      H       0.7128512204    -1.9734680775     3.2461420634
   56      H       1.4272657358    -3.3077862970     2.2557628108
 ----------------------------------------------------------------

    9   -1510.2986075504      4.94E-09 Convergence criterion met
 Total energy in the final basis set = -1510.29860755
 Final energy is   -1510.29860755035
 **  OPTIMIZATION CONVERGED  **

                    Orbital Energies (a.u.)
 --------------------------------------------------------------

 Alpha MOs
 -- Occupied --
-18.950 -18.933 -18.924 -18.918 -18.903 -18.885 -18.883 -18.871
-18.863 -18.858 -10.111 -10.100 -10.091 -10.089 -10.086 -10.075
-10.066 -10.063 -10.057 -10.055 -10.045 -10.037 -10.035 -10.033
-10.032 -10.030 -10.025 -10.023 -10.018 -10.017  -1.024  -1.010
 -0.998  -0.996  -0.979  -0.967  -0.948  -0.934  -0.924  -0.921
 -0.768  -0.760  -0.732  -0.722  -0.712  -0.708  -0.700  -0.646
 -0.643  -0.619  -0.599  -0.583  -0.549  -0.542  -0.541  -0.535
 -0.513  -0.508  -0.485  -0.473  -0.468  -0.460  -0.443  -0.442
 -0.440  -0.433  -0.426  -0.410  -0.407  -0.405  -0.401  -0.398
 -0.391  -0.378  -0.371  -0.366  -0.360  -0.357  -0.350  -0.344
 -0.339  -0.336  -0.332  -0.331  -0.330  -0.329  -0.320  -0.315
 -0.310  -0.304  -0.304  -0.298  -0.294  -0.292  -0.289  -0.281
 -0.268  -0.258  -0.249  -0.241  -0.235  -0.231  -0.222  -0.188
 -0.178  -0.165  -0.162  -0.159  -0.154  -0.150  -0.142  -0.141
 -0.139

          Ground-State Mulliken Net Atomic Charges

     Atom                 Charge (a.u.)
  ----------------------------------------
      1 O                    -0.223557
      2 C                     0.216184
      3 C                    -0.081582
      4 C                    -0.077193
      5 C                     0.214242
      6 O                    -0.164451
      7 C                    -0.045100
      8 C                    -0.049661
      9 O                    -0.179335
     10 C                     0.224141
     11 C                    -0.079966
     12 C                    -0.079305
     13 C                     0.212100
     14 O                    -0.210013
     15 O                    -0.171997
     16 O                    -0.172226
     17 O                    -0.211618
     18 C                    -0.149879
     19 C                     0.025439
     20 C                    -0.144510
     21 C                    -0.143660
     22 C                     0.025461
     23 O                    -0.186593
     24 H                     0.081715
     25 H                     0.082325
     26 H                     0.089271
     27 H                     0.077893
     28 H                     0.072248
     29 H                     0.077707
     30 H                     0.073170
     31 H                     0.083610
     32 O                    -0.216979
     33 C                    -0.151805
     34 C                     0.029481
     35 C                    -0.142483
     36 C                    -0.144262
     37 C                     0.025128
     38 O                    -0.184355
     39 H                     0.084057
     40 H                     0.086843
     41 H                     0.103372
     42 H                     0.096731
     43 H                     0.080166
     44 H                     0.075126
     45 H                     0.080048
     46 H                     0.074634
     47 H                     0.091082
     48 H                     0.075089
     49 H                     0.092402
     50 H                     0.076955
     51 H                     0.080150
     52 H                     0.122024
     53 H                     0.102479
     54 H                     0.090147
     55 H                     0.097231
     56 H                     0.091877
  ----------------------------------------
  Sum of atomic charges =    -0.000000

                    Cartesian Multipole Moments
 -----------------------------------------------------------------
    Charge (ESU x 10^10)
                -0.0000
    Dipole Moment (Debye)
         X       1.2898      Y       0.4236      Z       1.3615
       Tot       1.9227
    Quadrupole Moments (Debye-Ang)
        XX    -145.9622     XY      -8.7923     YY    -160.0399
        XZ     -12.7093     YZ      -6.2645     ZZ    -162.1807

 Total job time:  152.18s(wall), 7261.44s(cpu)
        *  Thank you very much for using Q-Chem.  Have a nice day.  *
