 Q-Chem 5.0, Q-Chem, Inc., Pleasanton, CA (2017)
 Q-Chem 5.0.1 for Intel X86 EM64T Linux

User input:
--------------------------------------------------------------
$molecule
0  1
O 3.8533639334 -2.782360636 0.2603928542
C 3.5120250735 -1.7687623371 -0.382697954
C 4.3946239416 -0.5203062851 -0.7571217108
C 3.8796924061 0.8420617871 -0.1434620935
C 2.8023604756 0.6217344551 0.9769380394
O 2.2896900963 1.8826537443 1.4639118796
C 0.8173001837 1.9842996868 1.2589689533
C 0.1634346216 0.8917713167 0.3275793845
O -1.074530788 1.4548736638 -0.2641492802
C -2.1838764056 0.5793962569 -0.0010603057
C -3.3964163869 1.0486162553 -0.8777926792
C -4.5779672731 -0.0017830721 -0.9261708691
C -4.1525520421 -1.4841617166 -0.6173638873
O -3.1257818753 -2.0679989575 -1.026679512
O 2.238650857 -1.5966186042 -1.0318877586
O -5.1571538595 -2.1055680973 0.1898932546
O -2.158087252 -0.3494207286 0.8349534372
C -4.7697245474 -3.5036261358 0.48776602
C -4.1170585549 2.2266356245 -0.0842479433
C -5.2811487967 2.8363594232 -0.9645897306
C -6.4129445629 1.7587310849 -0.7723564476
C -5.6362900383 0.6641321614 0.0561179901
O -4.8195253072 1.4788745001 0.9851941477
H -3.0411383523 1.3533827659 -1.8775468333
H -4.9943908665 -0.0158066988 -1.9517448958
H -3.4197726851 2.9685149257 0.3517235883
H -5.5849615573 3.8214512886 -0.5766287587
H -4.9801030559 2.9508603043 -2.0184297221
H -7.2525446231 2.1598456316 -0.182300293
H -6.8028732556 1.3699630686 -1.7265693686
H -6.259988806 -0.0611958444 0.612388614
O 2.4442431938 -0.486690795 1.4334434836
C 1.3222339668 -2.6918436543 -0.6444994508
C 5.8651221837 -0.5910978952 -0.1701528085
C 6.7762467587 0.3516971639 -1.0467188751
C 6.2528138812 1.7677721295 -0.5996079222
C 5.2182604962 1.3755453725 0.5297947245
O 5.7781618953 0.1376263063 1.1189016601
H 4.4134181094 -0.4489543449 -1.8600127772
H 3.4766485776 1.5374726473 -0.9010890502
H 1.1162088622 -2.6734904241 0.4454889592
H 6.2393424596 -1.6205996071 -0.007509956
H 7.8370700025 0.2146941675 -0.7828128018
H 6.6532007829 0.1704925571 -2.126449011
H 7.0624895921 2.3870707786 -0.1822055523
H 5.773418183 2.3226156102 -1.4222543341
H 5.0561333123 2.144912646 1.3096806866
H 1.7347760821 -3.6866724001 -0.9095132966
H 0.380929155 -2.5201447702 -1.1993486309
H -5.568992196 -3.9100266574 1.1344932467
H -3.7985998122 -3.5501251333 1.0212504319
H -4.6940256676 -4.1128887603 -0.4362499366
H 0.8438467531 0.6254237695 -0.5108800412
H -0.0901923922 -0.0252421063 0.8998567418
H 0.6429984981 2.9840057986 0.8026212748
H 0.3066657251 1.9703531949 2.2479387858
$end

$rem
JOBTYPE                   OPT
METHOD                    B3LYP
DFT_D                     d3_op
BASIS                     STO-3G
GEOM_OPT_MAX_CYCLES       100
GEOM_OPT_TOL_GRADIENT     300
GEOM_OPT_TOL_DISPLACEMENT 1200
GEOM_OPT_TOL_ENERGY       100
SYMMETRY                  False
THRESH                    12
SCF_CONVERGENCE           8
MAX_SUB_FILE_NUM          128
MEM_STATIC                400
MEM_TOTAL                 4000
$end
--------------------------------------------------------------

   16   -1510.2609335476      6.03E-09 Convergence criterion met
 Total energy in the final basis set = -1510.26093355
   14   -1510.2651947859      5.26E-09 Convergence criterion met
 Total energy in the final basis set = -1510.26519479
   14   -1510.2687041191      3.01E-09 Convergence criterion met
 Total energy in the final basis set = -1510.26870412
   14   -1510.2719202505      2.31E-09 Convergence criterion met
 Total energy in the final basis set = -1510.27192025
   13   -1510.2748706801      9.03E-09 Convergence criterion met
 Total energy in the final basis set = -1510.27487068
   13   -1510.2775752040      8.93E-09 Convergence criterion met
 Total energy in the final basis set = -1510.27757520
   14   -1510.2799822391      1.86E-09 Convergence criterion met
 Total energy in the final basis set = -1510.27998224
   13   -1510.2819319996      6.90E-09 Convergence criterion met
   12   -1510.2959182237      6.98E-09 Convergence criterion met
 Total energy in the final basis set = -1510.29591822
   11   -1510.2960037265      3.68E-09 Convergence criterion met
 Total energy in the final basis set = -1510.29600373
   12   -1510.2960102875      2.86E-09 Convergence criterion met
 Total energy in the final basis set = -1510.29601029
   12   -1510.2960306000      2.18E-09 Convergence criterion met
 Total energy in the final basis set = -1510.29603060
   11   -1510.2960289567      6.39E-09 Convergence criterion met
 Total energy in the final basis set = -1510.29602896
   11   -1510.2960300482      5.37E-09 Convergence criterion met
 Total energy in the final basis set = -1510.29603005

             Standard Nuclear Orientation (Angstroms)
    I     Atom           X                Y                Z
 ----------------------------------------------------------------
    1      O      -1.6855940819     2.5823584525     0.1922748278
    2      C      -2.2547889854     1.8735731495    -0.6685780429
    3      C      -3.6144056091     1.0941022512    -0.5116655750
    4      C      -3.4514495792    -0.4811180698    -0.4567203491
    5      C      -1.9533449024    -0.9206216359    -0.4346356821
    6      O      -1.8597927489    -2.3095278746    -0.7780939538
    7      C      -0.4420950140    -2.7403111949    -0.7294759804
    8      C       0.3198178621    -2.3873281824    -2.0694602578
    9      O       1.7744309748    -2.2659133459    -1.8095249160
   10      C       2.1049107295    -0.9095701145    -1.4868306358
   11      C       3.6121146711    -0.8208577190    -1.0812284006
   12      C       3.9447975410     0.4700874548    -0.2226548806
   13      C       2.7212993375     1.4183392249     0.0826743399
   14      O       2.5236789135     2.5497564700    -0.4132777803
   15      O      -1.8358151806     1.7350710177    -2.0262032128
   16      O       1.9363980173     0.8335097123     1.1209186465
   17      O       1.2921861929     0.0383923508    -1.5563110039
   18      C       0.8750231794     1.7692117163     1.5639453099
   19      C       4.0420948925    -1.9792181062    -0.0833446874
   20      C       5.6191054680    -2.0475336912    -0.0588071944
   21      C       5.9629027963    -0.7678001818     0.7902531451
   22      C       4.5175563265    -0.2061598195     1.0974613071
   23      O       3.6948776541    -1.4297634858     1.2450720964
   24      H       4.2169145073    -0.8515961809    -2.0068037759
   25      H       4.7095927983     1.0836830172    -0.7303379545
   26      H       3.5204467701    -2.9392507200    -0.2624629947
   27      H       5.9561287135    -2.9682879806     0.4433016071
   28      H       6.0515190327    -2.0179548800    -1.0715838543
   29      H       6.4805463789    -1.0319325954     1.7260408977
   30      H       6.5812308856    -0.0431940032     0.2369797624
   31      H       4.4382302412     0.4226877411     2.0047366892
   32      O      -0.9696890411    -0.2123494895    -0.1250426620
   33      C      -0.5142322256     2.3779008028    -2.2328070012
   34      C      -4.2947349451     1.3795382931     0.8912035562
   35      C      -5.8135351609     0.9606474090     0.7972456961
   36      C      -5.6940696564    -0.6087088810     0.8043706107
   37      C      -4.1324473404    -0.7977608659     0.9481291026
   38      O      -3.7094519834     0.3481684062     1.7817564827
   39      H      -4.2734855508     1.3817634043    -1.3502533017
   40      H      -3.9707638403    -0.9907597983    -1.2875670830
   41      H       0.2953496473     1.6694735317    -1.9529598309
   42      H      -4.0926703289     2.3914423250     1.2923618029
   43      H      -6.3694490412     1.3259436243     1.6753361397
   44      H      -6.2970309851     1.3475012739    -0.1138735095
   45      H      -6.2153536554    -1.0513429162     1.6681477811
   46      H      -6.0834894137    -1.0702432952    -0.1172040200
   47      H      -3.8132526086    -1.7552275914     1.4041419872
   48      H      -0.4194371836     3.3010828292    -1.6283117449
   49      H      -0.4488567118     2.6198095847    -3.3094718044
   50      H       0.4221854219     1.3003530464     2.4566469843
   51      H       0.0810850785     1.9276580746     0.7996477559
   52      H       1.3029404345     2.7539086146     1.8407203668
   53      H       0.1947652183    -3.1900791689    -2.8223741806
   54      H      -0.0705434426    -1.4261283518    -2.4681720266
   55      H      -0.4591345607    -3.8353562128    -0.5642701127
   56      H       0.0832091644    -2.2423497756     0.1145164092
 ----------------------------------------------------------------

   11   -1510.2960299171      7.39E-09 Convergence criterion met
 Total energy in the final basis set = -1510.29602992
 Final energy is   -1510.29602991714
 **  OPTIMIZATION CONVERGED  **

                    Orbital Energies (a.u.)
 --------------------------------------------------------------

 Alpha MOs
 -- Occupied --
-18.944 -18.941 -18.916 -18.910 -18.893 -18.886 -18.886 -18.885
-18.859 -18.849 -10.111 -10.104 -10.089 -10.081 -10.077 -10.075
-10.061 -10.058 -10.055 -10.055 -10.040 -10.040 -10.033 -10.031
-10.028 -10.027 -10.020 -10.019 -10.018 -10.017  -1.025  -1.017
 -0.995  -0.988  -0.969  -0.967  -0.949  -0.941  -0.921  -0.913
 -0.762  -0.760  -0.728  -0.720  -0.712  -0.704  -0.695  -0.645
 -0.636  -0.619  -0.593  -0.580  -0.543  -0.543  -0.535  -0.534
 -0.511  -0.507  -0.482  -0.477  -0.460  -0.455  -0.452  -0.443
 -0.431  -0.431  -0.426  -0.409  -0.403  -0.398  -0.396  -0.394
 -0.385  -0.379  -0.373  -0.357  -0.355  -0.354  -0.348  -0.340
 -0.337  -0.333  -0.331  -0.328  -0.326  -0.321  -0.318  -0.314
 -0.310  -0.303  -0.301  -0.298  -0.294  -0.279  -0.278  -0.274
 -0.267  -0.260  -0.250  -0.238  -0.233  -0.232  -0.228  -0.195
 -0.176  -0.168  -0.161  -0.158  -0.150  -0.144  -0.141  -0.139
 -0.131

          Ground-State Mulliken Net Atomic Charges

     Atom                 Charge (a.u.)
  ----------------------------------------
      1 O                    -0.219790
      2 C                     0.219193
      3 C                    -0.080438
      4 C                    -0.078139
      5 C                     0.212178
      6 O                    -0.171788
      7 C                    -0.052775
      8 C                    -0.053611
      9 O                    -0.171600
     10 C                     0.220430
     11 C                    -0.078286
     12 C                    -0.081036
     13 C                     0.210224
     14 O                    -0.221740
     15 O                    -0.178329
     16 O                    -0.171775
     17 O                    -0.201061
     18 C                    -0.135904
     19 C                     0.024012
     20 C                    -0.143963
     21 C                    -0.144634
     22 C                     0.026841
     23 O                    -0.187412
     24 H                     0.085981
     25 H                     0.081842
     26 H                     0.087684
     27 H                     0.077383
     28 H                     0.072506
     29 H                     0.077347
     30 H                     0.073384
     31 H                     0.085909
     32 O                    -0.198870
     33 C                    -0.144732
     34 C                     0.024648
     35 C                    -0.143847
     36 C                    -0.143784
     37 C                     0.025440
     38 O                    -0.188502
     39 H                     0.083697
     40 H                     0.086684
     41 H                     0.112000
     42 H                     0.090116
     43 H                     0.078067
     44 H                     0.073430
     45 H                     0.078158
     46 H                     0.073586
     47 H                     0.083327
     48 H                     0.092293
     49 H                     0.079623
     50 H                     0.084320
     51 H                     0.110645
     52 H                     0.078883
     53 H                     0.089474
     54 H                     0.101149
     55 H                     0.089994
     56 H                     0.101569
  ----------------------------------------
  Sum of atomic charges =     0.000000

                    Cartesian Multipole Moments
 -----------------------------------------------------------------
    Charge (ESU x 10^10)
                 0.0000
    Dipole Moment (Debye)
         X      -0.4047      Y      -2.8478      Z      -2.0267
       Tot       3.5187
    Quadrupole Moments (Debye-Ang)
        XX    -135.2284     XY      -2.5069     YY    -160.6040
        XZ      -0.0235     YZ       3.1727     ZZ    -159.5822

 Total job time:  116.16s(wall), 5541.02s(cpu)
        *  Thank you very much for using Q-Chem.  Have a nice day.  *
