 Q-Chem 5.0, Q-Chem, Inc., Pleasanton, CA (2017)
 Q-Chem 5.0.1 for Intel X86 EM64T Linux

User input:
--------------------------------------------------------------
$molecule
0  1
O -3.94934 -3.66094 2.70899
C -3.26408 -4.56952 2.26188
C -3.36658 -6.02376 2.66595
C -2.12778 -6.66135 3.3161
C -0.98623 -5.72739 3.65177
O 0.06694 -6.4415 4.14806
C 1.26062 -6.29815 3.37099
C 0.94462 -5.61868 2.04261
O 1.91749 -5.99666 1.05594
C 2.53951 -4.96888 0.42673
C 3.33947 -5.41236 -0.77496
C 3.81324 -4.27575 -1.69253
C 3.7369 -2.87949 -1.10828
O 2.81235 -2.44049 -0.43967
O -2.36701 -4.29312 1.27857
O 4.81366 -2.06829 -1.29806
O 3.00102 -4.11928 1.17912
C 4.91669 -0.77845 -0.82002
C 4.67744 -6.09942 -0.4428
C 5.06514 -7.02501 -1.59416
C 5.4023 -6.01061 -2.66865
C 5.28718 -4.70784 -1.86551
O 5.63995 -5.07912 -0.55439
H 2.69168 -6.12771 -1.33267
H 3.22915 -4.25025 -2.63828
H 4.66085 -6.6582 0.51827
H 6.00125 -7.54431 -1.28705
H 4.30664 -7.78405 -1.8836
H 6.4495 -6.18847 -3.0
H 4.71931 -6.0003 -3.54572
H 5.92006 -3.92751 -2.33993
O -1.06161 -4.51221 3.77574
C -2.14577 -3.03638 0.75654
C -4.40478 -6.2583 3.78446
C -4.86652 -7.71604 3.77608
C -3.64124 -8.40392 4.33837
C -2.74766 -7.19343 4.62039
O -3.65607 -6.17863 4.97239
H -3.68435 -6.57382 1.75184
H -1.70971 -7.46799 2.67263
H -1.79657 -2.34685 1.5544
H -5.2883 -5.58691 3.71492
H -5.69403 -7.8115 4.51512
H -5.21103 -8.08939 2.78771
H -3.92308 -8.89701 5.29549
H -3.15498 -9.13992 3.66205
H -1.98473 -7.45201 5.38719
H -3.07875 -2.64232 0.29964
H -1.36339 -3.10151 -0.02726
H 5.89283 -0.35266 -1.13032
H 4.86064 -0.77595 0.28942
H 4.10285 -0.14889 -1.23948
H 0.0301 -6.04429 1.57397
H 0.8041 -4.51759 2.15341
H 1.59816 -7.33199 3.14264
H 2.06818 -5.78213 3.9314
$end

$opt
CONSTRAINT
tors           1           2           3           4    -118.008
tors           3           4           5           6    -176.516
tors           4           5           6           7    +120.358
tors           5           6           7           8     -11.820
tors           6           7           8           9    -154.104
tors           7           8           9          10    -126.106
tors           8           9          10          11    -168.637
tors           9          10          11          12    +167.519
tors          11          12          13          14     -41.741
ENDCONSTRAINT
$end

$rem
JOBTYPE                   OPT
METHOD                    B3LYP
DFT_D                     d3_op
BASIS                     STO-3G
GEOM_OPT_MAX_CYCLES       100
GEOM_OPT_TOL_GRADIENT     300
GEOM_OPT_TOL_DISPLACEMENT 1200
GEOM_OPT_TOL_ENERGY       100
SYMMETRY                  False
THRESH                    12
SCF_CONVERGENCE           8
MAX_SUB_FILE_NUM          128
MEM_STATIC                400
MEM_TOTAL                 4000
$end
--------------------------------------------------------------

   16   -1510.0913815575      3.12E-09 Convergence criterion met
 Total energy in the final basis set = -1510.09138156
   14   -1510.1682738418      9.12E-09 Convergence criterion met
 Total energy in the final basis set = -1510.16827384
   14   -1510.2109907465      8.40E-09 Convergence criterion met
 Total energy in the final basis set = -1510.21099075
   14   -1510.2345820315      7.09E-09 Convergence criterion met
 Total energy in the final basis set = -1510.23458203
   13   -1510.2456093174      8.11E-09 Convergence criterion met
 Total energy in the final basis set = -1510.24560932
   13   -1510.2513317105      6.06E-09 Convergence criterion met
 Total energy in the final basis set = -1510.25133171
    2   -1510.2513317105      7.48E-09 Convergence criterion met
 Total energy in the final basis set = -1510.25133171
   13   -1510.2546078002      4.98E-09 Convergence criterion met
   11   -1510.2610166888      7.18E-09 Convergence criterion met
 Total energy in the final basis set = -1510.26101669
   11   -1510.2610344406      5.79E-09 Convergence criterion met
 Total energy in the final basis set = -1510.26103444
   11   -1510.2610492427      5.82E-09 Convergence criterion met
 Total energy in the final basis set = -1510.26104924
    9   -1510.2610571755      7.89E-09 Convergence criterion met
 Total energy in the final basis set = -1510.26105718
    9   -1510.2610636736      7.65E-09 Convergence criterion met
 Total energy in the final basis set = -1510.26106367
    9   -1510.2610657466      7.03E-09 Convergence criterion met
 Total energy in the final basis set = -1510.26106575

             Standard Nuclear Orientation (Angstroms)
    I     Atom           X                Y                Z
 ----------------------------------------------------------------
    1      O       3.8533639334    -2.7823606360     0.2603928542
    2      C       3.5120250735    -1.7687623371    -0.3826979540
    3      C       4.3946239416    -0.5203062851    -0.7571217108
    4      C       3.8796924061     0.8420617871    -0.1434620935
    5      C       2.8023604756     0.6217344551     0.9769380394
    6      O       2.2896900963     1.8826537443     1.4639118796
    7      C       0.8173001837     1.9842996868     1.2589689533
    8      C       0.1634346216     0.8917713167     0.3275793845
    9      O      -1.0745307880     1.4548736638    -0.2641492802
   10      C      -2.1838764056     0.5793962569    -0.0010603057
   11      C      -3.3964163869     1.0486162553    -0.8777926792
   12      C      -4.5779672731    -0.0017830721    -0.9261708691
   13      C      -4.1525520421    -1.4841617166    -0.6173638873
   14      O      -3.1257818753    -2.0679989575    -1.0266795120
   15      O       2.2386508570    -1.5966186042    -1.0318877586
   16      O      -5.1571538595    -2.1055680973     0.1898932546
   17      O      -2.1580872520    -0.3494207286     0.8349534372
   18      C      -4.7697245474    -3.5036261358     0.4877660200
   19      C      -4.1170585549     2.2266356245    -0.0842479433
   20      C      -5.2811487967     2.8363594232    -0.9645897306
   21      C      -6.4129445629     1.7587310849    -0.7723564476
   22      C      -5.6362900383     0.6641321614     0.0561179901
   23      O      -4.8195253072     1.4788745001     0.9851941477
   24      H      -3.0411383523     1.3533827659    -1.8775468333
   25      H      -4.9943908665    -0.0158066988    -1.9517448958
   26      H      -3.4197726851     2.9685149257     0.3517235883
   27      H      -5.5849615573     3.8214512886    -0.5766287587
   28      H      -4.9801030559     2.9508603043    -2.0184297221
   29      H      -7.2525446231     2.1598456316    -0.1823002930
   30      H      -6.8028732556     1.3699630686    -1.7265693686
   31      H      -6.2599888060    -0.0611958444     0.6123886140
   32      O       2.4442431938    -0.4866907950     1.4334434836
   33      C       1.3222339668    -2.6918436543    -0.6444994508
   34      C       5.8651221837    -0.5910978952    -0.1701528085
   35      C       6.7762467587     0.3516971639    -1.0467188751
   36      C       6.2528138812     1.7677721295    -0.5996079222
   37      C       5.2182604962     1.3755453725     0.5297947245
   38      O       5.7781618953     0.1376263063     1.1189016601
   39      H       4.4134181094    -0.4489543449    -1.8600127772
   40      H       3.4766485776     1.5374726473    -0.9010890502
   41      H       1.1162088622    -2.6734904241     0.4454889592
   42      H       6.2393424596    -1.6205996071    -0.0075099560
   43      H       7.8370700025     0.2146941675    -0.7828128018
   44      H       6.6532007829     0.1704925571    -2.1264490110
   45      H       7.0624895921     2.3870707786    -0.1822055523
   46      H       5.7734181830     2.3226156102    -1.4222543341
   47      H       5.0561333123     2.1449126460     1.3096806866
   48      H       1.7347760821    -3.6866724001    -0.9095132966
   49      H       0.3809291550    -2.5201447702    -1.1993486309
   50      H      -5.5689921960    -3.9100266574     1.1344932467
   51      H      -3.7985998122    -3.5501251333     1.0212504319
   52      H      -4.6940256676    -4.1128887603    -0.4362499366
   53      H       0.8438467531     0.6254237695    -0.5108800412
   54      H      -0.0901923922    -0.0252421063     0.8998567418
   55      H       0.6429984981     2.9840057986     0.8026212748
   56      H       0.3066657251     1.9703531949     2.2479387858
 ----------------------------------------------------------------

    9   -1510.2610664511      3.40E-09 Convergence criterion met
 Total energy in the final basis set = -1510.26106645
 Final energy is   -1510.26106645111
 **  OPTIMIZATION CONVERGED  **

                    Orbital Energies (a.u.)
 --------------------------------------------------------------

 Alpha MOs
 -- Occupied --
-18.935 -18.933 -18.916 -18.914 -18.904 -18.889 -18.886 -18.885
-18.869 -18.863 -10.112 -10.104 -10.099 -10.090 -10.075 -10.069
-10.064 -10.062 -10.061 -10.059 -10.056 -10.051 -10.043 -10.040
-10.038 -10.033 -10.024 -10.022 -10.021 -10.019  -1.018  -1.014
 -1.007  -0.995  -0.973  -0.969  -0.945  -0.939  -0.932  -0.924
 -0.766  -0.762  -0.728  -0.723  -0.714  -0.706  -0.696  -0.660
 -0.652  -0.620  -0.599  -0.582  -0.547  -0.545  -0.540  -0.536
 -0.516  -0.508  -0.482  -0.472  -0.465  -0.457  -0.455  -0.449
 -0.438  -0.436  -0.429  -0.410  -0.409  -0.405  -0.400  -0.397
 -0.391  -0.387  -0.375  -0.368  -0.364  -0.358  -0.357  -0.348
 -0.343  -0.338  -0.336  -0.332  -0.331  -0.325  -0.322  -0.314
 -0.312  -0.308  -0.306  -0.303  -0.300  -0.288  -0.279  -0.278
 -0.272  -0.256  -0.249  -0.247  -0.244  -0.236  -0.233  -0.182
 -0.175  -0.166  -0.164  -0.162  -0.161  -0.151  -0.145  -0.144
 -0.141

          Ground-State Mulliken Net Atomic Charges

     Atom                 Charge (a.u.)
  ----------------------------------------
      1 O                    -0.213909
      2 C                     0.215865
      3 C                    -0.082407
      4 C                    -0.078765
      5 C                     0.223605
      6 O                    -0.189438
      7 C                    -0.049640
      8 C                    -0.061501
      9 O                    -0.176863
     10 C                     0.215720
     11 C                    -0.076788
     12 C                    -0.080134
     13 C                     0.214706
     14 O                    -0.217684
     15 O                    -0.182886
     16 O                    -0.170232
     17 O                    -0.205185
     18 C                    -0.127467
     19 C                     0.024731
     20 C                    -0.144953
     21 C                    -0.142472
     22 C                     0.023624
     23 O                    -0.190379
     24 H                     0.088079
     25 H                     0.082661
     26 H                     0.083635
     27 H                     0.078633
     28 H                     0.073802
     29 H                     0.078377
     30 H                     0.073324
     31 H                     0.094532
     32 O                    -0.182722
     33 C                    -0.130681
     34 C                     0.023987
     35 C                    -0.142982
     36 C                    -0.144295
     37 C                     0.024835
     38 O                    -0.189399
     39 H                     0.082803
     40 H                     0.084644
     41 H                     0.092082
     42 H                     0.091101
     43 H                     0.078342
     44 H                     0.073104
     45 H                     0.078585
     46 H                     0.073100
     47 H                     0.086942
     48 H                     0.086793
     49 H                     0.090821
     50 H                     0.090160
     51 H                     0.093972
     52 H                     0.087224
     53 H                     0.088398
     54 H                     0.108805
     55 H                     0.087734
     56 H                     0.086054
  ----------------------------------------
  Sum of atomic charges =    -0.000000

                    Cartesian Multipole Moments
 -----------------------------------------------------------------
    Charge (ESU x 10^10)
                -0.0000
    Dipole Moment (Debye)
         X      -1.9982      Y       2.3460      Z      -3.6699
       Tot       4.7921
    Quadrupole Moments (Debye-Ang)
        XX    -148.9901     XY       8.8955     YY    -155.5909
        XZ      -4.5703     YZ      -0.9151     ZZ    -162.8576

 Total job time:  65.20s(wall), 3101.53s(cpu)
        *  Thank you very much for using Q-Chem.  Have a nice day.  *
