 Q-Chem 5.0, Q-Chem, Inc., Pleasanton, CA (2017)
 Q-Chem 5.0.1 for Intel X86 EM64T Linux

User input:
--------------------------------------------------------------
$molecule
0  1
O -3.94934 -3.66094 2.70899
C -3.26408 -4.56952 2.26188
C -3.36658 -6.02376 2.66595
C -2.1315 -6.65832 3.32608
C -0.99463 -5.7217 3.67011
O 0.03725 -5.90298 2.79387
C 1.12845 -5.00318 3.01499
C 2.31896 -5.7548 3.60141
O 3.12034 -4.86224 4.39135
C 4.38744 -5.27868 4.63664
C 4.79985 -5.09132 6.07729
C 6.10842 -4.31364 6.28012
C 6.61329 -3.54429 5.076
O 7.63179 -2.86894 5.04246
O -2.33715 -4.28544 1.30996
O 5.86077 -3.43929 3.94684
O 5.02503 -5.98857 3.86773
C 6.19653 -2.72507 2.81318
C 3.85467 -4.24055 6.96545
C 4.06377 -4.60177 8.43656
C 5.42684 -3.99258 8.69005
C 5.67161 -3.29976 7.34632
O 4.38472 -2.93856 6.90475
H 4.85755 -6.11447 6.51289
H 6.93773 -4.98535 6.59316
H 2.77621 -4.34393 6.71956
H 3.30818 -4.02964 9.02188
H 3.97222 -5.68148 8.68282
H 5.33099 -3.24424 9.50791
H 6.235 -4.71776 8.92835
H 6.39973 -2.46685 7.46332
O -1.10781 -4.80373 4.4759
C -2.08332 -3.02003 0.82489
C -4.41175 -6.26649 3.77724
C -4.86811 -7.72606 3.76054
C -3.64461 -8.41236 4.3306
C -2.75571 -7.20022 4.62208
O -3.67183 -6.1906 4.97181
H -3.67315 -6.57335 1.74771
H -1.72592 -7.47922 2.6904
H -1.74454 -2.35628 1.64897
H -5.29657 -5.59723 3.704
H -5.70113 -7.82713 4.49264
H -5.20358 -8.09676 2.7681
H -3.9316 -8.90742 5.28513
H -3.15327 -9.14707 3.65668
H -1.989 -7.45492 5.38705
H -2.9975 -2.59954 0.35398
H -1.28121 -3.07794 0.06086
H 5.38599 -2.83318 2.0636
H 7.14018 -3.11882 2.37896
H 6.31416 -1.64818 3.05928
H 1.94062 -6.52776 4.30644
H 2.86284 -6.26642 2.77613
H 0.8965 -4.18572 3.7322
H 1.4095 -4.47561 2.07913
$end

$opt
CONSTRAINT
tors           1           2           3           4    -117.543
tors           3           4           5           6    -106.192
tors           4           5           6           7    +177.108
tors           5           6           7           8    +108.433
tors           6           7           8           9    -152.586
tors           7           8           9          10    -161.233
tors           8           9          10          11    -134.869
tors           9          10          11          12    -126.803
tors          11          12          13          14    -180.000
ENDCONSTRAINT
$end

$rem
JOBTYPE                   OPT
METHOD                    B3LYP
DFT_D                     d3_op
BASIS                     STO-3G
GEOM_OPT_MAX_CYCLES       100
GEOM_OPT_TOL_GRADIENT     300
GEOM_OPT_TOL_DISPLACEMENT 1200
GEOM_OPT_TOL_ENERGY       100
SYMMETRY                  False
THRESH                    12
SCF_CONVERGENCE           8
MAX_SUB_FILE_NUM          128
MEM_STATIC                400
MEM_TOTAL                 4000
$end
--------------------------------------------------------------

   15   -1510.1340670596      8.42E-09 Convergence criterion met
 Total energy in the final basis set = -1510.13406706
   13   -1510.2055499025      8.75E-09 Convergence criterion met
 Total energy in the final basis set = -1510.20554990
   14   -1510.2441007864      7.55E-09 Convergence criterion met
 Total energy in the final basis set = -1510.24410079
   14   -1510.2609616037      7.66E-09 Convergence criterion met
 Total energy in the final basis set = -1510.26096160
   14   -1510.2652046687      1.61E-09 Convergence criterion met
 Total energy in the final basis set = -1510.26520467
   13   -1510.2671308024      3.97E-09 Convergence criterion met
 Total energy in the final basis set = -1510.26713080
   12   -1510.2676875588      8.19E-09 Convergence criterion met
 Total energy in the final basis set = -1510.26768756
   12   -1510.2680070739      8.95E-09 Convergence criterion met
   11   -1510.2685136186      6.02E-09 Convergence criterion met
 Total energy in the final basis set = -1510.26851362
   11   -1510.2685353344      4.19E-09 Convergence criterion met
 Total energy in the final basis set = -1510.26853533
   11   -1510.2685640999      3.52E-09 Convergence criterion met
 Total energy in the final basis set = -1510.26856410
   11   -1510.2685760864      2.71E-09 Convergence criterion met
 Total energy in the final basis set = -1510.26857609
   11   -1510.2685952373      3.10E-09 Convergence criterion met
 Total energy in the final basis set = -1510.26859524
   10   -1510.2685991539      5.87E-09 Convergence criterion met
 Total energy in the final basis set = -1510.26859915

             Standard Nuclear Orientation (Angstroms)
    I     Atom           X                Y                Z
 ----------------------------------------------------------------
    1      O      -4.9973140390     1.2113908232     2.1736928138
    2      C      -4.6716183213     1.2848354306     0.9708540014
    3      C      -5.1628591181     0.3785485473    -0.2149010741
    4      C      -3.9812071100    -0.4426118869    -0.8927864172
    5      C      -2.5713456407    -0.0474302230    -0.3394815345
    6      O      -1.9023575452     0.7307487428    -1.3438416987
    7      C      -0.5861838974     1.1898892080    -0.8406245666
    8      C       0.5769691547     0.4172100766    -1.5594042236
    9      O       1.7229253172     0.3942783783    -0.6214033839
   10      C       2.9491145738     0.1067216903    -1.3388021817
   11      C       3.8046850444    -0.9696427987    -0.5634037467
   12      C       5.3023379897    -0.5575563434    -0.2679032810
   13      C       5.5580925978     0.9931946102    -0.2119216247
   14      O       6.6489112176     1.5637315459     0.0043154511
   15      O      -3.7205979617     2.2213427709     0.4475622703
   16      O       4.3040837340     1.6817937615    -0.2524948720
   17      O       3.1701705000     0.4842720601    -2.5099784773
   18      C       4.4955739280     3.1438209277    -0.1432075959
   19      C       3.2973218535    -1.3855672714     0.8824914524
   20      C       3.7694108049    -2.8702921638     1.1285168191
   21      C       5.3248767496    -2.6617039625     1.2588258816
   22      C       5.4325778677    -1.0841508614     1.2304906516
   23      O       4.1538743634    -0.6179153231     1.8177644550
   24      H       3.8007434708    -1.8562213524    -1.2253061878
   25      H       6.0268658920    -1.0289269612    -0.9551242473
   26      H       2.2264127986    -1.1704438855     1.0611224268
   27      H       3.3377338171    -3.2590297603     2.0649152887
   28      H       3.4940793144    -3.5464731139     0.3035094186
   29      H       5.7129923329    -3.0599620644     2.2095192099
   30      H       5.8839876980    -3.1232073326     0.4288007371
   31      H       6.2945982139    -0.6601760700     1.7817983778
   32      O      -2.0812271015    -0.3263146123     0.7770768382
   33      C      -3.1174608240     3.0040542830     1.5502261575
   34      C      -6.0620929930    -0.7983488976     0.3431931943
   35      C      -6.7751851573    -1.5215016807    -0.8657062217
   36      C      -5.5841232417    -2.3547691197    -1.4701984788
   37      C      -4.4005686531    -1.9282611015    -0.5149191518
   38      O      -5.0573163804    -1.7866910831     0.8033375363
   39      H      -5.6870858248     1.0057331050    -0.9588509024
   40      H      -3.9728910576    -0.2860024931    -1.9856870457
   41      H      -2.5400161271     2.3497427363     2.2353849369
   42      H      -6.7182084700    -0.4998896890     1.1837596405
   43      H      -7.5831862725    -2.1757510858    -0.5018317874
   44      H      -7.1995353242    -0.8039490434    -1.5861782285
   45      H      -5.7686138509    -3.4380615240    -1.3919258547
   46      H      -5.3801933919    -2.1058155624    -2.5238413600
   47      H      -3.5580214318    -2.6438531738    -0.4527848261
   48      H      -3.8859712600     3.5441698763     2.1395069452
   49      H      -2.4364932770     3.7312826204     1.0712783304
   50      H       3.4807954343     3.5822999736    -0.1357285099
   51      H       5.0681756009     3.5438685935    -1.0048675179
   52      H       5.0269884896     3.4107830056     0.7929013074
   53      H       0.2438308519    -0.6252338979    -1.7697396512
   54      H       0.8543083383     0.8970273540    -2.5223369170
   55      H      -0.5329461237     0.9815739503     0.2508888973
   56      H      -0.5139225755     2.2805184706    -1.0249160521
 ----------------------------------------------------------------

    9   -1510.2685991740      8.86E-09 Convergence criterion met
 Total energy in the final basis set = -1510.26859917
 Final energy is   -1510.26859917405
 **  OPTIMIZATION CONVERGED  **

                    Orbital Energies (a.u.)
 --------------------------------------------------------------

 Alpha MOs
 -- Occupied --
-18.944 -18.936 -18.932 -18.912 -18.888 -18.885 -18.880 -18.876
-18.875 -18.868 -10.102 -10.101 -10.100 -10.100 -10.068 -10.068
-10.066 -10.065 -10.061 -10.060 -10.059 -10.055 -10.040 -10.039
-10.039 -10.034 -10.021 -10.020 -10.020 -10.018  -1.017  -1.016
 -1.008  -0.999  -0.970  -0.968  -0.939  -0.938  -0.937  -0.928
 -0.765  -0.762  -0.726  -0.723  -0.713  -0.704  -0.692  -0.663
 -0.663  -0.614  -0.598  -0.579  -0.547  -0.544  -0.538  -0.536
 -0.514  -0.509  -0.489  -0.477  -0.468  -0.454  -0.453  -0.443
 -0.436  -0.429  -0.429  -0.415  -0.415  -0.414  -0.410  -0.398
 -0.391  -0.381  -0.378  -0.371  -0.362  -0.356  -0.352  -0.350
 -0.345  -0.337  -0.334  -0.330  -0.330  -0.329  -0.322  -0.311
 -0.309  -0.307  -0.306  -0.300  -0.298  -0.290  -0.285  -0.277
 -0.273  -0.255  -0.251  -0.248  -0.236  -0.234  -0.229  -0.181
 -0.179  -0.176  -0.163  -0.161  -0.156  -0.152  -0.147  -0.144
 -0.140

          Ground-State Mulliken Net Atomic Charges

     Atom                 Charge (a.u.)
  ----------------------------------------
      1 O                    -0.204919
      2 C                     0.211685
      3 C                    -0.077624
      4 C                    -0.079038
      5 C                     0.210548
      6 O                    -0.171792
      7 C                    -0.054837
      8 C                    -0.050278
      9 O                    -0.184606
     10 C                     0.223457
     11 C                    -0.080188
     12 C                    -0.077190
     13 C                     0.214340
     14 O                    -0.212844
     15 O                    -0.172612
     16 O                    -0.162582
     17 O                    -0.218531
     18 C                    -0.124334
     19 C                     0.022672
     20 C                    -0.142564
     21 C                    -0.145114
     22 C                     0.024247
     23 O                    -0.191261
     24 H                     0.081977
     25 H                     0.086949
     26 H                     0.094697
     27 H                     0.078606
     28 H                     0.072226
     29 H                     0.078594
     30 H                     0.073484
     31 H                     0.085033
     32 O                    -0.215166
     33 C                    -0.129376
     34 C                     0.024654
     35 C                    -0.144558
     36 C                    -0.143408
     37 C                     0.025404
     38 O                    -0.185867
     39 H                     0.085819
     40 H                     0.086318
     41 H                     0.093092
     42 H                     0.090182
     43 H                     0.078660
     44 H                     0.073174
     45 H                     0.078211
     46 H                     0.073233
     47 H                     0.083963
     48 H                     0.090628
     49 H                     0.089450
     50 H                     0.093976
     51 H                     0.090995
     52 H                     0.093750
     53 H                     0.077007
     54 H                     0.091942
     55 H                     0.104069
     56 H                     0.085651
  ----------------------------------------
  Sum of atomic charges =     0.000000

                    Cartesian Multipole Moments
 -----------------------------------------------------------------
    Charge (ESU x 10^10)
                 0.0000
    Dipole Moment (Debye)
         X      -1.0209      Y      -0.2496      Z      -2.3461
       Tot       2.5708
    Quadrupole Moments (Debye-Ang)
        XX    -160.3423     XY      -9.0921     YY    -146.9544
        XZ      12.9713     YZ       5.4998     ZZ    -168.9882

 Total job time:  48.51s(wall), 2303.82s(cpu)
        *  Thank you very much for using Q-Chem.  Have a nice day.  *
