 Q-Chem 5.0, Q-Chem, Inc., Pleasanton, CA (2017)
 Q-Chem 5.0.1 for Intel X86 EM64T Linux

User input:
--------------------------------------------------------------
$molecule
0  1
O -4.997314039 1.2113908232 2.1736928138
C -4.6716183213 1.2848354306 0.9708540014
C -5.1628591181 0.3785485473 -0.2149010741
C -3.98120711 -0.4426118869 -0.8927864172
C -2.5713456407 -0.047430223 -0.3394815345
O -1.9023575452 0.7307487428 -1.3438416987
C -0.5861838974 1.189889208 -0.8406245666
C 0.5769691547 0.4172100766 -1.5594042236
O 1.7229253172 0.3942783783 -0.6214033839
C 2.9491145738 0.1067216903 -1.3388021817
C 3.8046850444 -0.9696427987 -0.5634037467
C 5.3023379897 -0.5575563434 -0.267903281
C 5.5580925978 0.9931946102 -0.2119216247
O 6.6489112176 1.5637315459 0.0043154511
O -3.7205979617 2.2213427709 0.4475622703
O 4.304083734 1.6817937615 -0.252494872
O 3.1701705 0.4842720601 -2.5099784773
C 4.495573928 3.1438209277 -0.1432075959
C 3.2973218535 -1.3855672714 0.8824914524
C 3.7694108049 -2.8702921638 1.1285168191
C 5.3248767496 -2.6617039625 1.2588258816
C 5.4325778677 -1.0841508614 1.2304906516
O 4.1538743634 -0.6179153231 1.817764455
H 3.8007434708 -1.8562213524 -1.2253061878
H 6.026865892 -1.0289269612 -0.9551242473
H 2.2264127986 -1.1704438855 1.0611224268
H 3.3377338171 -3.2590297603 2.0649152887
H 3.4940793144 -3.5464731139 0.3035094186
H 5.7129923329 -3.0599620644 2.2095192099
H 5.883987698 -3.1232073326 0.4288007371
H 6.2945982139 -0.66017607 1.7817983778
O -2.0812271015 -0.3263146123 0.7770768382
C -3.117460824 3.004054283 1.5502261575
C -6.062092993 -0.7983488976 0.3431931943
C -6.7751851573 -1.5215016807 -0.8657062217
C -5.5841232417 -2.3547691197 -1.4701984788
C -4.4005686531 -1.9282611015 -0.5149191518
O -5.0573163804 -1.7866910831 0.8033375363
H -5.6870858248 1.005733105 -0.9588509024
H -3.9728910576 -0.2860024931 -1.9856870457
H -2.5400161271 2.3497427363 2.2353849369
H -6.71820847 -0.499889689 1.1837596405
H -7.5831862725 -2.1757510858 -0.5018317874
H -7.1995353242 -0.8039490434 -1.5861782285
H -5.7686138509 -3.438061524 -1.3919258547
H -5.3801933919 -2.1058155624 -2.52384136
H -3.5580214318 -2.6438531738 -0.4527848261
H -3.88597126 3.5441698763 2.1395069452
H -2.436493277 3.7312826204 1.0712783304
H 3.4807954343 3.5822999736 -0.1357285099
H 5.0681756009 3.5438685935 -1.0048675179
H 5.0269884896 3.4107830056 0.7929013074
H 0.2438308519 -0.6252338979 -1.7697396512
H 0.8543083383 0.897027354 -2.522336917
H -0.5329461237 0.9815739503 0.2508888973
H -0.5139225755 2.2805184706 -1.0249160521
$end

$rem
JOBTYPE                   OPT
METHOD                    B3LYP
DFT_D                     d3_op
BASIS                     STO-3G
GEOM_OPT_MAX_CYCLES       100
GEOM_OPT_TOL_GRADIENT     300
GEOM_OPT_TOL_DISPLACEMENT 1200
GEOM_OPT_TOL_ENERGY       100
SYMMETRY                  False
THRESH                    12
SCF_CONVERGENCE           8
MAX_SUB_FILE_NUM          128
MEM_STATIC                400
MEM_TOTAL                 4000
$end
--------------------------------------------------------------

   16   -1510.2685376967      5.14E-09 Convergence criterion met
 Total energy in the final basis set = -1510.26853770
   14   -1510.2728765463      7.02E-09 Convergence criterion met
 Total energy in the final basis set = -1510.27287655
   14   -1510.2762169712      6.58E-09 Convergence criterion met
 Total energy in the final basis set = -1510.27621697
   14   -1510.2786717292      5.69E-09 Convergence criterion met
 Total energy in the final basis set = -1510.27867173
   14   -1510.2803468312      4.13E-09 Convergence criterion met
 Total energy in the final basis set = -1510.28034683
   13   -1510.2813026215      6.28E-09 Convergence criterion met
 Total energy in the final basis set = -1510.28130262
   13   -1510.2820967460      4.40E-09 Convergence criterion met
 Total energy in the final basis set = -1510.28209675
   13   -1510.2827577813      8.03E-09 Convergence criterion met
   13   -1510.2930855694      2.27E-09 Convergence criterion met
 Total energy in the final basis set = -1510.29308557
   12   -1510.2930925222      4.72E-09 Convergence criterion met
 Total energy in the final basis set = -1510.29309252
   11   -1510.2931270105      8.69E-09 Convergence criterion met
 Total energy in the final basis set = -1510.29312701
   11   -1510.2931246888      5.34E-09 Convergence criterion met
 Total energy in the final basis set = -1510.29312469
   10   -1510.2931302937      9.35E-09 Convergence criterion met
 Total energy in the final basis set = -1510.29313029
    9   -1510.2931305079      4.16E-09 Convergence criterion met
 Total energy in the final basis set = -1510.29313051

             Standard Nuclear Orientation (Angstroms)
    I     Atom           X                Y                Z
 ----------------------------------------------------------------
    1      O      -3.1222552674     1.4364449602     2.2609098526
    2      C      -2.7591491455     1.2354429198     1.0843388636
    3      C      -3.6585877726     1.1797549397    -0.2039515049
    4      C      -3.4297915641    -0.1206052006    -1.0919253636
    5      C      -2.2974443144    -1.0413591830    -0.5207704595
    6      O      -1.1619621937    -0.9462331806    -1.3937484876
    7      C       0.0236205605    -1.5562434335    -0.7454757022
    8      C       0.8642290037    -2.3865554128    -1.7826292582
    9      O       2.2225118666    -2.5354207410    -1.1983248323
   10      C       2.9686919110    -1.3333333075    -1.4333937214
   11      C       4.0501249762    -1.1248828951    -0.3100351044
   12      C       4.0417613216     0.3813092548     0.2078099349
   13      C       3.0761341636     1.3297674160    -0.5862653984
   14      O       3.4076782100     2.2739024387    -1.3334836102
   15      O      -1.3973501567     1.0139655718     0.6916597660
   16      O       1.7084576879     0.9991209090    -0.2758781295
   17      O       2.7413124288    -0.5433869623    -2.3776910547
   18      C       0.7851171319     1.8131414051    -1.1075236249
   19      C       3.6769838879    -1.8991122539     1.0199681599
   20      C       4.9110807245    -1.8542302169     2.0037785019
   21      C       4.8327887778    -0.3730378869     2.5288691514
   22      C       3.5912721793     0.1687151145     1.7188191994
   23      O       2.6830193318    -0.9986096468     1.6526433762
   24      H       5.0463021594    -1.4077879997    -0.6975248207
   25      H       5.0519733895     0.8221326877     0.1447049717
   26      H       3.2350555587    -2.8978582869     0.8436510709
   27      H       4.7797419140    -2.5808743921     2.8211206216
   28      H       5.8589833768    -2.0725432454     1.4864624914
   29      H       4.6300171955    -0.3385321654     3.6112395267
   30      H       5.7480655368     0.2040496917     2.3215422326
   31      H       3.0741730448     1.0372865769     2.1706444785
   32      O      -2.3474563070    -1.7550380674     0.5052462873
   33      C      -0.5043087262     0.9114933363     1.8708050125
   34      C      -5.1814741454     1.0123431378     0.1932963135
   35      C      -6.0678423176     1.3265632387    -1.0745480760
   36      C      -5.8544449265     0.0199026167    -1.9266406273
   37      C      -4.8671520644    -0.7918574023    -0.9974196664
   38      O      -5.3216501778    -0.4519991842     0.3695873551
   39      H      -3.4819564334     2.0963782640    -0.7971097447
   40      H      -3.1659794982     0.1495784339    -2.1293746810
   41      H      -0.7302570949    -0.0038452465     2.4539091582
   42      H      -5.4598521001     1.5420383361     1.1251029315
   43      H      -7.1234483978     1.4546335013    -0.7872857386
   44      H      -5.7306337325     2.2351634712    -1.5982052951
   45      H      -6.7975828370    -0.5336189346    -2.0601297229
   46      H      -5.4207248022     0.2230706465    -2.9188927892
   47      H      -4.8718001326    -1.8893526530    -1.1439694289
   48      H      -0.6068355720     1.7952001269     2.5316185054
   49      H       0.5217603214     0.8524799988     1.4541445764
   50      H      -0.2255415754     1.6261819800    -0.6851579997
   51      H       0.8299425062     1.4860763476    -2.1657136622
   52      H       1.0422433627     2.8890966911    -1.0535329938
   53      H       0.4618059723    -3.4077180967    -1.9302299983
   54      H       0.9129105076    -1.8518287825    -2.7554700473
   55      H      -0.3100333228    -2.1871503236     0.1050651331
   56      H       0.6738351782    -0.7326343743    -0.3644821835
 ----------------------------------------------------------------

    9   -1510.2931312859      2.72E-09 Convergence criterion met
 Total energy in the final basis set = -1510.29313129
 Final energy is   -1510.29313128594
 **  OPTIMIZATION CONVERGED  **

                    Orbital Energies (a.u.)
 --------------------------------------------------------------

 Alpha MOs
 -- Occupied --
-18.942 -18.935 -18.933 -18.924 -18.892 -18.887 -18.885 -18.885
-18.877 -18.868 -10.107 -10.105 -10.100 -10.096 -10.071 -10.065
-10.062 -10.059 -10.058 -10.056 -10.051 -10.045 -10.043 -10.040
-10.040 -10.036 -10.024 -10.023 -10.020 -10.019  -1.020  -1.017
 -1.007  -1.003  -0.975  -0.969  -0.944  -0.942  -0.935  -0.930
 -0.767  -0.764  -0.728  -0.724  -0.714  -0.706  -0.693  -0.660
 -0.652  -0.617  -0.598  -0.578  -0.549  -0.546  -0.541  -0.537
 -0.515  -0.509  -0.487  -0.481  -0.470  -0.456  -0.453  -0.441
 -0.440  -0.437  -0.429  -0.421  -0.413  -0.406  -0.400  -0.398
 -0.387  -0.385  -0.369  -0.365  -0.361  -0.356  -0.353  -0.348
 -0.347  -0.343  -0.337  -0.335  -0.331  -0.328  -0.323  -0.314
 -0.310  -0.309  -0.307  -0.301  -0.297  -0.288  -0.285  -0.281
 -0.273  -0.260  -0.255  -0.246  -0.242  -0.240  -0.233  -0.184
 -0.183  -0.176  -0.164  -0.162  -0.160  -0.152  -0.149  -0.148
 -0.143

          Ground-State Mulliken Net Atomic Charges

     Atom                 Charge (a.u.)
  ----------------------------------------
      1 O                    -0.202343
      2 C                     0.215768
      3 C                    -0.078409
      4 C                    -0.079737
      5 C                     0.211843
      6 O                    -0.176226
      7 C                    -0.067159
      8 C                    -0.051538
      9 O                    -0.174424
     10 C                     0.213295
     11 C                    -0.078396
     12 C                    -0.081246
     13 C                     0.212466
     14 O                    -0.206497
     15 O                    -0.175191
     16 O                    -0.179825
     17 O                    -0.208774
     18 C                    -0.144039
     19 C                     0.022990
     20 C                    -0.144597
     21 C                    -0.143431
     22 C                     0.024529
     23 O                    -0.191484
     24 H                     0.086807
     25 H                     0.085906
     26 H                     0.094242
     27 H                     0.079105
     28 H                     0.074153
     29 H                     0.078680
     30 H                     0.074745
     31 H                     0.082215
     32 O                    -0.217763
     33 C                    -0.136331
     34 C                     0.024223
     35 C                    -0.144271
     36 C                    -0.143739
     37 C                     0.025598
     38 O                    -0.186361
     39 H                     0.084546
     40 H                     0.085534
     41 H                     0.093748
     42 H                     0.090624
     43 H                     0.078573
     44 H                     0.072821
     45 H                     0.078280
     46 H                     0.073367
     47 H                     0.084545
     48 H                     0.087419
     49 H                     0.108009
     50 H                     0.109950
     51 H                     0.088134
     52 H                     0.084653
     53 H                     0.089054
     54 H                     0.097917
     55 H                     0.097195
     56 H                     0.100847
  ----------------------------------------
  Sum of atomic charges =     0.000000

                    Cartesian Multipole Moments
 -----------------------------------------------------------------
    Charge (ESU x 10^10)
                 0.0000
    Dipole Moment (Debye)
         X       1.3774      Y       0.1783      Z      -0.8333
       Tot       1.6197
    Quadrupole Moments (Debye-Ang)
        XX    -150.7951     XY     -11.6540     YY    -158.9535
        XZ      20.9480     YZ       5.1000     ZZ    -164.3827

 Total job time:  139.37s(wall), 6641.79s(cpu)
        *  Thank you very much for using Q-Chem.  Have a nice day.  *
