 Q-Chem 5.0, Q-Chem, Inc., Pleasanton, CA (2017)
 Q-Chem 5.0.1 for Intel X86 EM64T Linux

User input:
--------------------------------------------------------------
$molecule
0  1
O -4.4483461383 1.5292796865 1.4135711343
C -5.0168292042 1.3566506341 0.3139105646
C -5.1800702958 0.0151886549 -0.4810650452
C -3.8181722589 -0.5056788909 -1.1196345299
C -2.6102432908 0.449669299 -0.7943457761
O -1.5527721191 -0.2846719343 -0.1793514474
C -0.4061661132 0.6062167454 0.132778493
C 0.9056661375 -0.2732153726 0.0627852527
O 1.7703838175 -0.0882812933 1.250836595
C 2.5477907401 1.1226642613 1.0676938034
C 4.0814887938 0.9862547489 0.69783852
C 4.8781034857 -0.383394206 0.6215478765
C 4.1430408379 -1.7705473124 0.536525145
O 2.9791052085 -2.0801231397 0.2177766954
O -5.6536039238 2.3989143408 -0.4345976134
O 5.1402376003 -2.745376823 0.8925783475
O 2.039516492 2.2569479835 1.2148689313
C 4.5743530618 -4.1088647816 0.7837524772
C 4.3723169576 1.5971764628 -0.7542222177
C 5.8099037545 2.2449245164 -0.7195477587
C 6.709173248 0.955220933 -0.6614122477
C 5.6224778146 -0.1857562276 -0.7798770124
O 4.5567205013 0.411679057 -1.6169319092
H 4.5959504031 1.6219394878 1.442298251
H 5.6031209165 -0.4563523089 1.4512263866
H 3.5680451707 2.2497047875 -1.1465425385
H 5.9913746252 2.8225308555 -1.6404163174
H 5.9504501035 2.9080241897 0.1486914288
H 7.410359808 0.908905352 -1.5096097301
H 7.2840388429 0.8775468583 0.2752919696
H 5.9868369932 -1.1302403715 -1.2288990781
O -2.5666933263 1.6769303875 -1.037778649
C -5.4607885167 3.6979797841 0.2499207393
C -5.5413519443 -1.2028931888 0.4731401499
C -6.0968430942 -2.3798972411 -0.4217106936
C -4.7722555441 -2.8909324231 -1.1012413808
C -3.6991909605 -1.934264046 -0.4443217967
O -4.2229481246 -1.7031455957 0.9219872458
H -5.9491393617 0.1665192296 -1.2582605889
H -3.9078270015 -0.5769602738 -2.2195146804
H -4.3870711903 3.9722668533 0.2975213065
H -6.1681196916 -0.9321351046 1.3447334194
H -6.5531736426 -3.1590113691 0.2094385848
H -6.8446086871 -2.0321953918 -1.1524498511
H -4.5630607193 -3.9409537136 -0.842179852
H -4.7941817644 -2.7965760826 -2.1988318431
H -2.6667660278 -2.3297718171 -0.4018519866
H -5.8667132675 3.6809147103 1.2821090352
H -6.0079526455 4.4460911558 -0.3524893839
H 5.3833285387 -4.800038047 1.0839584191
H 4.2567811641 -4.3396072514 -0.2538936501
H 3.701752335 -4.2453208032 1.4548097147
H 0.6023532058 -1.3404901891 0.0842425335
H 1.4586430879 -0.0925856991 -0.8836538836
H -0.5227850268 1.0058100012 1.1641878692
H -0.3899924514 1.4644586214 -0.5713788715
$end

$rem
JOBTYPE                   OPT
METHOD                    B3LYP
DFT_D                     d3_op
BASIS                     STO-3G
GEOM_OPT_MAX_CYCLES       100
GEOM_OPT_TOL_GRADIENT     300
GEOM_OPT_TOL_DISPLACEMENT 1200
GEOM_OPT_TOL_ENERGY       100
SYMMETRY                  False
THRESH                    12
SCF_CONVERGENCE           8
MAX_SUB_FILE_NUM          128
MEM_STATIC                400
MEM_TOTAL                 4000
$end
--------------------------------------------------------------

   16   -1510.2476060633      6.58E-09 Convergence criterion met
 Total energy in the final basis set = -1510.24760606
   13   -1510.2499189691      8.48E-09 Convergence criterion met
 Total energy in the final basis set = -1510.24991897
   13   -1510.2530430561      5.20E-09 Convergence criterion met
 Total energy in the final basis set = -1510.25304306
   13   -1510.2512186521      8.48E-09 Convergence criterion met
 Total energy in the final basis set = -1510.25121865
   13   -1510.2571503315      6.88E-09 Convergence criterion met
 Total energy in the final basis set = -1510.25715033
   14   -1510.2633323470      6.99E-09 Convergence criterion met
 Total energy in the final basis set = -1510.26333235
   14   -1510.2667084376      2.20E-09 Convergence criterion met
 Total energy in the final basis set = -1510.26670844
   13   -1510.2697605063      5.22E-09 Convergence criterion met
   12   -1510.2937851465      3.63E-09 Convergence criterion met
 Total energy in the final basis set = -1510.29378515
   12   -1510.2937915187      2.94E-09 Convergence criterion met
 Total energy in the final basis set = -1510.29379152
   11   -1510.2937915074      7.17E-09 Convergence criterion met
 Total energy in the final basis set = -1510.29379151
   11   -1510.2938004669      6.87E-09 Convergence criterion met
 Total energy in the final basis set = -1510.29380047
   11   -1510.2937833966      2.22E-09 Convergence criterion met
 Total energy in the final basis set = -1510.29378340
    9   -1510.2937846153      9.96E-09 Convergence criterion met
 Total energy in the final basis set = -1510.29378462

             Standard Nuclear Orientation (Angstroms)
    I     Atom           X                Y                Z
 ----------------------------------------------------------------
    1      O      -3.4175533579     1.3213434373    -1.7148507578
    2      C      -3.1531363165     0.1758654641    -1.2894980622
    3      C      -4.1791253225    -0.8821091428    -0.7422670769
    4      C      -3.8359494584    -1.4236583032     0.7110299526
    5      C      -2.5188966026    -0.8164606075     1.2955705939
    6      O      -1.6182547026    -1.9033037322     1.5699031148
    7      C      -0.2910560207    -1.3750823386     1.9641627788
    8      C       0.7246534921    -1.7320868913     0.8165332380
    9      O       2.0756208941    -1.1630113468     1.0386435840
   10      C       2.0978625645     0.2399899242     0.7457429293
   11      C       3.5887572273     0.7254037912     0.8672991507
   12      C       4.4806480379     0.3907508202    -0.3959172301
   13      C       3.6579363471    -0.2620634029    -1.5558686774
   14      O       2.4176667244    -0.4330647358    -1.5990444610
   15      O      -1.8450097915    -0.3993656881    -1.2488908311
   16      O       4.5500574084    -0.6204805842    -2.6099059267
   17      O       1.0889266695     0.9582553545     0.5614365708
   18      C       3.7901687277    -1.1998649450    -3.7435418911
   19      C       3.6851504064     2.3079120414     0.8965960447
   20      C       5.1018618394     2.7056917176     1.4674756174
   21      C       6.0302537061     2.3447314096     0.2487027935
   22      C       4.9678637704     1.8482786600    -0.8097374351
   23      O       3.7758898757     2.6806586897    -0.5354009058
   24      H       4.0203595524     0.2697811240     1.7764267432
   25      H       5.3320996854    -0.2669394328    -0.1450070591
   26      H       2.8148926503     2.8045285802     1.3678671557
   27      H       5.1359781288     3.7832479083     1.6937252912
   28      H       5.3574778614     2.1443448899     2.3803077702
   29      H       6.5638068098     3.2303878808    -0.1309891098
   30      H       6.7684501968     1.5633402007     0.4904009492
   31      H       5.2765053713     1.9379248682    -1.8695677474
   32      O      -2.2630408055     0.3848592210     1.5290731531
   33      C      -0.8227803272     0.5883165015    -1.6826143597
   34      C      -5.5946103589    -0.2167598520    -0.4935002883
   35      C      -6.6677852849    -1.3619576012    -0.3270122177
   36      C      -6.3261792939    -1.8914024674     1.1158502506
   37      C      -5.1237793279    -0.9444851679     1.5112534943
   38      O      -5.4697896668     0.3441475595     0.8727346088
   39      H      -4.2378352578    -1.7187914731    -1.4627219112
   40      H      -3.7350698291    -2.5228926744     0.7170931606
   41      H      -0.1466236071     0.8038175845    -0.8220862535
   42      H      -5.8451008481     0.5831930428    -1.2171048035
   43      H      -7.6867529088    -0.9459046653    -0.3734937767
   44      H      -6.5679733785    -2.1404687708    -1.1001674512
   45      H      -7.1712690072    -1.7512351945     1.8084409308
   46      H      -6.0360010808    -2.9542137547     1.1214312409
   47      H      -4.9664217479    -0.8084750052     2.5988355203
   48      H      -1.3273161102     1.5125230507    -2.0258060194
   49      H      -0.2378791076     0.1402865433    -2.5089487027
   50      H       4.5409376148    -1.4577602392    -4.5128424505
   51      H       3.0645743594    -0.4717224064    -4.1600736854
   52      H       3.2391782700    -2.1132432534    -3.4398450721
   53      H       0.8728385677    -2.8297716052     0.7716658915
   54      H       0.3037762649    -1.3879180257    -0.1515004406
   55      H       0.0103673864    -1.8465731005     2.9217109579
   56      H      -0.3699956191    -0.2721415375     2.0811227729
 ----------------------------------------------------------------

    9   -1510.2937844552      6.02E-09 Convergence criterion met
 Total energy in the final basis set = -1510.29378446
 Final energy is   -1510.29378445518
 **  OPTIMIZATION CONVERGED  **

                    Orbital Energies (a.u.)
 --------------------------------------------------------------

 Alpha MOs
 -- Occupied --
-18.949 -18.929 -18.923 -18.918 -18.891 -18.890 -18.881 -18.874
-18.868 -18.865 -10.111 -10.102 -10.092 -10.089 -10.074 -10.065
-10.064 -10.060 -10.057 -10.055 -10.051 -10.045 -10.038 -10.032
-10.031 -10.026 -10.023 -10.022 -10.016 -10.015  -1.025  -1.008
 -1.003  -0.995  -0.973  -0.964  -0.948  -0.935  -0.928  -0.923
 -0.767  -0.757  -0.727  -0.719  -0.712  -0.702  -0.690  -0.671
 -0.641  -0.614  -0.595  -0.578  -0.548  -0.540  -0.538  -0.531
 -0.515  -0.502  -0.483  -0.470  -0.462  -0.458  -0.451  -0.444
 -0.436  -0.432  -0.424  -0.420  -0.415  -0.403  -0.398  -0.392
 -0.386  -0.382  -0.371  -0.369  -0.356  -0.352  -0.351  -0.348
 -0.343  -0.340  -0.330  -0.330  -0.325  -0.321  -0.319  -0.315
 -0.309  -0.305  -0.303  -0.298  -0.293  -0.280  -0.278  -0.277
 -0.265  -0.262  -0.252  -0.238  -0.237  -0.234  -0.228  -0.191
 -0.181  -0.166  -0.163  -0.156  -0.152  -0.149  -0.147  -0.144
 -0.138

          Ground-State Mulliken Net Atomic Charges

     Atom                 Charge (a.u.)
  ----------------------------------------
      1 O                    -0.211363
      2 C                     0.213456
      3 C                    -0.077961
      4 C                    -0.078979
      5 C                     0.213307
      6 O                    -0.175286
      7 C                    -0.060651
      8 C                    -0.051097
      9 O                    -0.175952
     10 C                     0.223599
     11 C                    -0.081288
     12 C                    -0.077873
     13 C                     0.216018
     14 O                    -0.208388
     15 O                    -0.179585
     16 O                    -0.167370
     17 O                    -0.215483
     18 C                    -0.128103
     19 C                     0.024996
     20 C                    -0.143769
     21 C                    -0.143819
     22 C                     0.025155
     23 O                    -0.188540
     24 H                     0.085267
     25 H                     0.088160
     26 H                     0.091259
     27 H                     0.079296
     28 H                     0.073737
     29 H                     0.079142
     30 H                     0.073938
     31 H                     0.085596
     32 O                    -0.209694
     33 C                    -0.152637
     34 C                     0.024394
     35 C                    -0.144288
     36 C                    -0.143817
     37 C                     0.025674
     38 O                    -0.186210
     39 H                     0.083050
     40 H                     0.085205
     41 H                     0.112015
     42 H                     0.090832
     43 H                     0.077517
     44 H                     0.072203
     45 H                     0.077208
     46 H                     0.072600
     47 H                     0.082729
     48 H                     0.095628
     49 H                     0.078191
     50 H                     0.093349
     51 H                     0.092030
     52 H                     0.091363
     53 H                     0.086208
     54 H                     0.100755
     55 H                     0.080760
     56 H                     0.107517
  ----------------------------------------
  Sum of atomic charges =     0.000000

                    Cartesian Multipole Moments
 -----------------------------------------------------------------
    Charge (ESU x 10^10)
                 0.0000
    Dipole Moment (Debye)
         X       3.4671      Y      -3.6821      Z      -0.3905
       Tot       5.0726
    Quadrupole Moments (Debye-Ang)
        XX    -140.9650     XY      13.3212     YY    -162.5619
        XZ       0.5550     YZ       3.5560     ZZ    -150.1788

 Total job time:  243.41s(wall), 11596.23s(cpu)
        *  Thank you very much for using Q-Chem.  Have a nice day.  *
