 Q-Chem 5.0, Q-Chem, Inc., Pleasanton, CA (2017)
 Q-Chem 5.0.1 for Intel X86 EM64T Linux

User input:
--------------------------------------------------------------
$molecule
0  1
O -3.94934 -3.66094 2.70899
C -3.26408 -4.56952 2.26188
C -3.36658 -6.02376 2.66595
C -2.86131 -6.40065 4.06827
C -2.4745 -5.25444 4.97638
O -3.16326 -5.34154 6.15258
C -2.84967 -4.28677 7.06822
C -3.01628 -4.77099 8.50485
O -3.79831 -3.82612 9.25219
C -3.12078 -2.74791 9.71862
C -2.85208 -2.81886 11.20301
C -3.49321 -4.01575 11.92042
C -3.9908 -5.13325 11.02582
O -3.65241 -5.31619 9.86539
O -2.40938 -4.2956 1.24093
O -4.76268 -6.07265 11.63246
O -2.62066 -1.90881 8.9843
C -5.26309 -7.19118 10.9995
C -1.3692 -3.04401 11.55511
C -1.10053 -2.53882 12.97167
C -1.84037 -3.57997 13.78952
C -2.26816 -4.54839 12.6803
O -1.24866 -4.43686 11.71539
H -3.1932 -1.84981 11.63217
H -4.34554 -3.69831 12.56098
H -0.66742 -2.57068 10.83427
H -0.00783 -2.65619 13.15275
H -1.39158 -1.48505 13.17085
H -1.1151 -4.0621 14.48187
H -2.71913 -3.20283 14.35639
H -2.43859 -5.56726 13.09348
O -1.58195 -4.45419 4.72264
C -2.2113 -3.03888 0.70838
C -4.81649 -6.53645 2.71997
C -4.83908 -8.044 2.48651
C -4.22317 -8.53617 3.77864
C -4.09247 -7.21486 4.54968
O -5.16886 -6.43986 4.0797
H -2.7987 -6.59961 1.89859
H -1.95296 -7.04019 4.00549
H -1.83008 -2.34805 1.49062
H -5.4913 -6.02375 1.99978
H -5.90952 -8.35087 2.4628
H -4.33811 -8.39405 1.5584
H -4.95162 -9.21543 4.27498
H -3.24063 -9.04507 3.67326
H -4.08249 -7.44066 5.63767
H -3.16263 -2.64552 0.29049
H -1.4625 -3.10334 -0.10748
H -5.859 -7.78336 11.7238
H -4.43038 -7.82151 10.62043
H -5.92019 -6.89053 10.15544
H -3.40643 -5.8509 8.06614
H -1.90452 -4.83933 8.80586
H -3.64268 -3.52749 6.88671
H -1.88894 -3.74011 6.91891
$end

$opt
CONSTRAINT
tors           1           2           3           4     -71.378
tors           3           4           5           6    +125.086
tors           4           5           6           7    -180.000
tors           5           6           7           8    -150.471
tors           6           7           8           9    -131.157
tors           7           8           9          10     -81.222
tors           8           9          10          11    -105.067
tors           9          10          11          12      -5.153
tors          11          12          13          14     +18.547
ENDCONSTRAINT
$end

$rem
JOBTYPE                   OPT
METHOD                    B3LYP
DFT_D                     d3_op
BASIS                     STO-3G
GEOM_OPT_MAX_CYCLES       100
GEOM_OPT_TOL_GRADIENT     300
GEOM_OPT_TOL_DISPLACEMENT 1200
GEOM_OPT_TOL_ENERGY       100
SYMMETRY                  False
THRESH                    12
SCF_CONVERGENCE           8
MAX_SUB_FILE_NUM          128
MEM_STATIC                400
MEM_TOTAL                 4000
$end
--------------------------------------------------------------

   16   -1509.8581037323      9.77E-09 Convergence criterion met
 Total energy in the final basis set = -1509.85810373
   14   -1509.9673477630      5.35E-09 Convergence criterion met
 Total energy in the final basis set = -1509.96734776
   14   -1510.0473579632      8.10E-09 Convergence criterion met
 Total energy in the final basis set = -1510.04735796
   14   -1510.1066938223      7.04E-09 Convergence criterion met
 Total energy in the final basis set = -1510.10669382
   14   -1510.1498436643      6.22E-09 Convergence criterion met
 Total energy in the final basis set = -1510.14984366
   14   -1510.1808647839      4.99E-09 Convergence criterion met
 Total energy in the final basis set = -1510.18086478
   14   -1510.2031352255      4.15E-09 Convergence criterion met
 Total energy in the final basis set = -1510.20313523
   14   -1510.2191001069      2.78E-09 Convergence criterion met
   11   -1510.2476712367      1.32E-09 Convergence criterion met
 Total energy in the final basis set = -1510.24767124
   11   -1510.2476743437      1.63E-09 Convergence criterion met
 Total energy in the final basis set = -1510.24767434
   10   -1510.2476785092      9.63E-09 Convergence criterion met
 Total energy in the final basis set = -1510.24767851
    9   -1510.2476831311      5.74E-09 Convergence criterion met
 Total energy in the final basis set = -1510.24768313
    9   -1510.2476869732      5.17E-09 Convergence criterion met
 Total energy in the final basis set = -1510.24768697
    9   -1510.2476887909      8.35E-09 Convergence criterion met
 Total energy in the final basis set = -1510.24768879

             Standard Nuclear Orientation (Angstroms)
    I     Atom           X                Y                Z
 ----------------------------------------------------------------
    1      O      -4.4483461383     1.5292796865     1.4135711343
    2      C      -5.0168292042     1.3566506341     0.3139105646
    3      C      -5.1800702958     0.0151886549    -0.4810650452
    4      C      -3.8181722589    -0.5056788909    -1.1196345299
    5      C      -2.6102432908     0.4496692990    -0.7943457761
    6      O      -1.5527721191    -0.2846719343    -0.1793514474
    7      C      -0.4061661132     0.6062167454     0.1327784930
    8      C       0.9056661375    -0.2732153726     0.0627852527
    9      O       1.7703838175    -0.0882812933     1.2508365950
   10      C       2.5477907401     1.1226642613     1.0676938034
   11      C       4.0814887938     0.9862547489     0.6978385200
   12      C       4.8781034857    -0.3833942060     0.6215478765
   13      C       4.1430408379    -1.7705473124     0.5365251450
   14      O       2.9791052085    -2.0801231397     0.2177766954
   15      O      -5.6536039238     2.3989143408    -0.4345976134
   16      O       5.1402376003    -2.7453768230     0.8925783475
   17      O       2.0395164920     2.2569479835     1.2148689313
   18      C       4.5743530618    -4.1088647816     0.7837524772
   19      C       4.3723169576     1.5971764628    -0.7542222177
   20      C       5.8099037545     2.2449245164    -0.7195477587
   21      C       6.7091732480     0.9552209330    -0.6614122477
   22      C       5.6224778146    -0.1857562276    -0.7798770124
   23      O       4.5567205013     0.4116790570    -1.6169319092
   24      H       4.5959504031     1.6219394878     1.4422982510
   25      H       5.6031209165    -0.4563523089     1.4512263866
   26      H       3.5680451707     2.2497047875    -1.1465425385
   27      H       5.9913746252     2.8225308555    -1.6404163174
   28      H       5.9504501035     2.9080241897     0.1486914288
   29      H       7.4103598080     0.9089053520    -1.5096097301
   30      H       7.2840388429     0.8775468583     0.2752919696
   31      H       5.9868369932    -1.1302403715    -1.2288990781
   32      O      -2.5666933263     1.6769303875    -1.0377786490
   33      C      -5.4607885167     3.6979797841     0.2499207393
   34      C      -5.5413519443    -1.2028931888     0.4731401499
   35      C      -6.0968430942    -2.3798972411    -0.4217106936
   36      C      -4.7722555441    -2.8909324231    -1.1012413808
   37      C      -3.6991909605    -1.9342640460    -0.4443217967
   38      O      -4.2229481246    -1.7031455957     0.9219872458
   39      H      -5.9491393617     0.1665192296    -1.2582605889
   40      H      -3.9078270015    -0.5769602738    -2.2195146804
   41      H      -4.3870711903     3.9722668533     0.2975213065
   42      H      -6.1681196916    -0.9321351046     1.3447334194
   43      H      -6.5531736426    -3.1590113691     0.2094385848
   44      H      -6.8446086871    -2.0321953918    -1.1524498511
   45      H      -4.5630607193    -3.9409537136    -0.8421798520
   46      H      -4.7941817644    -2.7965760826    -2.1988318431
   47      H      -2.6667660278    -2.3297718171    -0.4018519866
   48      H      -5.8667132675     3.6809147103     1.2821090352
   49      H      -6.0079526455     4.4460911558    -0.3524893839
   50      H       5.3833285387    -4.8000380470     1.0839584191
   51      H       4.2567811641    -4.3396072514    -0.2538936501
   52      H       3.7017523350    -4.2453208032     1.4548097147
   53      H       0.6023532058    -1.3404901891     0.0842425335
   54      H       1.4586430879    -0.0925856991    -0.8836538836
   55      H      -0.5227850268     1.0058100012     1.1641878692
   56      H      -0.3899924514     1.4644586214    -0.5713788715
 ----------------------------------------------------------------

    9   -1510.2476892681      4.83E-09 Convergence criterion met
 Total energy in the final basis set = -1510.24768927
 Final energy is   -1510.24768926814
 **  OPTIMIZATION CONVERGED  **

                    Orbital Energies (a.u.)
 --------------------------------------------------------------

 Alpha MOs
 -- Occupied --
-18.931 -18.930 -18.925 -18.903 -18.895 -18.895 -18.882 -18.879
-18.868 -18.863 -10.107 -10.100 -10.096 -10.089 -10.066 -10.065
-10.065 -10.063 -10.058 -10.055 -10.055 -10.053 -10.042 -10.039
-10.034 -10.030 -10.025 -10.024 -10.016 -10.015  -1.012  -1.009
 -1.005  -1.000  -0.978  -0.964  -0.939  -0.933  -0.928  -0.926
 -0.765  -0.758  -0.726  -0.719  -0.711  -0.705  -0.688  -0.663
 -0.655  -0.606  -0.598  -0.577  -0.546  -0.543  -0.541  -0.533
 -0.519  -0.507  -0.478  -0.474  -0.462  -0.454  -0.447  -0.445
 -0.435  -0.428  -0.416  -0.413  -0.410  -0.404  -0.402  -0.399
 -0.389  -0.374  -0.373  -0.370  -0.359  -0.358  -0.353  -0.347
 -0.346  -0.338  -0.336  -0.331  -0.326  -0.322  -0.319  -0.315
 -0.310  -0.305  -0.302  -0.300  -0.292  -0.286  -0.280  -0.273
 -0.269  -0.255  -0.249  -0.244  -0.243  -0.235  -0.228  -0.179
 -0.174  -0.167  -0.165  -0.155  -0.152  -0.151  -0.142  -0.140
 -0.138

          Ground-State Mulliken Net Atomic Charges

     Atom                 Charge (a.u.)
  ----------------------------------------
      1 O                    -0.213898
      2 C                     0.208489
      3 C                    -0.080015
      4 C                    -0.077446
      5 C                     0.210391
      6 O                    -0.169463
      7 C                    -0.055980
      8 C                    -0.042316
      9 O                    -0.186154
     10 C                     0.216885
     11 C                    -0.084136
     12 C                    -0.078924
     13 C                     0.212375
     14 O                    -0.205742
     15 O                    -0.168844
     16 O                    -0.175319
     17 O                    -0.189041
     18 C                    -0.129365
     19 C                     0.024838
     20 C                    -0.142191
     21 C                    -0.144834
     22 C                     0.025539
     23 O                    -0.191645
     24 H                     0.085661
     25 H                     0.088485
     26 H                     0.084876
     27 H                     0.079130
     28 H                     0.076202
     29 H                     0.079187
     30 H                     0.075550
     31 H                     0.084176
     32 O                    -0.218211
     33 C                    -0.128434
     34 C                     0.025536
     35 C                    -0.143796
     36 C                    -0.144621
     37 C                     0.023713
     38 O                    -0.186742
     39 H                     0.084838
     40 H                     0.083887
     41 H                     0.092679
     42 H                     0.083605
     43 H                     0.077279
     44 H                     0.072888
     45 H                     0.077114
     46 H                     0.072013
     47 H                     0.091690
     48 H                     0.087571
     49 H                     0.088355
     50 H                     0.089387
     51 H                     0.086817
     52 H                     0.090132
     53 H                     0.103311
     54 H                     0.084680
     55 H                     0.096028
     56 H                     0.093809
  ----------------------------------------
  Sum of atomic charges =    -0.000000

                    Cartesian Multipole Moments
 -----------------------------------------------------------------
    Charge (ESU x 10^10)
                -0.0000
    Dipole Moment (Debye)
         X       2.0149      Y      -1.1812      Z      -1.7255
       Tot       2.9038
    Quadrupole Moments (Debye-Ang)
        XX    -130.4674     XY       1.4728     YY    -152.2779
        XZ       7.1824     YZ       2.1420     ZZ    -164.0484

 Total job time:  86.17s(wall), 4094.20s(cpu)
        *  Thank you very much for using Q-Chem.  Have a nice day.  *
