 Q-Chem 5.0, Q-Chem, Inc., Pleasanton, CA (2017)
 Q-Chem 5.0.1 for Intel X86 EM64T Linux

User input:
--------------------------------------------------------------
$molecule
0  1
O 5.4729637324 -2.6333423806 0.6713327551
C 4.6491166627 -1.7726845353 0.2902980171
C 5.0015219228 -0.4435977046 -0.4685984727
C 3.8643435868 0.6268938207 -0.6878579336
C 2.7504705804 0.6327563496 0.4199222731
O 1.631836271 1.3588441169 -0.1118156859
C 0.5070778441 1.3721200765 0.8556450638
C -0.8096010281 1.0397478217 0.0623872226
O -1.9828120051 1.6488271492 0.7280733128
C -2.9797818911 0.6427698934 1.0613898587
C -4.3511768078 1.0282587109 0.3915542415
C -4.8051917457 0.1986620837 -0.8882067383
C -3.9191894642 -0.9611634287 -1.471825512
O -4.2479295254 -1.6688651507 -2.4499415325
O 3.2366093805 -2.0033281305 0.2397980476
O -2.6931942392 -1.1392536283 -0.7623332254
O -2.7628725988 -0.3135574836 1.8327979136
C -1.9416010458 -2.2833897867 -1.3303501632
C -5.5726919665 0.7386292016 1.3721463325
C -6.8166994139 1.5826414482 0.8896771607
C -7.2664030387 0.7624186257 -0.3748029633
C -6.195352582 -0.3985322374 -0.3798042461
O -5.9505230547 -0.6569787852 1.0548792778
H -4.2878556113 2.0998655768 0.1321176159
H -4.9846287646 0.8943984395 -1.7289637596
H -5.3229999655 0.8335266479 2.4466230957
H -7.5997643409 1.5928306655 1.664730769
H -6.5443143337 2.6227617862 0.6497028063
H -8.2797352691 0.3485483739 -0.2504765014
H -7.2377917216 1.355380642 -1.3026900123
H -6.5012677325 -1.3249285239 -0.9038342072
O 2.8130670403 0.2023826926 1.5907693109
C 2.9086671094 -3.3032126549 0.8666014658
C 6.1648767379 0.4413707139 0.1629837738
C 6.9277193338 1.1131779322 -1.0431916366
C 5.8249792697 2.1124417954 -1.5592530208
C 4.7131113839 1.9549352512 -0.44574621
O 5.4675437031 1.5940365259 0.7790832155
H 5.3364201575 -0.7902263951 -1.4659092547
H 3.4029085181 0.5754352542 -1.6890278211
H 3.1534184552 -3.3053048913 1.9482119916
H 6.7964988653 -0.084329807 0.9051815929
H 7.817638828 1.6519632687 -0.6799052679
H 7.2402929009 0.383158545 -1.8069617635
H 6.1959948557 3.1489103424 -1.5932263055
H 5.4438326129 1.8418058841 -2.557233782
H 4.0950858935 2.8570851603 -0.2696556382
H 3.4492440958 -4.1408801318 0.3800192988
H 1.8188857902 -3.4369724744 0.7365554828
H -1.0721193683 -2.4370535407 -0.6649183685
H -1.5886535525 -2.0657021502 -2.3593354965
H -2.5608402348 -3.2022705422 -1.3552393991
H -0.7259417684 1.4949145378 -0.9505410817
H -0.9345569794 -0.0539250359 -0.058504961
H 0.4184648372 2.3897959081 1.2953681361
H 0.707743767 0.6486551646 1.6738103062
$end

$rem
JOBTYPE                   OPT
METHOD                    B3LYP
DFT_D                     d3_op
BASIS                     STO-3G
GEOM_OPT_MAX_CYCLES       100
GEOM_OPT_TOL_GRADIENT     300
GEOM_OPT_TOL_DISPLACEMENT 1200
GEOM_OPT_TOL_ENERGY       100
SYMMETRY                  False
THRESH                    12
SCF_CONVERGENCE           8
MAX_SUB_FILE_NUM          128
MEM_STATIC                400
MEM_TOTAL                 4000
$end
--------------------------------------------------------------

   16   -1510.2536289984      4.98E-09 Convergence criterion met
 Total energy in the final basis set = -1510.25362900
   14   -1510.2585614015      2.67E-09 Convergence criterion met
 Total energy in the final basis set = -1510.25856140
   14   -1510.2637765637      2.34E-09 Convergence criterion met
 Total energy in the final basis set = -1510.26377656
   14   -1510.2689561958      2.55E-09 Convergence criterion met
 Total energy in the final basis set = -1510.26895620
   14   -1510.2733931080      2.48E-09 Convergence criterion met
 Total energy in the final basis set = -1510.27339311
   13   -1510.2765619212      5.67E-09 Convergence criterion met
 Total energy in the final basis set = -1510.27656192
   13   -1510.2783564105      4.66E-09 Convergence criterion met
 Total energy in the final basis set = -1510.27835641
   13   -1510.2802918416      3.65E-09 Convergence criterion met
   12   -1510.2914965647      3.59E-09 Convergence criterion met
 Total energy in the final basis set = -1510.29149656
   12   -1510.2915384608      3.00E-09 Convergence criterion met
 Total energy in the final basis set = -1510.29153846
   10   -1510.2915428735      5.10E-09 Convergence criterion met
 Total energy in the final basis set = -1510.29154287
   10   -1510.2915505764      6.99E-09 Convergence criterion met
 Total energy in the final basis set = -1510.29155058
   11   -1510.2915555338      8.52E-09 Convergence criterion met
 Total energy in the final basis set = -1510.29155553
    9   -1510.2915565892      4.65E-09 Convergence criterion met
 Total energy in the final basis set = -1510.29155659

             Standard Nuclear Orientation (Angstroms)
    I     Atom           X                Y                Z
 ----------------------------------------------------------------
    1      O       3.2875583997    -0.9989471554     2.4245020835
    2      C       3.1933339604    -0.8034951798     1.1944333009
    3      C       4.3549848725    -0.4319490780     0.2033185218
    4      C       4.0634966190     0.8581855169    -0.6750204567
    5      C       2.6635668749     1.4914997766    -0.3831717436
    6      O       1.9100398851     1.4833462601    -1.6075040689
    7      C       0.5300751983     1.9661147061    -1.3603547371
    8      C      -0.4713234298     0.8672120947    -1.8594830818
    9      O      -1.8342980034     1.1785130771    -1.3603828191
   10      C      -2.3208441926     0.1242878812    -0.5252608488
   11      C      -3.7611196952     0.5021288089    -0.0429113877
   12      C      -4.8733267384    -0.5087490566    -0.5547107416
   13      C      -4.3109099118    -1.6585553858    -1.4625601079
   14      O      -4.5247179714    -2.8840951804    -1.3603207657
   15      O       1.9746598731    -0.8945398429     0.4498023916
   16      O      -3.4867612803    -1.0632812260    -2.4743671235
   17      O      -1.6705444480    -0.9048376072    -0.2252047104
   18      C      -2.8385913392    -2.1141109872    -3.2914742792
   19      C      -3.9073720723     0.3174950057     1.5298477824
   20      C      -5.2364786375     1.0340492082     1.9944531076
   21      C      -6.3255349270     0.0127293693     1.4963040892
   22      C      -5.4210345848    -1.0863704765     0.8151997708
   23      O      -4.2134944097    -1.1230920618     1.6741473414
   24      H      -3.9734259032     1.5361324165    -0.3657525056
   25      H      -5.6590044792     0.0289143352    -1.1173765302
   26      H      -3.0006838156     0.5804053314     2.1085433384
   27      H      -5.2518560408     1.1391081236     3.0908695095
   28      H      -5.3504106513     2.0324982037     1.5425546973
   29      H      -6.8876379865    -0.4208157392     2.3386786943
   30      H      -7.0398705630     0.4616998165     0.7878313180
   31      H      -5.8643629789    -2.0974841334     0.7270907532
   32      O       2.2397815463     1.9582714557     0.6969821549
   33      C       0.8339240431    -1.1459490368     1.3641795618
   34      C       5.6437499285     0.0256096359     1.0000211978
   35      C       6.8781791028     0.0053023074     0.0179651964
   36      C       6.5910770249     1.2839856964    -0.8557322917
   37      C       5.2502662564     1.8056103083    -0.2021897359
   38      O       5.4051629907     1.4704263051     1.2301015783
   39      H       4.5569464814    -1.3048158837    -0.4445287370
   40      H       4.1190972013     0.6336004009    -1.7542747741
   41      H       0.7860512662    -0.3719425824     2.1562974557
   42      H       5.7802839678    -0.5002613268     1.9651592722
   43      H       7.8205865327     0.1044710767     0.5797656905
   44      H       6.9185942689    -0.9190171409    -0.5801890117
   45      H       7.3889919879     2.0355019555    -0.7466445638
   46      H       6.4686933838     1.0507498352    -1.9256534076
   47      H       5.0524575091     2.8878045827    -0.3282137541
   48      H       0.9204350507    -2.1392305037     1.8485715450
   49      H      -0.0856787187    -1.1078063229     0.7383164550
   50      H      -2.2278654997    -1.5817555548    -4.0435594819
   51      H      -3.5859810473    -2.7537497077    -3.8035268607
   52      H      -2.1842409572    -2.7596332354    -2.6703791473
   53      H      -0.5088105598     0.8457715261    -2.9683905893
   54      H      -0.1640943270    -0.1309302049    -1.4790035611
   55      H       0.3739518174     2.9184966657    -1.9092257567
   56      H       0.4114135214     2.1481277393    -0.2690027386
 ----------------------------------------------------------------

    9   -1510.2915556163      7.43E-09 Convergence criterion met
 Total energy in the final basis set = -1510.29155562
 Final energy is   -1510.29155561628
 **  OPTIMIZATION CONVERGED  **

                    Orbital Energies (a.u.)
 --------------------------------------------------------------

 Alpha MOs
 -- Occupied --
-18.942 -18.941 -18.930 -18.924 -18.891 -18.885 -18.885 -18.882
-18.872 -18.869 -10.110 -10.105 -10.098 -10.092 -10.070 -10.069
-10.066 -10.064 -10.061 -10.059 -10.054 -10.044 -10.043 -10.039
-10.036 -10.034 -10.023 -10.022 -10.019 -10.017  -1.022  -1.014
 -1.010  -1.000  -0.973  -0.967  -0.945  -0.942  -0.934  -0.928
 -0.768  -0.761  -0.729  -0.723  -0.714  -0.705  -0.696  -0.667
 -0.648  -0.619  -0.598  -0.579  -0.550  -0.542  -0.541  -0.535
 -0.515  -0.507  -0.484  -0.473  -0.467  -0.459  -0.456  -0.448
 -0.439  -0.432  -0.428  -0.418  -0.417  -0.407  -0.401  -0.400
 -0.396  -0.382  -0.380  -0.364  -0.363  -0.359  -0.354  -0.353
 -0.348  -0.337  -0.335  -0.332  -0.329  -0.326  -0.323  -0.314
 -0.308  -0.308  -0.303  -0.299  -0.290  -0.290  -0.281  -0.277
 -0.269  -0.259  -0.255  -0.247  -0.243  -0.237  -0.231  -0.188
 -0.183  -0.170  -0.168  -0.166  -0.158  -0.156  -0.147  -0.146
 -0.141

          Ground-State Mulliken Net Atomic Charges

     Atom                 Charge (a.u.)
  ----------------------------------------
      1 O                    -0.209178
      2 C                     0.211807
      3 C                    -0.078668
      4 C                    -0.078852
      5 C                     0.214480
      6 O                    -0.173925
      7 C                    -0.056035
      8 C                    -0.055349
      9 O                    -0.168282
     10 C                     0.221332
     11 C                    -0.078262
     12 C                    -0.078255
     13 C                     0.213770
     14 O                    -0.205182
     15 O                    -0.177556
     16 O                    -0.172215
     17 O                    -0.221096
     18 C                    -0.128691
     19 C                     0.025818
     20 C                    -0.143846
     21 C                    -0.143844
     22 C                     0.024257
     23 O                    -0.185977
     24 H                     0.088186
     25 H                     0.086205
     26 H                     0.084531
     27 H                     0.079566
     28 H                     0.074162
     29 H                     0.079414
     30 H                     0.073498
     31 H                     0.091691
     32 O                    -0.215685
     33 C                    -0.144754
     34 C                     0.024253
     35 C                    -0.144150
     36 C                    -0.143815
     37 C                     0.025668
     38 O                    -0.186602
     39 H                     0.083986
     40 H                     0.085891
     41 H                     0.085033
     42 H                     0.091276
     43 H                     0.078078
     44 H                     0.072840
     45 H                     0.077783
     46 H                     0.072980
     47 H                     0.082688
     48 H                     0.082954
     49 H                     0.109231
     50 H                     0.090320
     51 H                     0.090794
     52 H                     0.094110
     53 H                     0.085296
     54 H                     0.104021
     55 H                     0.083091
     56 H                     0.101210
  ----------------------------------------
  Sum of atomic charges =     0.000000

                    Cartesian Multipole Moments
 -----------------------------------------------------------------
    Charge (ESU x 10^10)
                -0.0000
    Dipole Moment (Debye)
         X      -1.3582      Y       1.2408      Z      -3.7430
       Tot       4.1707
    Quadrupole Moments (Debye-Ang)
        XX    -141.8323     XY     -11.5265     YY    -164.7232
        XZ     -10.3901     YZ       1.0859     ZZ    -161.1170

 Total job time:  109.42s(wall), 5215.02s(cpu)
        *  Thank you very much for using Q-Chem.  Have a nice day.  *
