 Q-Chem 5.0, Q-Chem, Inc., Pleasanton, CA (2017)
 Q-Chem 5.0.1 for Intel X86 EM64T Linux

User input:
--------------------------------------------------------------
$molecule
0  1
O -3.94934 -3.66094 2.70899
C -3.26408 -4.56952 2.26188
C -3.36658 -6.02376 2.66595
C -2.27896 -6.97655 2.14334
C -1.11258 -6.33794 1.42236
O -0.43031 -7.28528 0.71351
C 0.66428 -6.74777 -0.03631
C 0.66334 -7.31882 -1.45054
O 2.00045 -7.3297 -1.97483
C 2.17555 -6.65757 -3.13962
C 2.74611 -7.52271 -4.2381
C 1.73933 -7.94574 -5.31778
C 0.43583 -7.17317 -5.34486
O -0.46872 -7.3372 -6.15073
O -2.62049 -4.27506 1.09905
O 0.19921 -6.1406 -4.49423
O 2.31852 -5.442 -3.12552
C -0.93605 -5.35261 -4.4664
C 3.79906 -6.81509 -5.12323
C 4.70264 -7.8571 -5.78195
C 3.74068 -8.47996 -6.77364
C 2.52306 -7.56798 -6.58356
O 3.07458 -6.32394 -6.22478
H 3.24452 -8.39727 -3.75923
H 1.47449 -9.0228 -5.23941
H 4.41595 -6.0732 -4.5707
H 5.47964 -7.29402 -6.34765
H 5.20246 -8.57171 -5.09328
H 4.1694 -8.3705 -7.79443
H 3.47985 -9.54295 -6.57901
H 1.88451 -7.5735 -7.49458
O -0.52786 -5.36572 1.89398
C -2.53966 -3.02202 0.52477
C -3.14369 -6.18391 4.18636
C -3.77019 -7.49078 4.67211
C -2.80066 -8.49893 4.0938
C -1.76395 -7.55825 3.47213
O -1.76807 -6.43834 4.32109
H -4.40121 -6.35402 2.42318
H -2.7048 -7.76126 1.47767
H -2.0343 -2.31662 1.2184
H -3.54105 -5.33212 4.78114
H -3.67787 -7.50927 5.78184
H -4.83504 -7.63751 4.39034
H -2.34716 -9.07224 4.93286
H -3.23107 -9.19807 3.34449
H -0.78786 -8.0799 3.35724
H -3.55538 -2.64598 0.2777
H -1.94721 -3.08959 -0.41077
H -0.83309 -4.59707 -3.66062
H -1.83026 -5.9776 -4.25701
H -1.06098 -4.82586 -5.43641
H 0.35857 -8.38583 -1.39036
H -0.08874 -6.79215 -2.07597
H 1.57641 -7.14021 0.46371
H 0.75678 -5.63763 -0.07422
$end

$opt
CONSTRAINT
tors           1           2           3           4    -171.165
tors           3           4           5           6    -163.731
tors           4           5           6           7    +177.936
tors           5           6           7           8    -134.514
tors           6           7           8           9    -152.490
tors           7           8           9          10    -123.158
tors           8           9          10          11    -123.099
tors           9          10          11          12    +105.164
tors          11          12          13          14    +177.804
ENDCONSTRAINT
$end

$rem
JOBTYPE                   OPT
METHOD                    B3LYP
DFT_D                     d3_op
BASIS                     STO-3G
GEOM_OPT_MAX_CYCLES       100
GEOM_OPT_TOL_GRADIENT     300
GEOM_OPT_TOL_DISPLACEMENT 1200
GEOM_OPT_TOL_ENERGY       100
SYMMETRY                  False
THRESH                    12
SCF_CONVERGENCE           8
MAX_SUB_FILE_NUM          128
MEM_STATIC                400
MEM_TOTAL                 4000
$end
--------------------------------------------------------------

   15   -1510.0939390392      6.08E-09 Convergence criterion met
 Total energy in the final basis set = -1510.09393904
   13   -1510.1700213144      6.26E-09 Convergence criterion met
 Total energy in the final basis set = -1510.17002131
   14   -1510.2125795616      3.58E-09 Convergence criterion met
 Total energy in the final basis set = -1510.21257956
   13   -1510.2337798641      9.85E-09 Convergence criterion met
 Total energy in the final basis set = -1510.23377986
   13   -1510.2430537611      7.65E-09 Convergence criterion met
 Total energy in the final basis set = -1510.24305376
   13   -1510.2470932733      5.52E-09 Convergence criterion met
 Total energy in the final basis set = -1510.24709327
   13   -1510.2499526647      4.30E-09 Convergence criterion met
 Total energy in the final basis set = -1510.24995266
   13   -1510.2514906138      2.70E-09 Convergence criterion met
   11   -1510.2536845297      3.69E-09 Convergence criterion met
 Total energy in the final basis set = -1510.25368453
   10   -1510.2536978114      8.14E-09 Convergence criterion met
 Total energy in the final basis set = -1510.25369781
   10   -1510.2537035832      7.07E-09 Convergence criterion met
 Total energy in the final basis set = -1510.25370358
    9   -1510.2537066634      7.07E-09 Convergence criterion met
 Total energy in the final basis set = -1510.25370666
    9   -1510.2537085433      9.12E-09 Convergence criterion met
 Total energy in the final basis set = -1510.25370854
    9   -1510.2537097740      5.44E-09 Convergence criterion met
 Total energy in the final basis set = -1510.25370977

             Standard Nuclear Orientation (Angstroms)
    I     Atom           X                Y                Z
 ----------------------------------------------------------------
    1      O       5.4729637324    -2.6333423806     0.6713327551
    2      C       4.6491166627    -1.7726845353     0.2902980171
    3      C       5.0015219228    -0.4435977046    -0.4685984727
    4      C       3.8643435868     0.6268938207    -0.6878579336
    5      C       2.7504705804     0.6327563496     0.4199222731
    6      O       1.6318362710     1.3588441169    -0.1118156859
    7      C       0.5070778441     1.3721200765     0.8556450638
    8      C      -0.8096010281     1.0397478217     0.0623872226
    9      O      -1.9828120051     1.6488271492     0.7280733128
   10      C      -2.9797818911     0.6427698934     1.0613898587
   11      C      -4.3511768078     1.0282587109     0.3915542415
   12      C      -4.8051917457     0.1986620837    -0.8882067383
   13      C      -3.9191894642    -0.9611634287    -1.4718255120
   14      O      -4.2479295254    -1.6688651507    -2.4499415325
   15      O       3.2366093805    -2.0033281305     0.2397980476
   16      O      -2.6931942392    -1.1392536283    -0.7623332254
   17      O      -2.7628725988    -0.3135574836     1.8327979136
   18      C      -1.9416010458    -2.2833897867    -1.3303501632
   19      C      -5.5726919665     0.7386292016     1.3721463325
   20      C      -6.8166994139     1.5826414482     0.8896771607
   21      C      -7.2664030387     0.7624186257    -0.3748029633
   22      C      -6.1953525820    -0.3985322374    -0.3798042461
   23      O      -5.9505230547    -0.6569787852     1.0548792778
   24      H      -4.2878556113     2.0998655768     0.1321176159
   25      H      -4.9846287646     0.8943984395    -1.7289637596
   26      H      -5.3229999655     0.8335266479     2.4466230957
   27      H      -7.5997643409     1.5928306655     1.6647307690
   28      H      -6.5443143337     2.6227617862     0.6497028063
   29      H      -8.2797352691     0.3485483739    -0.2504765014
   30      H      -7.2377917216     1.3553806420    -1.3026900123
   31      H      -6.5012677325    -1.3249285239    -0.9038342072
   32      O       2.8130670403     0.2023826926     1.5907693109
   33      C       2.9086671094    -3.3032126549     0.8666014658
   34      C       6.1648767379     0.4413707139     0.1629837738
   35      C       6.9277193338     1.1131779322    -1.0431916366
   36      C       5.8249792697     2.1124417954    -1.5592530208
   37      C       4.7131113839     1.9549352512    -0.4457462100
   38      O       5.4675437031     1.5940365259     0.7790832155
   39      H       5.3364201575    -0.7902263951    -1.4659092547
   40      H       3.4029085181     0.5754352542    -1.6890278211
   41      H       3.1534184552    -3.3053048913     1.9482119916
   42      H       6.7964988653    -0.0843298070     0.9051815929
   43      H       7.8176388280     1.6519632687    -0.6799052679
   44      H       7.2402929009     0.3831585450    -1.8069617635
   45      H       6.1959948557     3.1489103424    -1.5932263055
   46      H       5.4438326129     1.8418058841    -2.5572337820
   47      H       4.0950858935     2.8570851603    -0.2696556382
   48      H       3.4492440958    -4.1408801318     0.3800192988
   49      H       1.8188857902    -3.4369724744     0.7365554828
   50      H      -1.0721193683    -2.4370535407    -0.6649183685
   51      H      -1.5886535525    -2.0657021502    -2.3593354965
   52      H      -2.5608402348    -3.2022705422    -1.3552393991
   53      H      -0.7259417684     1.4949145378    -0.9505410817
   54      H      -0.9345569794    -0.0539250359    -0.0585049610
   55      H       0.4184648372     2.3897959081     1.2953681361
   56      H       0.7077437670     0.6486551646     1.6738103062
 ----------------------------------------------------------------

    9   -1510.2537107225      4.25E-09 Convergence criterion met
 Total energy in the final basis set = -1510.25371072
 Final energy is   -1510.25371072254
 **  OPTIMIZATION CONVERGED  **

                    Orbital Energies (a.u.)
 --------------------------------------------------------------

 Alpha MOs
 -- Occupied --
-18.948 -18.933 -18.926 -18.903 -18.891 -18.890 -18.888 -18.879
-18.873 -18.871 -10.108 -10.103 -10.099 -10.097 -10.074 -10.066
-10.063 -10.063 -10.061 -10.061 -10.061 -10.060 -10.045 -10.039
-10.038 -10.037 -10.023 -10.022 -10.022 -10.020  -1.022  -1.012
 -1.005  -1.000  -0.974  -0.971  -0.944  -0.937  -0.933  -0.929
 -0.765  -0.764  -0.726  -0.724  -0.712  -0.706  -0.693  -0.671
 -0.661  -0.615  -0.601  -0.577  -0.547  -0.545  -0.541  -0.538
 -0.516  -0.512  -0.491  -0.479  -0.464  -0.460  -0.452  -0.447
 -0.434  -0.433  -0.424  -0.420  -0.416  -0.410  -0.408  -0.397
 -0.391  -0.382  -0.378  -0.371  -0.360  -0.359  -0.356  -0.351
 -0.347  -0.340  -0.334  -0.332  -0.331  -0.326  -0.321  -0.315
 -0.313  -0.310  -0.307  -0.301  -0.299  -0.289  -0.288  -0.276
 -0.271  -0.264  -0.252  -0.245  -0.238  -0.234  -0.233  -0.188
 -0.180  -0.170  -0.164  -0.156  -0.153  -0.151  -0.149  -0.146
 -0.144

          Ground-State Mulliken Net Atomic Charges

     Atom                 Charge (a.u.)
  ----------------------------------------
      1 O                    -0.216036
      2 C                     0.212462
      3 C                    -0.079656
      4 C                    -0.076289
      5 C                     0.217051
      6 O                    -0.179837
      7 C                    -0.055784
      8 C                    -0.049476
      9 O                    -0.196155
     10 C                     0.223968
     11 C                    -0.082503
     12 C                    -0.079018
     13 C                     0.209825
     14 O                    -0.214997
     15 O                    -0.169837
     16 O                    -0.170041
     17 O                    -0.188324
     18 C                    -0.126831
     19 C                     0.025806
     20 C                    -0.144321
     21 C                    -0.143688
     22 C                     0.025843
     23 O                    -0.187321
     24 H                     0.085996
     25 H                     0.086408
     26 H                     0.085837
     27 H                     0.078736
     28 H                     0.074103
     29 H                     0.079102
     30 H                     0.074036
     31 H                     0.087370
     32 O                    -0.208645
     33 C                    -0.127006
     34 C                     0.025505
     35 C                    -0.141503
     36 C                    -0.145452
     37 C                     0.024497
     38 O                    -0.188989
     39 H                     0.083401
     40 H                     0.086259
     41 H                     0.092630
     42 H                     0.089745
     43 H                     0.078454
     44 H                     0.073777
     45 H                     0.078613
     46 H                     0.073403
     47 H                     0.083846
     48 H                     0.089045
     49 H                     0.087907
     50 H                     0.092451
     51 H                     0.089820
     52 H                     0.095907
     53 H                     0.081394
     54 H                     0.093447
     55 H                     0.085043
     56 H                     0.100023
  ----------------------------------------
  Sum of atomic charges =    -0.000000

                    Cartesian Multipole Moments
 -----------------------------------------------------------------
    Charge (ESU x 10^10)
                -0.0000
    Dipole Moment (Debye)
         X      -0.9080      Y       1.3286      Z      -3.4081
       Tot       3.7690
    Quadrupole Moments (Debye-Ang)
        XX    -157.6339     XY      -6.2512     YY    -157.0561
        XZ     -10.0950     YZ      -0.5382     ZZ    -165.5997

 Total job time:  60.90s(wall), 2893.31s(cpu)
        *  Thank you very much for using Q-Chem.  Have a nice day.  *
