 Q-Chem 5.0, Q-Chem, Inc., Pleasanton, CA (2017)
 Q-Chem 5.0.1 for Intel X86 EM64T Linux

User input:
--------------------------------------------------------------
$molecule
0  1
O -3.94934 -3.66094 2.70899
C -3.26408 -4.56952 2.26188
C -3.36658 -6.02376 2.66595
C -4.61425 -6.79485 2.20489
C -5.53369 -6.07634 1.24237
O -5.02926 -6.15132 -0.02466
C -5.32892 -7.38946 -0.67771
C -4.06679 -8.23647 -0.80316
O -4.37209 -9.47483 -1.46357
C -3.57206 -10.52095 -1.13996
C -3.07404 -11.27678 -2.34883
C -2.10281 -12.42532 -2.03926
C -2.05124 -12.87542 -0.59307
O -1.52335 -13.90114 -0.18837
O -2.25101 -4.26332 1.41038
O -3.11519 -12.58306 0.21449
O -2.77663 -10.33005 -0.22011
C -3.32321 -13.03166 1.5069
C -4.18636 -12.02499 -3.1047
C -3.75068 -12.261 -4.54953
C -2.67105 -13.30592 -4.35137
C -2.79488 -13.5463 -2.84186
O -4.15817 -13.32459 -2.57071
H -2.60066 -10.52527 -3.02161
H -1.05924 -12.23336 -2.37126
H -5.16838 -11.50437 -3.0763
H -4.61131 -12.73434 -5.0746
H -3.43566 -11.35366 -5.10847
H -2.95757 -14.21751 -4.92141
H -1.64314 -12.98752 -4.63008
H -2.40753 -14.5561 -2.58145
O -6.67683 -5.71928 1.48626
C -1.97631 -2.99153 0.9535
C -2.24075 -7.04341 2.46576
C -2.21925 -8.0244 3.64023
C -3.52209 -8.77708 3.40245
C -3.95719 -8.18376 2.04684
O -2.71383 -7.87658 1.45828
H -3.40493 -5.88446 3.77229
H -5.2893 -6.88025 3.08725
H -1.73648 -2.32124 1.80643
H -1.2426 -6.58381 2.30298
H -1.36685 -8.7192 3.46223
H -2.11058 -7.57629 4.65139
H -3.28085 -9.8591 3.30368
H -4.29981 -8.63851 4.18396
H -4.62245 -8.91696 1.5485
H -2.84789 -2.59039 0.39322
H -1.10131 -3.03081 0.27285
H -4.26704 -12.59575 1.89359
H -2.4859 -12.70619 2.16046
H -3.41 -14.13888 1.52496
H -3.71518 -7.63868 -1.67369
H -3.00241 -7.98493 -0.66706
H -5.80366 -7.17623 -1.66381
H -6.0776 -7.99816 -0.11636
$end

$opt
CONSTRAINT
tors           1           2           3           4     +70.937
tors           3           4           5           6     +80.051
tors           4           5           6           7     +81.557
tors           5           6           7           8    -108.710
tors           6           7           8           9    -179.774
tors           7           8           9          10    -152.142
tors           8           9          10          11    -132.520
tors           9          10          11          12    +176.857
tors          11          12          13          14    +167.032
ENDCONSTRAINT
$end

$rem
JOBTYPE                   OPT
METHOD                    B3LYP
DFT_D                     d3_op
BASIS                     STO-3G
GEOM_OPT_MAX_CYCLES       100
GEOM_OPT_TOL_GRADIENT     300
GEOM_OPT_TOL_DISPLACEMENT 1200
GEOM_OPT_TOL_ENERGY       100
SYMMETRY                  False
THRESH                    12
SCF_CONVERGENCE           8
MAX_SUB_FILE_NUM          128
MEM_STATIC                400
MEM_TOTAL                 4000
$end
--------------------------------------------------------------

   16   -1509.9368758399      3.04E-09 Convergence criterion met
 Total energy in the final basis set = -1509.93687584
   14   -1510.0239488988      8.07E-09 Convergence criterion met
 Total energy in the final basis set = -1510.02394890
   14   -1510.0788140568      7.12E-09 Convergence criterion met
 Total energy in the final basis set = -1510.07881406
   14   -1510.1178654953      6.24E-09 Convergence criterion met
 Total energy in the final basis set = -1510.11786550
   13   -1510.1450991117      7.77E-09 Convergence criterion met
 Total energy in the final basis set = -1510.14509911
    2   -1510.1450991119      6.47E-09 Convergence criterion met
 Total energy in the final basis set = -1510.14509911
   13   -1510.1657473772      8.69E-09 Convergence criterion met
 Total energy in the final basis set = -1510.16574738
   14   -1510.1825586270      3.48E-09 Convergence criterion met
    9   -1510.2280797407      7.87E-09 Convergence criterion met
 Total energy in the final basis set = -1510.22807974
   10   -1510.2280832879      6.22E-09 Convergence criterion met
 Total energy in the final basis set = -1510.22808329
   10   -1510.2280859876      6.21E-09 Convergence criterion met
 Total energy in the final basis set = -1510.22808599
   10   -1510.2280890027      5.37E-09 Convergence criterion met
 Total energy in the final basis set = -1510.22808900
   10   -1510.2280922865      7.84E-09 Convergence criterion met
 Total energy in the final basis set = -1510.22809229
   10   -1510.2280941995      6.43E-09 Convergence criterion met
 Total energy in the final basis set = -1510.22809420

             Standard Nuclear Orientation (Angstroms)
    I     Atom           X                Y                Z
 ----------------------------------------------------------------
    1      O      -5.7868729618    -1.2619678153    -0.3872521381
    2      C      -4.9481397355    -0.4266768451    -0.7917252570
    3      C      -4.4674132770     0.8582885373    -0.0231999637
    4      C      -3.5531966566     0.5049041695     1.2337965916
    5      C      -3.5275666134    -1.0538369951     1.5241999543
    6      O      -2.6740526455    -1.9423231665     0.7509181434
    7      C      -1.2658652136    -1.9873524752     1.1932353211
    8      C      -0.3393750231    -1.2632280399     0.1426184433
    9      O       1.0574204176    -1.3419978216     0.6306306769
   10      C       1.8189029057    -0.2135797650     0.1292068121
   11      C       3.1662048952    -0.7785790241    -0.4447612268
   12      C       4.1979324960     0.1924569330    -1.1394138361
   13      C       4.4248056790     1.6324971969    -0.5256208144
   14      O       5.3702489938     2.3894192741    -0.8433229363
   15      O      -4.2421391462    -0.5450376730    -2.0291978037
   16      O       3.5661586502     1.8817166797     0.5842435181
   17      O       1.3344088132     0.9305348666     0.0095227863
   18      C       3.9130659893     3.1781829656     1.2106339444
   19      C       4.1132953445    -1.6254141342     0.5238965622
   20      C       4.6648604773    -2.8253949726    -0.3362351150
   21      C       5.5665021431    -2.0402228238    -1.3617865566
   22      C       5.5400409590    -0.5795199904    -0.7558104038
   23      O       5.3208569597    -0.7867884225     0.6995177069
   24      H       2.8062576868    -1.4700280067    -1.2319148337
   25      H       4.0299562324     0.2741156606    -2.2281745539
   26      H       3.6682905981    -1.8936419668     1.5014133370
   27      H       5.2675131544    -3.5010331495     0.2923631019
   28      H       3.8644636822    -3.4074861814    -0.8204123410
   29      H       6.5957712738    -2.4314894914    -1.3850561708
   30      H       5.1595308315    -2.0641543018    -2.3857261676
   31      H       6.4546087086     0.0207124762    -0.9290953317
   32      O      -4.3532499577    -1.5551166639     2.3190407993
   33      C      -4.6283348783    -1.8019576054    -2.7110995145
   34      C      -3.4582102534     1.7569033072    -0.8615704770
   35      C      -3.3823893240     3.1754409339    -0.1753362083
   36      C      -2.5276344051     2.8458959998     1.1026214119
   37      C      -2.2374122907     1.3061542443     0.8965896231
   38      O      -2.1239771529     1.1680997252    -0.5735980262
   39      H      -5.3603007130     1.4249579280     0.2948016492
   40      H      -4.0216707825     0.9293493607     2.1410821664
   41      H      -5.7138876001    -1.8284834772    -2.9372936612
   42      H      -3.6473135129     1.7602729942    -1.9516503057
   43      H      -2.8652633471     3.8934885803    -0.8314259124
   44      H      -4.3805636242     3.5731578918     0.0679067990
   45      H      -1.5804387888     3.4080457833     1.1109725639
   46      H      -3.0666346336     3.0463453467     2.0424970306
   47      H      -1.3239584611     0.9537134467     1.4081612598
   48      H      -4.3738895664    -2.6889573469    -2.0956512522
   49      H      -4.0519779784    -1.8253890664    -3.6541714587
   50      H       3.2282013260     3.2886533640     2.0712308311
   51      H       3.7656400661     4.0235868668     0.5082484726
   52      H       4.9644180351     3.1915585549     1.5640684565
   53      H      -0.4092003487    -1.8173525849    -0.8209545885
   54      H      -0.6658278415    -0.2238300320    -0.0543881657
   55      H      -0.9781285135    -3.0593261748     1.2521934880
   56      H      -1.1156127857    -1.5374569402     2.1981652841
 ----------------------------------------------------------------

    9   -1510.2280952184      6.82E-09 Convergence criterion met
 Total energy in the final basis set = -1510.22809522
 Final energy is   -1510.22809521839
 **  OPTIMIZATION CONVERGED  **

                    Orbital Energies (a.u.)
 --------------------------------------------------------------

 Alpha MOs
 -- Occupied --
-18.937 -18.933 -18.910 -18.902 -18.900 -18.894 -18.887 -18.887
-18.875 -18.864 -10.108 -10.101 -10.100 -10.094 -10.074 -10.065
-10.064 -10.063 -10.061 -10.060 -10.059 -10.057 -10.041 -10.040
-10.038 -10.037 -10.023 -10.022 -10.022 -10.020  -1.013  -1.010
 -1.004  -1.002  -0.975  -0.971  -0.938  -0.936  -0.931  -0.927
 -0.767  -0.763  -0.725  -0.723  -0.710  -0.709  -0.693  -0.661
 -0.658  -0.609  -0.599  -0.583  -0.552  -0.545  -0.542  -0.538
 -0.518  -0.513  -0.484  -0.480  -0.474  -0.456  -0.443  -0.440
 -0.435  -0.434  -0.423  -0.413  -0.412  -0.409  -0.405  -0.403
 -0.393  -0.382  -0.373  -0.372  -0.366  -0.357  -0.352  -0.347
 -0.342  -0.340  -0.337  -0.333  -0.331  -0.326  -0.315  -0.311
 -0.309  -0.307  -0.306  -0.299  -0.296  -0.293  -0.289  -0.282
 -0.272  -0.256  -0.248  -0.245  -0.237  -0.234  -0.232  -0.178
 -0.174  -0.169  -0.162  -0.156  -0.151  -0.149  -0.147  -0.145
 -0.143

          Ground-State Mulliken Net Atomic Charges

     Atom                 Charge (a.u.)
  ----------------------------------------
      1 O                    -0.210022
      2 C                     0.205580
      3 C                    -0.079093
      4 C                    -0.083629
      5 C                     0.215418
      6 O                    -0.198098
      7 C                    -0.042743
      8 C                    -0.061335
      9 O                    -0.194078
     10 C                     0.215880
     11 C                    -0.079103
     12 C                    -0.076516
     13 C                     0.211618
     14 O                    -0.221175
     15 O                    -0.166739
     16 O                    -0.159900
     17 O                    -0.192913
     18 C                    -0.125867
     19 C                     0.026194
     20 C                    -0.140750
     21 C                    -0.146343
     22 C                     0.023418
     23 O                    -0.191925
     24 H                     0.083328
     25 H                     0.084871
     26 H                     0.087512
     27 H                     0.077941
     28 H                     0.074311
     29 H                     0.078922
     30 H                     0.073593
     31 H                     0.088075
     32 O                    -0.173992
     33 C                    -0.127706
     34 C                     0.025939
     35 C                    -0.143885
     36 C                    -0.142887
     37 C                     0.020568
     38 O                    -0.190006
     39 H                     0.087274
     40 H                     0.085332
     41 H                     0.089135
     42 H                     0.092158
     43 H                     0.079445
     44 H                     0.074037
     45 H                     0.081694
     46 H                     0.074147
     47 H                     0.086368
     48 H                     0.094043
     49 H                     0.090289
     50 H                     0.090099
     51 H                     0.088702
     52 H                     0.090169
     53 H                     0.075819
     54 H                     0.107257
     55 H                     0.088734
     56 H                     0.080834
  ----------------------------------------
  Sum of atomic charges =    -0.000000

                    Cartesian Multipole Moments
 -----------------------------------------------------------------
    Charge (ESU x 10^10)
                -0.0000
    Dipole Moment (Debye)
         X       0.1894      Y       0.7219      Z      -1.2892
       Tot       1.4897
    Quadrupole Moments (Debye-Ang)
        XX    -176.4009     XY     -19.7419     YY    -155.7232
        XZ       5.5953     YZ      10.9301     ZZ    -154.8502

 Total job time:  81.89s(wall), 3900.44s(cpu)
        *  Thank you very much for using Q-Chem.  Have a nice day.  *
