 Q-Chem 5.0, Q-Chem, Inc., Pleasanton, CA (2017)
 Q-Chem 5.0.1 for Intel X86 EM64T Linux

User input:
--------------------------------------------------------------
$molecule
0  1
O 3.8491722988 -2.473528181 -1.1290947463
C 4.3176568236 -1.599823147 -0.3687561364
C 4.2885276858 -0.0423810736 -0.5786692305
C 2.8956316967 0.6514159106 -0.8915751085
C 1.5686568173 -0.0202740987 -0.3601801273
O 1.6636184346 -1.4410130157 -0.2753957088
C 0.4938006031 -1.9914973013 0.4501869059
C -0.5441952892 -2.6202714655 -0.5661701067
O -1.9441087593 -2.3685206388 -0.1661313868
C -2.4055527198 -1.0788109683 -0.639036364
C -3.6608804763 -0.731404076 0.2381963306
C -3.8604225692 0.7004168374 0.9022644358
C -2.9498907535 1.944719779 0.5689431614
O -3.1650504927 3.0879618539 1.0342568957
O 4.9895019181 -1.9021365547 0.8617040719
O -1.8963954913 1.6454285399 -0.333400989
O -1.9079103768 -0.4932625322 -1.6214047722
C -1.1422439125 2.880517209 -0.6535909845
C -5.0140635626 -0.8590285807 -0.6085213954
C -6.1737631607 -1.2481521705 0.3891041617
C -6.3760959848 0.1126311027 1.1514814954
C -5.337719816 1.0401194885 0.4060265069
O -5.3393341534 0.5328582355 -0.9842171343
H -3.6612417816 -1.4896587877 1.0410360072
H -3.8414398371 0.5942867514 2.0029618275
H -4.9341658868 -1.4958873177 -1.5109193774
H -7.079031607 -1.5357862981 -0.1693466847
H -5.8915701329 -2.0772291188 1.05749681
H -7.3989652311 0.5007110893 1.0230921028
H -6.1619391402 0.034523451 2.2293141151
H -5.5712963242 2.1224506205 0.4299271524
O 0.5668932374 0.6214416822 0.0283858162
C 5.0244752578 -3.3678329606 1.065954296
C 4.8252401296 0.8611172058 0.6166875517
C 5.4955151958 2.1337837485 -0.0302237486
C 4.2253374262 2.8745077046 -0.5942323418
C 3.0596979067 1.9732701911 -0.0252143723
O 3.6043670594 1.4216652611 1.2405472019
H 4.9338806872 0.1270247656 -1.4625485064
H 2.7861969848 0.854661958 -1.9732321803
H 5.5859310447 -3.8816909209 0.2589038969
H 5.4333559468 0.3132262685 1.3611393092
H 5.9978954198 2.7352160283 0.7444655902
H 6.2282406236 1.878161979 -0.8122095665
H 4.146114426 3.9020429294 -0.205742337
H 4.2116663781 2.9129331122 -1.6954902547
H 2.0964730885 2.4876563724 0.1591901345
H 4.0025262788 -3.7969631163 1.1088405628
H 5.5356909145 -3.5293934395 2.0328753088
H -0.366144005 2.5733755909 -1.3773347236
H -0.66019615 3.309188526 0.2483587745
H -1.8010670811 3.6500731251 -1.1053943511
H -0.353561189 -2.1838406099 -1.5718750656
H -0.4241628955 -3.7203151176 -0.6189183555
H -0.0029275614 -1.1726935589 1.0150650425
H 0.8842888928 -2.7586106344 1.1481980967
$end

$rem
JOBTYPE                   OPT
METHOD                    B3LYP
DFT_D                     d3_op
BASIS                     STO-3G
GEOM_OPT_MAX_CYCLES       100
GEOM_OPT_TOL_GRADIENT     300
GEOM_OPT_TOL_DISPLACEMENT 1200
GEOM_OPT_TOL_ENERGY       100
SYMMETRY                  False
THRESH                    12
SCF_CONVERGENCE           8
MAX_SUB_FILE_NUM          128
MEM_STATIC                400
MEM_TOTAL                 4000
$end
--------------------------------------------------------------

   16   -1510.2589536801      3.10E-09 Convergence criterion met
 Total energy in the final basis set = -1510.25895368
   14   -1510.2618382844      3.87E-09 Convergence criterion met
 Total energy in the final basis set = -1510.26183828
   14   -1510.2652375919      3.40E-09 Convergence criterion met
 Total energy in the final basis set = -1510.26523759
   14   -1510.2679459338      2.02E-09 Convergence criterion met
 Total energy in the final basis set = -1510.26794593
   13   -1510.2709192012      9.28E-09 Convergence criterion met
 Total energy in the final basis set = -1510.27091920
   13   -1510.2731363646      6.95E-09 Convergence criterion met
 Total energy in the final basis set = -1510.27313636
   13   -1510.2749788144      8.53E-09 Convergence criterion met
 Total energy in the final basis set = -1510.27497881
   13   -1510.2773962632      8.05E-09 Convergence criterion met
   12   -1510.2939844929      3.92E-09 Convergence criterion met
 Total energy in the final basis set = -1510.29398449
   11   -1510.2940056683      7.72E-09 Convergence criterion met
 Total energy in the final basis set = -1510.29400567
   11   -1510.2940012977      4.84E-09 Convergence criterion met
 Total energy in the final basis set = -1510.29400130
   10   -1510.2939926877      6.00E-09 Convergence criterion met
 Total energy in the final basis set = -1510.29399269
    9   -1510.2939888130      4.13E-09 Convergence criterion met
 Total energy in the final basis set = -1510.29398881
    9   -1510.2939898162      2.98E-09 Convergence criterion met
 Total energy in the final basis set = -1510.29398982

             Standard Nuclear Orientation (Angstroms)
    I     Atom           X                Y                Z
 ----------------------------------------------------------------
    1      O       4.6217188580    -2.1203044490     0.9157036828
    2      C       4.2153485504    -0.9630806438     0.6782202233
    3      C       4.7217618210     0.0181214714    -0.4304420888
    4      C       3.5558930812     0.7062554479    -1.2577747019
    5      C       2.1178271249     0.2634091529    -0.8125379221
    6      O       2.0171839034    -1.1564237997    -0.9738556629
    7      C       0.6855538625    -1.6493512370    -0.5437413220
    8      C      -0.4199438684    -1.4031920853    -1.6348793115
    9      O      -1.7261037350    -1.8201876834    -1.0725244583
   10      C      -2.5596730734    -0.6661509892    -0.8658220053
   11      C      -3.8739447627    -1.1335371367    -0.1582304986
   12      C      -4.1549525538    -0.3554941462     1.1964590150
   13      C      -3.0508259095     0.6953003045     1.5739646624
   14      O      -3.2281955217     1.9034244270     1.8410193993
   15      O       3.1908228196    -0.3006219295     1.4339895856
   16      O      -1.7823183596     0.0327823067     1.5927249182
   17      O      -2.2603946783     0.4897223217    -1.2375725394
   18      C      -0.6937978245     1.0005155990     1.8825494362
   19      C      -5.1642815519    -0.7276597169    -0.9964696600
   20      C      -6.4040845296    -1.5167628820    -0.4157002345
   21      C      -6.6782340735    -0.7196512771     0.9146848960
   22      C      -5.5280815870     0.3597856504     0.8612953467
   23      O      -5.4110050092     0.6706770708    -0.5829760694
   24      H      -3.8119374716    -2.2237130689     0.0035931837
   25      H      -4.2600361134    -1.0674770087     2.0357672895
   26      H      -5.0371513067    -0.7909882983    -2.0946633308
   27      H      -7.2581470628    -1.4536664463    -1.1084969700
   28      H      -6.1720090499    -2.5787947330    -0.2363854783
   29      H      -7.6663272897    -0.2329213481     0.8967828320
   30      H      -6.6119013834    -1.3535901467     1.8131542618
   31      H      -5.7021018343     1.2867651470     1.4419537116
   32      O       1.1872109958     1.0115341923    -0.4394806588
   33      C       2.6681404665    -1.2050235550     2.4824072386
   34      C       5.4213399143     1.3026080785     0.2004171933
   35      C       6.2250047414     2.0452872892    -0.9407074377
   36      C       5.0553593827     2.7298871817    -1.7416441734
   37      C       3.7994575347     2.2354694163    -0.9251458868
   38      O       4.2848183440     2.2076825311     0.4749429445
   39      H       5.4113317126    -0.5414245071    -1.0860278805
   40      H       3.6644171769     0.4952318846    -2.3376698907
   41      H       3.4474537852    -1.4519367098     3.2319266012
   42      H       5.9940978295     1.1038546130     1.1271783885
   43      H       6.9077008374     2.7912126448    -0.5037219388
   44      H       6.8128999318     1.3463609379    -1.5570044293
   45      H       5.1303241495     3.8283029446    -1.7044540698
   46      H       5.0177590456     2.4135196611    -2.7963293703
   47      H       2.8879456335     2.8593546690    -1.0048332986
   48      H       2.2834209393    -2.1514882046     2.0513576771
   49      H       1.8428669058    -0.6577900019     2.9735581156
   50      H       0.0009329821     1.0315002502     1.0110625646
   51      H      -0.1539043761     0.6578733670     2.7865826866
   52      H      -1.1332771652     2.0009016059     2.0636443551
   53      H      -0.4775286124    -0.3213465204    -1.8871723137
   54      H      -0.2170031687    -2.0036667377    -2.5450296168
   55      H       0.3637111390    -1.1643239873     0.4011975932
   56      H       0.8152773677    -2.7360327833    -0.3679380275
 ----------------------------------------------------------------

    9   -1510.2939893749      2.84E-09 Convergence criterion met
 Total energy in the final basis set = -1510.29398937
 Final energy is   -1510.29398937490
 **  OPTIMIZATION CONVERGED  **

                    Orbital Energies (a.u.)
 --------------------------------------------------------------

 Alpha MOs
 -- Occupied --
-18.942 -18.938 -18.931 -18.924 -18.890 -18.888 -18.886 -18.879
-18.874 -18.872 -10.112 -10.102 -10.098 -10.094 -10.075 -10.067
-10.065 -10.064 -10.060 -10.059 -10.055 -10.043 -10.041 -10.037
-10.035 -10.034 -10.023 -10.022 -10.019 -10.018  -1.023  -1.012
 -1.010  -1.002  -0.973  -0.968  -0.947  -0.939  -0.935  -0.929
 -0.768  -0.762  -0.730  -0.723  -0.712  -0.706  -0.696  -0.664
 -0.649  -0.620  -0.599  -0.583  -0.549  -0.543  -0.539  -0.535
 -0.516  -0.507  -0.487  -0.477  -0.471  -0.457  -0.449  -0.448
 -0.436  -0.432  -0.428  -0.420  -0.413  -0.408  -0.407  -0.397
 -0.390  -0.379  -0.374  -0.367  -0.363  -0.360  -0.355  -0.353
 -0.346  -0.337  -0.335  -0.333  -0.329  -0.325  -0.324  -0.313
 -0.308  -0.307  -0.304  -0.302  -0.297  -0.290  -0.285  -0.278
 -0.270  -0.259  -0.255  -0.245  -0.241  -0.237  -0.232  -0.191
 -0.181  -0.172  -0.166  -0.161  -0.158  -0.154  -0.150  -0.146
 -0.142

          Ground-State Mulliken Net Atomic Charges

     Atom                 Charge (a.u.)
  ----------------------------------------
      1 O                    -0.211189
      2 C                     0.211810
      3 C                    -0.079106
      4 C                    -0.077918
      5 C                     0.224217
      6 O                    -0.173915
      7 C                    -0.051597
      8 C                    -0.059704
      9 O                    -0.174007
     10 C                     0.213446
     11 C                    -0.078466
     12 C                    -0.078297
     13 C                     0.214357
     14 O                    -0.209849
     15 O                    -0.168552
     16 O                    -0.180277
     17 O                    -0.209633
     18 C                    -0.152924
     19 C                     0.025937
     20 C                    -0.143978
     21 C                    -0.144036
     22 C                     0.024526
     23 O                    -0.185939
     24 H                     0.086005
     25 H                     0.083855
     26 H                     0.082798
     27 H                     0.078002
     28 H                     0.073156
     29 H                     0.078234
     30 H                     0.072732
     31 H                     0.091502
     32 O                    -0.210668
     33 C                    -0.128283
     34 C                     0.026160
     35 C                    -0.143746
     36 C                    -0.143929
     37 C                     0.024827
     38 O                    -0.185731
     39 H                     0.086407
     40 H                     0.085949
     41 H                     0.089556
     42 H                     0.083041
     43 H                     0.078856
     44 H                     0.074160
     45 H                     0.079354
     46 H                     0.073638
     47 H                     0.092263
     48 H                     0.088878
     49 H                     0.091268
     50 H                     0.110620
     51 H                     0.072042
     52 H                     0.098737
     53 H                     0.105571
     54 H                     0.083761
     55 H                     0.096256
     56 H                     0.089825
  ----------------------------------------
  Sum of atomic charges =    -0.000000

                    Cartesian Multipole Moments
 -----------------------------------------------------------------
    Charge (ESU x 10^10)
                -0.0000
    Dipole Moment (Debye)
         X       1.1771      Y      -2.6564      Z      -0.4476
       Tot       2.9398
    Quadrupole Moments (Debye-Ang)
        XX    -147.8200     XY      18.2700     YY    -167.7496
        XZ      -8.6143     YZ      -3.0448     ZZ    -152.3998

 Total job time:  161.48s(wall), 7695.12s(cpu)
        *  Thank you very much for using Q-Chem.  Have a nice day.  *
