 Q-Chem 5.0, Q-Chem, Inc., Pleasanton, CA (2017)
 Q-Chem 5.0.1 for Intel X86 EM64T Linux

User input:
--------------------------------------------------------------
$molecule
0  1
O -3.94934 -3.66094 2.70899
C -3.26408 -4.56952 2.26188
C -3.36658 -6.02376 2.66595
C -4.75986 -6.67158 2.6116
C -5.86408 -5.8452 1.99041
O -5.62644 -4.51738 2.20452
C -6.49614 -3.66174 1.45569
C -7.5898 -3.10269 2.35984
O -8.83232 -3.03782 1.64235
C -9.56199 -4.18093 1.63536
C -10.59124 -4.2152 0.53076
C -10.64042 -5.52603 -0.26774
C -9.93213 -6.7094 0.36047
O -9.92715 -7.84904 -0.082
O -2.40283 -4.27265 1.25153
O -9.23965 -6.64427 1.52211
O -9.80756 -4.71172 2.71511
C -8.79064 -7.72334 2.26823
C -12.05094 -4.15125 1.03379
C -12.95561 -3.62207 -0.07848
C -12.94199 -4.7965 -1.03641
C -12.14911 -5.81543 -0.20915
O -12.45952 -5.494 1.12525
H -10.42039 -3.33358 -0.12989
H -10.23695 -5.41236 -1.29758
H -12.17263 -3.537 1.95274
H -13.97708 -3.53028 0.35626
H -12.66045 -2.64624 -0.52073
H -13.99056 -5.13444 -1.19162
H -12.45164 -4.60548 -2.01561
H -12.39454 -6.85223 -0.52944
O -6.56762 -6.28376 1.08909
C -2.22285 -3.01095 0.72399
C -2.56813 -6.99804 1.77265
C -2.26138 -8.28415 2.5402
C -3.62746 -8.93258 2.56324
C -4.43409 -7.91406 1.75388
O -3.50725 -7.42262 0.81573
H -2.96801 -6.05649 3.70454
H -5.12954 -6.95676 3.62126
H -1.86408 -2.31451 1.51173
H -1.6192 -6.575 1.37881
H -1.58758 -8.90534 1.90752
H -1.79153 -8.12714 3.53494
H -3.56916 -9.8933 2.00406
H -4.05468 -9.10984 3.57388
H -5.33918 -8.40766 1.33771
H -3.17716 -2.63561 0.29627
H -1.46388 -3.05929 -0.08348
H -8.25887 -7.3488 3.16693
H -8.09168 -8.3489 1.67286
H -9.6528 -8.34108 2.59814
H -7.69983 -3.74958 3.26002
H -7.29325 -2.10604 2.74911
H -6.98544 -4.16189 0.59178
H -5.92846 -2.84229 0.9662
$end

$opt
CONSTRAINT
tors           1           2           3           4     +52.031
tors           3           4           5           6     -30.641
tors           4           5           6           7    +169.871
tors           5           6           7           8    +102.647
tors           6           7           8           9    -142.105
tors           7           8           9          10     +85.085
tors           8           9          10          11    -161.053
tors           9          10          11          12    +133.527
tors          11          12          13          14    +175.492
ENDCONSTRAINT
$end

$rem
JOBTYPE                   OPT
METHOD                    B3LYP
DFT_D                     d3_op
BASIS                     STO-3G
GEOM_OPT_MAX_CYCLES       100
GEOM_OPT_TOL_GRADIENT     300
GEOM_OPT_TOL_DISPLACEMENT 1200
GEOM_OPT_TOL_ENERGY       100
SYMMETRY                  False
THRESH                    12
SCF_CONVERGENCE           8
MAX_SUB_FILE_NUM          128
MEM_STATIC                400
MEM_TOTAL                 4000
$end
--------------------------------------------------------------

   16   -1510.0675426799      2.84E-09 Convergence criterion met
 Total energy in the final basis set = -1510.06754268
   14   -1510.1460946533      2.52E-09 Convergence criterion met
 Total energy in the final basis set = -1510.14609465
   14   -1510.2019718587      7.01E-09 Convergence criterion met
 Total energy in the final basis set = -1510.20197186
   14   -1510.2298320945      6.24E-09 Convergence criterion met
 Total energy in the final basis set = -1510.22983209
   14   -1510.2422314422      7.33E-09 Convergence criterion met
 Total energy in the final basis set = -1510.24223144
   13   -1510.2509428485      8.67E-09 Convergence criterion met
 Total energy in the final basis set = -1510.25094285
   13   -1510.2548796542      4.09E-09 Convergence criterion met
 Total energy in the final basis set = -1510.25487965
   13   -1510.2571379279      4.97E-09 Convergence criterion met
   11   -1510.2589392467      5.12E-09 Convergence criterion met
 Total energy in the final basis set = -1510.25893925
   11   -1510.2589367751      6.17E-09 Convergence criterion met
 Total energy in the final basis set = -1510.25893678
   11   -1510.2589304970      3.78E-09 Convergence criterion met
 Total energy in the final basis set = -1510.25893050
   11   -1510.2589322670      3.54E-09 Convergence criterion met
 Total energy in the final basis set = -1510.25893227
   10   -1510.2589334733      9.52E-09 Convergence criterion met
 Total energy in the final basis set = -1510.25893347
   11   -1510.2589416836      3.59E-09 Convergence criterion met
 Total energy in the final basis set = -1510.25894168

             Standard Nuclear Orientation (Angstroms)
    I     Atom           X                Y                Z
 ----------------------------------------------------------------
    1      O       3.8491722988    -2.4735281810    -1.1290947463
    2      C       4.3176568236    -1.5998231470    -0.3687561364
    3      C       4.2885276858    -0.0423810736    -0.5786692305
    4      C       2.8956316967     0.6514159106    -0.8915751085
    5      C       1.5686568173    -0.0202740987    -0.3601801273
    6      O       1.6636184346    -1.4410130157    -0.2753957088
    7      C       0.4938006031    -1.9914973013     0.4501869059
    8      C      -0.5441952892    -2.6202714655    -0.5661701067
    9      O      -1.9441087593    -2.3685206388    -0.1661313868
   10      C      -2.4055527198    -1.0788109683    -0.6390363640
   11      C      -3.6608804763    -0.7314040760     0.2381963306
   12      C      -3.8604225692     0.7004168374     0.9022644358
   13      C      -2.9498907535     1.9447197790     0.5689431614
   14      O      -3.1650504927     3.0879618539     1.0342568957
   15      O       4.9895019181    -1.9021365547     0.8617040719
   16      O      -1.8963954913     1.6454285399    -0.3334009890
   17      O      -1.9079103768    -0.4932625322    -1.6214047722
   18      C      -1.1422439125     2.8805172090    -0.6535909845
   19      C      -5.0140635626    -0.8590285807    -0.6085213954
   20      C      -6.1737631607    -1.2481521705     0.3891041617
   21      C      -6.3760959848     0.1126311027     1.1514814954
   22      C      -5.3377198160     1.0401194885     0.4060265069
   23      O      -5.3393341534     0.5328582355    -0.9842171343
   24      H      -3.6612417816    -1.4896587877     1.0410360072
   25      H      -3.8414398371     0.5942867514     2.0029618275
   26      H      -4.9341658868    -1.4958873177    -1.5109193774
   27      H      -7.0790316070    -1.5357862981    -0.1693466847
   28      H      -5.8915701329    -2.0772291188     1.0574968100
   29      H      -7.3989652311     0.5007110893     1.0230921028
   30      H      -6.1619391402     0.0345234510     2.2293141151
   31      H      -5.5712963242     2.1224506205     0.4299271524
   32      O       0.5668932374     0.6214416822     0.0283858162
   33      C       5.0244752578    -3.3678329606     1.0659542960
   34      C       4.8252401296     0.8611172058     0.6166875517
   35      C       5.4955151958     2.1337837485    -0.0302237486
   36      C       4.2253374262     2.8745077046    -0.5942323418
   37      C       3.0596979067     1.9732701911    -0.0252143723
   38      O       3.6043670594     1.4216652611     1.2405472019
   39      H       4.9338806872     0.1270247656    -1.4625485064
   40      H       2.7861969848     0.8546619580    -1.9732321803
   41      H       5.5859310447    -3.8816909209     0.2589038969
   42      H       5.4333559468     0.3132262685     1.3611393092
   43      H       5.9978954198     2.7352160283     0.7444655902
   44      H       6.2282406236     1.8781619790    -0.8122095665
   45      H       4.1461144260     3.9020429294    -0.2057423370
   46      H       4.2116663781     2.9129331122    -1.6954902547
   47      H       2.0964730885     2.4876563724     0.1591901345
   48      H       4.0025262788    -3.7969631163     1.1088405628
   49      H       5.5356909145    -3.5293934395     2.0328753088
   50      H      -0.3661440050     2.5733755909    -1.3773347236
   51      H      -0.6601961500     3.3091885260     0.2483587745
   52      H      -1.8010670811     3.6500731251    -1.1053943511
   53      H      -0.3535611890    -2.1838406099    -1.5718750656
   54      H      -0.4241628955    -3.7203151176    -0.6189183555
   55      H      -0.0029275614    -1.1726935589     1.0150650425
   56      H       0.8842888928    -2.7586106344     1.1481980967
 ----------------------------------------------------------------

   11   -1510.2589424007      5.10E-09 Convergence criterion met
 Total energy in the final basis set = -1510.25894240
 Final energy is   -1510.25894240071
 **  OPTIMIZATION CONVERGED  **

                    Orbital Energies (a.u.)
 --------------------------------------------------------------

 Alpha MOs
 -- Occupied --
-18.937 -18.933 -18.931 -18.919 -18.886 -18.885 -18.879 -18.875
-18.872 -18.857 -10.100 -10.099 -10.095 -10.090 -10.068 -10.066
-10.065 -10.058 -10.057 -10.057 -10.055 -10.053 -10.041 -10.037
-10.034 -10.032 -10.021 -10.019 -10.018 -10.017  -1.017  -1.008
 -1.004  -1.000  -0.969  -0.968  -0.939  -0.933  -0.930  -0.923
 -0.762  -0.758  -0.725  -0.718  -0.709  -0.705  -0.693  -0.661
 -0.653  -0.617  -0.598  -0.580  -0.543  -0.538  -0.537  -0.534
 -0.513  -0.509  -0.482  -0.470  -0.465  -0.460  -0.448  -0.435
 -0.434  -0.430  -0.426  -0.412  -0.409  -0.407  -0.405  -0.398
 -0.390  -0.376  -0.373  -0.369  -0.360  -0.352  -0.346  -0.344
 -0.338  -0.335  -0.332  -0.329  -0.327  -0.321  -0.316  -0.312
 -0.308  -0.306  -0.302  -0.296  -0.292  -0.289  -0.287  -0.278
 -0.264  -0.255  -0.252  -0.238  -0.235  -0.233  -0.230  -0.183
 -0.175  -0.166  -0.161  -0.156  -0.152  -0.148  -0.142  -0.142
 -0.140

          Ground-State Mulliken Net Atomic Charges

     Atom                 Charge (a.u.)
  ----------------------------------------
      1 O                    -0.208775
      2 C                     0.212860
      3 C                    -0.081169
      4 C                    -0.075474
      5 C                     0.211740
      6 O                    -0.167852
      7 C                    -0.054251
      8 C                    -0.053663
      9 O                    -0.182124
     10 C                     0.212966
     11 C                    -0.081405
     12 C                    -0.077825
     13 C                     0.208045
     14 O                    -0.224404
     15 O                    -0.171683
     16 O                    -0.152523
     17 O                    -0.193494
     18 C                    -0.120681
     19 C                     0.026245
     20 C                    -0.143306
     21 C                    -0.144801
     22 C                     0.025377
     23 O                    -0.189065
     24 H                     0.085235
     25 H                     0.083610
     26 H                     0.082728
     27 H                     0.077348
     28 H                     0.073843
     29 H                     0.077979
     30 H                     0.073802
     31 H                     0.087580
     32 O                    -0.211740
     33 C                    -0.127593
     34 C                     0.021600
     35 C                    -0.142240
     36 C                    -0.146115
     37 C                     0.022916
     38 O                    -0.192964
     39 H                     0.082476
     40 H                     0.086126
     41 H                     0.088116
     42 H                     0.093001
     43 H                     0.077688
     44 H                     0.072708
     45 H                     0.078468
     46 H                     0.073220
     47 H                     0.089523
     48 H                     0.088759
     49 H                     0.089777
     50 H                     0.093867
     51 H                     0.087817
     52 H                     0.086880
     53 H                     0.097214
     54 H                     0.087198
     55 H                     0.100456
     56 H                     0.085980
  ----------------------------------------
  Sum of atomic charges =     0.000000

                    Cartesian Multipole Moments
 -----------------------------------------------------------------
    Charge (ESU x 10^10)
                 0.0000
    Dipole Moment (Debye)
         X       1.9797      Y      -1.5827      Z       0.8396
       Tot       2.6701
    Quadrupole Moments (Debye-Ang)
        XX    -145.3299     XY       7.9343     YY    -156.1829
        XZ      -7.4931     YZ      -8.8049     ZZ    -162.5556

 Total job time:  69.52s(wall), 3311.11s(cpu)
        *  Thank you very much for using Q-Chem.  Have a nice day.  *
