 Q-Chem 5.0, Q-Chem, Inc., Pleasanton, CA (2017)
 Q-Chem 5.0.1 for Intel X86 EM64T Linux

User input:
--------------------------------------------------------------
$molecule
0  1
O -3.94934 -3.66094 2.70899
C -3.26408 -4.56952 2.26188
C -3.36658 -6.02376 2.66595
C -4.42836 -6.87773 1.95377
C -5.14832 -6.22846 0.79265
O -6.44498 -5.9712 1.13602
C -7.19429 -5.35403 0.08393
C -7.96078 -4.14982 0.62105
O -9.25113 -4.07209 -0.00491
C -9.39422 -3.08663 -0.92553
C -10.79038 -3.01305 -1.49648
C -11.57988 -1.75214 -1.11559
C -10.76539 -0.61152 -0.53913
O -11.21284 0.46752 -0.17856
O -2.27227 -4.24513 1.38802
O -9.42229 -0.6991 -0.35949
O -8.42977 -2.65465 -1.55166
C -8.60165 0.28159 0.16504
C -10.84382 -2.9085 -3.03726
C -12.19753 -3.40777 -3.54125
C -13.1072 -2.29433 -3.06097
C -12.06935 -1.31279 -2.50394
O -10.92844 -1.52858 -3.29989
H -11.332 -3.94081 -1.19828
H -12.39011 -1.97206 -0.38637
H -10.02046 -3.45649 -3.54537
H -12.15601 -3.3767 -4.65391
H -12.48797 -4.4303 -3.21741
H -13.63164 -1.86485 -3.94319
H -13.84409 -2.58578 -2.2813
H -12.47324 -0.27612 -2.50161
O -4.58564 -5.83184 -0.22215
C -2.02967 -2.97089 0.91937
C -2.10618 -6.84462 2.28235
C -2.00243 -8.097 3.15447
C -3.11295 -8.94139 2.56924
C -3.57222 -8.03621 1.4231
O -2.39722 -7.38158 1.01532
H -3.43674 -6.04066 3.77663
H -5.19258 -7.22894 2.68507
H -1.78593 -2.29153 1.76385
H -1.16058 -6.26498 2.36371
H -1.02925 -8.58516 2.91969
H -2.0662 -7.91676 4.24909
H -2.6681 -9.87756 2.16411
H -3.94222 -9.18702 3.26742
H -4.09963 -8.63057 0.64426
H -2.9193 -2.58935 0.37383
H -1.16764 -2.99814 0.22183
H -7.55718 -0.09171 0.18343
H -8.91173 0.52515 1.20359
H -8.644 1.19454 -0.46644
H -8.17906 -4.31894 1.69746
H -7.34159 -3.22483 0.57502
H -7.95821 -6.11838 -0.17756
H -6.68011 -5.10751 -0.8715
$end

$opt
CONSTRAINT
tors           1           2           3           4     +84.512
tors           3           4           5           6    -109.650
tors           4           5           6           7    -180.000
tors           5           6           7           8    -132.117
tors           6           7           8           9    -142.105
tors           7           8           9          10    -106.508
tors           8           9          10          11    -177.130
tors           9          10          11          12    +112.402
tors          11          12          13          14    -180.000
ENDCONSTRAINT
$end

$rem
JOBTYPE                   OPT
METHOD                    B3LYP
DFT_D                     d3_op
BASIS                     STO-3G
GEOM_OPT_MAX_CYCLES       100
GEOM_OPT_TOL_GRADIENT     300
GEOM_OPT_TOL_DISPLACEMENT 1200
GEOM_OPT_TOL_ENERGY       100
SYMMETRY                  False
THRESH                    12
SCF_CONVERGENCE           8
MAX_SUB_FILE_NUM          128
MEM_STATIC                400
MEM_TOTAL                 4000
$end
--------------------------------------------------------------

   15   -1510.1241755745      6.97E-09 Convergence criterion met
 Total energy in the final basis set = -1510.12417557
   14   -1510.1976751437      6.89E-09 Convergence criterion met
 Total energy in the final basis set = -1510.19767514
   15   -1510.2384938747      1.17E-09 Convergence criterion met
 Total energy in the final basis set = -1510.23849387
   14   -1510.2572080411      9.75E-09 Convergence criterion met
 Total energy in the final basis set = -1510.25720804
   14   -1510.2656482193      7.28E-09 Convergence criterion met
 Total energy in the final basis set = -1510.26564822
   13   -1510.2695793580      7.60E-09 Convergence criterion met
 Total energy in the final basis set = -1510.26957936
   13   -1510.2718266618      2.73E-09 Convergence criterion met
 Total energy in the final basis set = -1510.27182666
   13   -1510.2732418478      4.45E-09 Convergence criterion met
   11   -1510.2766944633      9.70E-09 Convergence criterion met
 Total energy in the final basis set = -1510.27669446
   11   -1510.2767356278      5.41E-09 Convergence criterion met
 Total energy in the final basis set = -1510.27673563
   11   -1510.2767597739      2.46E-09 Convergence criterion met
 Total energy in the final basis set = -1510.27675977
   11   -1510.2767751281      3.28E-09 Convergence criterion met
 Total energy in the final basis set = -1510.27677513
   11   -1510.2767820924      2.00E-09 Convergence criterion met
 Total energy in the final basis set = -1510.27678209
   10   -1510.2767836929      6.91E-09 Convergence criterion met
 Total energy in the final basis set = -1510.27678369

             Standard Nuclear Orientation (Angstroms)
    I     Atom           X                Y                Z
 ----------------------------------------------------------------
    1      O       2.9923871708    -2.2172041351     0.0388984471
    2      C       3.9795188412    -1.5400956347     0.4039150264
    3      C       4.8751519743    -0.6340123978    -0.5153593190
    4      C       4.2519817079     0.8197469842    -0.7089673304
    5      C       2.9093739596     1.0165655850     0.0695665134
    6      O       1.8485498408     1.0849690136    -0.8931480771
    7      C       0.5403478344     1.2720946092    -0.2187595984
    8      C      -0.4901027839     0.2428499593    -0.8161915929
    9      O      -1.8252003217     0.8723010703    -0.9346929102
   10      C      -2.7135078526     0.3611349153     0.0756616161
   11      C      -4.1229175848     1.0160543708    -0.1589408173
   12      C      -5.2695647239     0.0278974205    -0.6326069545
   13      C      -4.8654079579    -1.3875798478    -1.1767915372
   14      O      -5.6618315075    -2.2627802144    -1.5819307075
   15      O       4.4380818815    -1.4579738984     1.7534090074
   16      O      -3.4455472239    -1.5116012021    -1.2695367558
   17      O      -2.3555611323    -0.3725564839     1.0211369907
   18      C      -3.0705387910    -2.8410504552    -1.8007412446
   19      C      -4.7108835286     1.4601507074     1.2510737987
   20      C      -5.9918628539     2.3600850988     1.0307995063
   21      C      -7.0759663065     1.2738792943     0.6811131159
   22      C      -6.1913185593    -0.0322794912     0.6658945875
   23      O      -5.2498018026     0.1871493536     1.7853184025
   24      H      -4.0045854931     1.8577130196    -0.8630375981
   25      H      -5.8371497437     0.5033753804    -1.4547671587
   26      H      -3.9562018834     1.8773556502     1.9454783914
   27      H      -6.2446798344     2.9064202004     1.9530813052
   28      H      -5.8455074112     3.0890149601     0.2176586521
   29      H      -7.8449290583     1.2055649351     1.4674506599
   30      H      -7.5725720876     1.4571702668    -0.2849783721
   31      H      -6.7425234598    -0.9844623219     0.7927348525
   32      O       2.7421097823     1.0865001247     1.3073600100
   33      C       3.5336989975    -2.2246546906     2.6414670256
   34      C       6.2818275698    -0.2698959737     0.1191490599
   35      C       7.2022409507     0.3266496869    -1.0188075274
   36      C       6.5834841835     1.7634998293    -1.1918259833
   37      C       5.4203107065     1.7227748278    -0.1236809840
   38      O       5.9819342382     0.9033811948     0.9724641917
   39      H       4.9778952698    -1.1403386865    -1.4917726653
   40      H       4.0617477529     1.0300356166    -1.7759395346
   41      H       3.4656116807    -3.2890635918     2.3367536405
   42      H       6.7364095162    -1.0797884868     0.7207998883
   43      H       8.2488466927     0.3762066362    -0.6787757900
   44      H       7.1595133542    -0.2695244266    -1.9444243086
   45      H       7.3114439843     2.5504881319    -0.9382129583
   46      H       6.2060945091     1.9462964532    -2.2107029469
   47      H       5.0910144809     2.7080059594     0.2593969086
   48      H       2.5127235752    -1.7912433292     2.6466929884
   49      H       3.9704617932    -2.1532482549     3.6543049068
   50      H      -1.9674329635    -2.8376988565    -1.8738078345
   51      H      -3.5131344929    -3.0166329337    -2.8024196399
   52      H      -3.3956502852    -3.6550568030    -1.1212547578
   53      H      -0.1663792779    -0.0367823911    -1.8410062067
   54      H      -0.5555459850    -0.6629230373    -0.1779124049
   55      H       0.1807357938     2.3037622822    -0.4266726946
   56      H       0.6759146089     1.1485304056     0.8769961677
 ----------------------------------------------------------------

    9   -1510.2767836696      2.73E-09 Convergence criterion met
 Total energy in the final basis set = -1510.27678367
 Final energy is   -1510.27678366958
 **  OPTIMIZATION CONVERGED  **

                    Orbital Energies (a.u.)
 --------------------------------------------------------------

 Alpha MOs
 -- Occupied --
-18.943 -18.934 -18.933 -18.923 -18.888 -18.887 -18.877 -18.875
-18.869 -18.865 -10.103 -10.099 -10.096 -10.095 -10.068 -10.064
-10.062 -10.060 -10.060 -10.059 -10.059 -10.059 -10.039 -10.038
-10.037 -10.036 -10.021 -10.020 -10.020 -10.019  -1.017  -1.013
 -1.007  -1.001  -0.970  -0.969  -0.939  -0.937  -0.932  -0.928
 -0.764  -0.762  -0.726  -0.722  -0.711  -0.705  -0.693  -0.665
 -0.657  -0.617  -0.597  -0.578  -0.546  -0.544  -0.537  -0.536
 -0.512  -0.512  -0.483  -0.480  -0.467  -0.459  -0.449  -0.444
 -0.432  -0.431  -0.421  -0.413  -0.411  -0.409  -0.406  -0.395
 -0.391  -0.382  -0.377  -0.368  -0.359  -0.357  -0.350  -0.348
 -0.345  -0.342  -0.332  -0.331  -0.329  -0.326  -0.324  -0.314
 -0.308  -0.306  -0.305  -0.300  -0.295  -0.292  -0.281  -0.277
 -0.272  -0.252  -0.247  -0.244  -0.244  -0.234  -0.233  -0.183
 -0.177  -0.173  -0.164  -0.158  -0.156  -0.148  -0.148  -0.142
 -0.142

          Ground-State Mulliken Net Atomic Charges

     Atom                 Charge (a.u.)
  ----------------------------------------
      1 O                    -0.218773
      2 C                     0.205320
      3 C                    -0.078293
      4 C                    -0.078795
      5 C                     0.206002
      6 O                    -0.172729
      7 C                    -0.057838
      8 C                    -0.053800
      9 O                    -0.176521
     10 C                     0.219424
     11 C                    -0.079526
     12 C                    -0.079289
     13 C                     0.210824
     14 O                    -0.214753
     15 O                    -0.161532
     16 O                    -0.166745
     17 O                    -0.216338
     18 C                    -0.125726
     19 C                     0.026101
     20 C                    -0.145316
     21 C                    -0.142495
     22 C                     0.025631
     23 O                    -0.185388
     24 H                     0.085486
     25 H                     0.085368
     26 H                     0.084052
     27 H                     0.078402
     28 H                     0.073359
     29 H                     0.078548
     30 H                     0.073844
     31 H                     0.087262
     32 O                    -0.210267
     33 C                    -0.126830
     34 C                     0.026287
     35 C                    -0.144350
     36 C                    -0.143822
     37 C                     0.026112
     38 O                    -0.183242
     39 H                     0.084272
     40 H                     0.086563
     41 H                     0.087866
     42 H                     0.087987
     43 H                     0.077957
     44 H                     0.072953
     45 H                     0.077999
     46 H                     0.073294
     47 H                     0.084195
     48 H                     0.092276
     49 H                     0.092462
     50 H                     0.093894
     51 H                     0.091465
     52 H                     0.092779
     53 H                     0.088847
     54 H                     0.100170
     55 H                     0.084328
     56 H                     0.101039
  ----------------------------------------
  Sum of atomic charges =    -0.000000

                    Cartesian Multipole Moments
 -----------------------------------------------------------------
    Charge (ESU x 10^10)
                -0.0000
    Dipole Moment (Debye)
         X       0.6481      Y       1.2763      Z      -2.6355
       Tot       2.9991
    Quadrupole Moments (Debye-Ang)
        XX    -149.7062     XY     -12.4975     YY    -153.9596
        XZ      -6.3287     YZ      -2.5612     ZZ    -162.2917

 Total job time:  57.56s(wall), 2735.31s(cpu)
        *  Thank you very much for using Q-Chem.  Have a nice day.  *
