 Q-Chem 5.0, Q-Chem, Inc., Pleasanton, CA (2017)
 Q-Chem 5.0.1 for Intel X86 EM64T Linux

User input:
--------------------------------------------------------------
$molecule
0  1
O 2.9923871708 -2.2172041351 0.0388984471
C 3.9795188412 -1.5400956347 0.4039150264
C 4.8751519743 -0.6340123978 -0.515359319
C 4.2519817079 0.8197469842 -0.7089673304
C 2.9093739596 1.016565585 0.0695665134
O 1.8485498408 1.0849690136 -0.8931480771
C 0.5403478344 1.2720946092 -0.2187595984
C -0.4901027839 0.2428499593 -0.8161915929
O -1.8252003217 0.8723010703 -0.9346929102
C -2.7135078526 0.3611349153 0.0756616161
C -4.1229175848 1.0160543708 -0.1589408173
C -5.2695647239 0.0278974205 -0.6326069545
C -4.8654079579 -1.3875798478 -1.1767915372
O -5.6618315075 -2.2627802144 -1.5819307075
O 4.4380818815 -1.4579738984 1.7534090074
O -3.4455472239 -1.5116012021 -1.2695367558
O -2.3555611323 -0.3725564839 1.0211369907
C -3.070538791 -2.8410504552 -1.8007412446
C -4.7108835286 1.4601507074 1.2510737987
C -5.9918628539 2.3600850988 1.0307995063
C -7.0759663065 1.2738792943 0.6811131159
C -6.1913185593 -0.0322794912 0.6658945875
O -5.2498018026 0.1871493536 1.7853184025
H -4.0045854931 1.8577130196 -0.8630375981
H -5.8371497437 0.5033753804 -1.4547671587
H -3.9562018834 1.8773556502 1.9454783914
H -6.2446798344 2.9064202004 1.9530813052
H -5.8455074112 3.0890149601 0.2176586521
H -7.8449290583 1.2055649351 1.4674506599
H -7.5725720876 1.4571702668 -0.2849783721
H -6.7425234598 -0.9844623219 0.7927348525
O 2.7421097823 1.0865001247 1.30736001
C 3.5336989975 -2.2246546906 2.6414670256
C 6.2818275698 -0.2698959737 0.1191490599
C 7.2022409507 0.3266496869 -1.0188075274
C 6.5834841835 1.7634998293 -1.1918259833
C 5.4203107065 1.7227748278 -0.123680984
O 5.9819342382 0.9033811948 0.9724641917
H 4.9778952698 -1.1403386865 -1.4917726653
H 4.0617477529 1.0300356166 -1.7759395346
H 3.4656116807 -3.2890635918 2.3367536405
H 6.7364095162 -1.0797884868 0.7207998883
H 8.2488466927 0.3762066362 -0.67877579
H 7.1595133542 -0.2695244266 -1.9444243086
H 7.3114439843 2.5504881319 -0.9382129583
H 6.2060945091 1.9462964532 -2.2107029469
H 5.0910144809 2.7080059594 0.2593969086
H 2.5127235752 -1.7912433292 2.6466929884
H 3.9704617932 -2.1532482549 3.6543049068
H -1.9674329635 -2.8376988565 -1.8738078345
H -3.5131344929 -3.0166329337 -2.8024196399
H -3.3956502852 -3.655056803 -1.1212547578
H -0.1663792779 -0.0367823911 -1.8410062067
H -0.555545985 -0.6629230373 -0.1779124049
H 0.1807357938 2.3037622822 -0.4266726946
H 0.6759146089 1.1485304056 0.8769961677
$end

$rem
JOBTYPE                   OPT
METHOD                    B3LYP
DFT_D                     d3_op
BASIS                     STO-3G
GEOM_OPT_MAX_CYCLES       100
GEOM_OPT_TOL_GRADIENT     300
GEOM_OPT_TOL_DISPLACEMENT 1200
GEOM_OPT_TOL_ENERGY       100
SYMMETRY                  False
THRESH                    12
SCF_CONVERGENCE           8
MAX_SUB_FILE_NUM          128
MEM_STATIC                400
MEM_TOTAL                 4000
$end
--------------------------------------------------------------

   16   -1510.2764210783      5.69E-09 Convergence criterion met
 Total energy in the final basis set = -1510.27642108
   14   -1510.2776689439      3.66E-09 Convergence criterion met
 Total energy in the final basis set = -1510.27766894
   14   -1510.2787479063      2.95E-09 Convergence criterion met
 Total energy in the final basis set = -1510.27874791
   14   -1510.2796592151      4.03E-09 Convergence criterion met
 Total energy in the final basis set = -1510.27965922
   14   -1510.2809200290      3.47E-09 Convergence criterion met
 Total energy in the final basis set = -1510.28092003
   14   -1510.2715063581      9.46E-09 Convergence criterion met
 Total energy in the final basis set = -1510.27150636
   14   -1510.2822617511      3.78E-09 Convergence criterion met
 Total energy in the final basis set = -1510.28226175
   14   -1510.2836971382      4.22E-09 Convergence criterion met
   12   -1510.2999556367      7.36E-09 Convergence criterion met
 Total energy in the final basis set = -1510.29995564
   11   -1510.2999534196      3.90E-09 Convergence criterion met
 Total energy in the final basis set = -1510.29995342
   11   -1510.2999592805      2.26E-09 Convergence criterion met
 Total energy in the final basis set = -1510.29995928
   11   -1510.2999559080      5.37E-09 Convergence criterion met
 Total energy in the final basis set = -1510.29995591
   11   -1510.2999582272      2.80E-09 Convergence criterion met
 Total energy in the final basis set = -1510.29995823
   10   -1510.2999548265      9.51E-09 Convergence criterion met
 Total energy in the final basis set = -1510.29995483

             Standard Nuclear Orientation (Angstroms)
    I     Atom           X                Y                Z
 ----------------------------------------------------------------
    1      O       1.1252435383    -1.3089185375    -1.0744493032
    2      C       2.0134377004    -1.1639347123    -0.1949052402
    3      C       3.5059453997    -0.7541941333    -0.4864165165
    4      C       3.6469083690     0.7727239411    -0.9247775929
    5      C       2.2719795738     1.5145679732    -0.9992561314
    6      O       1.8822381685     1.5820977416    -2.3810775754
    7      C       0.4786433612     2.0483590587    -2.4896924825
    8      C      -0.4561072773     0.7880815850    -2.6739309854
    9      O      -1.8249608610     1.0196071871    -2.1470901671
   10      C      -1.8526173579     0.7667913912    -0.7409256527
   11      C      -3.3220194697     0.8906327489    -0.2164059853
   12      C      -3.9342467828    -0.5031374760     0.2408846867
   13      C      -2.9443538110    -1.7098646946     0.0600568574
   14      O      -2.6035867886    -2.5473205542     0.9233340893
   15      O       1.8187681138    -1.3402510748     1.1931657998
   16      O      -2.4909578873    -1.7005761133    -1.2934581563
   17      O      -0.8280037517     0.5192528710    -0.0642947068
   18      C      -1.4443287796    -2.7311687691    -1.5114356741
   19      C      -3.3723151680     1.6913300877     1.1562714378
   20      C      -4.8725141819     2.0926149597     1.4448606376
   21      C      -5.4772500657     0.7099252299     1.8937131874
   22      C      -4.2132973820    -0.2279695541     1.7737608599
   23      O      -3.0865315696     0.6504736191     2.1687735277
   24      H      -3.9363077264     1.3625876626    -1.0026945976
   25      H      -4.8637799500    -0.7222388147    -0.3162919533
   26      H      -2.6370709268     2.5157608331     1.2316109746
   27      H      -4.9215482629     2.8375095823     2.2550243463
   28      H      -5.3701764067     2.5066884955     0.5533110360
   29      H      -5.8357100340     0.7448799376     2.9348424500
   30      H      -6.3037658268     0.3768015711     1.2457285530
   31      H      -4.2247869667    -1.1440881712     2.3957120154
   32      O       1.5991843664     1.9800179318    -0.0541780390
   33      C       0.3866542657    -1.5862797799     1.5127507260
   34      C       4.4259231428    -0.7751854756     0.8031024329
   35      C       5.9355784864    -0.6808206901     0.3441500963
   36      C       6.0478314437     0.8415210093    -0.0362844589
   37      C       4.5722694523     1.3303737191     0.2390256788
   38      O       4.1627522354     0.5437966714     1.4239834837
   39      H       3.8878230334    -1.4185361772    -1.2830703507
   40      H       4.1330786535     0.8498070945    -1.9130772260
   41      H       0.0629609872    -2.5880405524     1.1658424715
   42      H       4.1948962053    -1.5909496672     1.5138110181
   43      H       6.6076601050    -0.9403734063     1.1774044324
   44      H       6.1531627819    -1.3486594100    -0.5047529442
   45      H       6.7561716997     1.3705201771     0.6209180724
   46      H       6.3515793106     0.9992726132    -1.0835458743
   47      H       4.4561461952     2.4136496092     0.4359543170
   48      H      -0.2513354149    -0.7980449333     1.0470953197
   49      H       0.3180654294    -1.5406562201     2.6142352601
   50      H      -0.4403936425    -2.2914376580    -1.2938475612
   51      H      -1.5071536856    -3.0229258332    -2.5757477125
   52      H      -1.6213720961    -3.6115717303    -0.8634184953
   53      H      -0.5865379191     0.5498336912    -3.7474499821
   54      H       0.0326865803    -0.0690159904    -2.1503905944
   55      H       0.4190195733     2.7334928763    -3.3582032204
   56      H       0.2045625988     2.5863811107    -1.5562825429
 ----------------------------------------------------------------

    9   -1510.2999558837      6.00E-09 Convergence criterion met
 Total energy in the final basis set = -1510.29995588
 Final energy is   -1510.29995588374
 **  OPTIMIZATION CONVERGED  **

                    Orbital Energies (a.u.)
 --------------------------------------------------------------

 Alpha MOs
 -- Occupied --
-18.939 -18.932 -18.928 -18.927 -18.885 -18.885 -18.876 -18.876
-18.874 -18.872 -10.105 -10.100 -10.096 -10.096 -10.062 -10.058
-10.057 -10.056 -10.056 -10.055 -10.039 -10.038 -10.037 -10.036
-10.036 -10.035 -10.019 -10.019 -10.018 -10.018  -1.015  -1.010
 -1.006  -1.003  -0.968  -0.966  -0.936  -0.936  -0.932  -0.931
 -0.762  -0.761  -0.724  -0.721  -0.709  -0.703  -0.690  -0.652
 -0.648  -0.615  -0.594  -0.577  -0.544  -0.543  -0.535  -0.534
 -0.510  -0.505  -0.477  -0.473  -0.461  -0.458  -0.450  -0.443
 -0.434  -0.430  -0.426  -0.422  -0.410  -0.404  -0.398  -0.392
 -0.382  -0.374  -0.370  -0.362  -0.358  -0.355  -0.352  -0.348
 -0.343  -0.337  -0.330  -0.328  -0.327  -0.322  -0.316  -0.309
 -0.307  -0.304  -0.302  -0.297  -0.286  -0.284  -0.283  -0.275
 -0.269  -0.259  -0.246  -0.241  -0.238  -0.232  -0.230  -0.186
 -0.175  -0.171  -0.160  -0.159  -0.154  -0.149  -0.148  -0.142
 -0.140

          Ground-State Mulliken Net Atomic Charges

     Atom                 Charge (a.u.)
  ----------------------------------------
      1 O                    -0.226282
      2 C                     0.221155
      3 C                    -0.076877
      4 C                    -0.078865
      5 C                     0.206943
      6 O                    -0.173965
      7 C                    -0.057413
      8 C                    -0.061328
      9 O                    -0.168139
     10 C                     0.218686
     11 C                    -0.079031
     12 C                    -0.078227
     13 C                     0.210006
     14 O                    -0.214575
     15 O                    -0.158857
     16 O                    -0.174122
     17 O                    -0.216755
     18 C                    -0.150131
     19 C                     0.025440
     20 C                    -0.143907
     21 C                    -0.143993
     22 C                     0.023472
     23 O                    -0.187229
     24 H                     0.086484
     25 H                     0.084943
     26 H                     0.085456
     27 H                     0.078289
     28 H                     0.073198
     29 H                     0.078151
     30 H                     0.072814
     31 H                     0.090127
     32 O                    -0.202591
     33 C                    -0.143706
     34 C                     0.025364
     35 C                    -0.144705
     36 C                    -0.143813
     37 C                     0.025773
     38 O                    -0.184004
     39 H                     0.083993
     40 H                     0.085922
     41 H                     0.083352
     42 H                     0.090968
     43 H                     0.077883
     44 H                     0.072284
     45 H                     0.077930
     46 H                     0.072861
     47 H                     0.085191
     48 H                     0.121091
     49 H                     0.090422
     50 H                     0.111075
     51 H                     0.081713
     52 H                     0.086911
     53 H                     0.084793
     54 H                     0.112847
     55 H                     0.083932
     56 H                     0.099045
  ----------------------------------------
  Sum of atomic charges =    -0.000000

                    Cartesian Multipole Moments
 -----------------------------------------------------------------
    Charge (ESU x 10^10)
                 0.0000
    Dipole Moment (Debye)
         X      -0.1004      Y       0.1232      Z      -2.5046
       Tot       2.5096
    Quadrupole Moments (Debye-Ang)
        XX    -136.3234     XY      -5.6870     YY    -155.6399
        XZ      -5.0784     YZ      -1.2004     ZZ    -164.0576

 Total job time:  139.78s(wall), 6662.05s(cpu)
        *  Thank you very much for using Q-Chem.  Have a nice day.  *
