 Q-Chem 5.0, Q-Chem, Inc., Pleasanton, CA (2017)
 Q-Chem 5.0.1 for Intel X86 EM64T Linux

User input:
--------------------------------------------------------------
$molecule
0  1
O -3.94934 -3.66094 2.70899
C -3.26408 -4.56952 2.26188
C -3.36658 -6.02376 2.66595
C -4.11615 -6.33931 3.97072
C -4.83239 -5.18353 4.63347
O -5.12765 -5.5018 5.92844
C -5.80921 -4.45303 6.62473
C -5.68727 -3.14356 5.85237
O -6.10363 -2.04635 6.68043
C -7.43501 -1.78833 6.6805
C -7.79816 -0.57005 7.49573
C -7.57393 0.7736 6.7868
C -7.37054 0.70338 5.28666
O -7.17856 1.66133 4.55179
O -2.44338 -4.30879 1.21074
O -7.46865 -0.47451 4.61339
O -8.27523 -2.56192 6.23257
C -7.31611 -0.64464 3.25064
C -9.31228 -0.44051 7.80095
C -9.51255 0.4217 9.04715
C -9.12284 1.78512 8.51348
C -8.92869 1.45122 7.03002
O -9.82404 0.39346 6.79023
H -7.27372 -0.65891 8.47436
H -6.69688 1.31386 7.20516
H -9.82513 -1.4177 7.93573
H -10.60604 0.42399 9.25983
H -8.96759 0.09577 9.95903
H -9.97948 2.479 8.66318
H -8.19655 2.21865 8.94937
H -9.06711 2.35905 6.40188
O -5.72454 -4.7689 3.89843
C -2.26542 -3.05904 0.6552
C -4.16148 -6.8816 1.66558
C -3.74292 -8.34626 1.79233
C -4.37749 -8.7104 3.12078
C -5.1063 -7.40354 3.45096
O -5.4696 -6.89844 2.18635
H -2.31513 -6.38501 2.73597
H -3.40916 -6.75098 4.72724
H -1.86134 -2.35674 1.41542
H -4.05506 -6.53686 0.6138
H -4.26322 -8.91136 0.98609
H -2.6491 -8.52924 1.72162
H -5.11464 -9.52545 2.94585
H -3.66689 -9.00755 3.9221
H -5.9386 -7.58785 4.16522
H -3.23056 -2.6733 0.2626
H -1.54283 -3.13311 -0.18316
H -7.45404 -1.71648 3.00044
H -6.29608 -0.33407 2.93887
H -8.07721 -0.04975 2.70223
H -4.60758 -2.94709 5.66138
H -6.23642 -2.99022 4.90448
H -5.2905 -4.31619 7.59773
H -6.86403 -4.73423 6.82467
$end

$opt
CONSTRAINT
tors           1           2           3           4     -16.510
tors           3           4           5           6    -163.305
tors           4           5           6           7    -180.000
tors           5           6           7           8     -15.146
tors           6           7           8           9    -167.215
tors           7           8           9          10     -85.833
tors           8           9          10          11    -176.198
tors           9          10          11          12     +80.272
tors          11          12          13          14    -180.000
ENDCONSTRAINT
$end

$rem
JOBTYPE                   OPT
METHOD                    B3LYP
DFT_D                     d3_op
BASIS                     STO-3G
GEOM_OPT_MAX_CYCLES       100
GEOM_OPT_TOL_GRADIENT     300
GEOM_OPT_TOL_DISPLACEMENT 1200
GEOM_OPT_TOL_ENERGY       100
SYMMETRY                  False
THRESH                    12
SCF_CONVERGENCE           8
MAX_SUB_FILE_NUM          128
MEM_STATIC                400
MEM_TOTAL                 4000
$end
--------------------------------------------------------------

   16   -1510.0861590906      4.27E-09 Convergence criterion met
 Total energy in the final basis set = -1510.08615909
   15   -1510.1670179363      2.86E-09 Convergence criterion met
 Total energy in the final basis set = -1510.16701794
   14   -1510.2125167206      3.02E-09 Convergence criterion met
 Total energy in the final basis set = -1510.21251672
   15   -1510.2399085296      2.72E-09 Convergence criterion met
 Total energy in the final basis set = -1510.23990853
   13   -1510.2530096059      9.57E-09 Convergence criterion met
 Total energy in the final basis set = -1510.25300961
   13   -1510.2592277330      7.36E-09 Convergence criterion met
 Total energy in the final basis set = -1510.25922773
   13   -1510.2626119629      5.94E-09 Convergence criterion met
 Total energy in the final basis set = -1510.26261196
   13   -1510.2643543163      3.66E-09 Convergence criterion met
   11   -1510.2658610956      6.05E-09 Convergence criterion met
 Total energy in the final basis set = -1510.26586110
   11   -1510.2658713593      3.78E-09 Convergence criterion met
 Total energy in the final basis set = -1510.26587136
   10   -1510.2658785727      9.11E-09 Convergence criterion met
 Total energy in the final basis set = -1510.26587857
    9   -1510.2658832251      4.05E-09 Convergence criterion met
 Total energy in the final basis set = -1510.26588323
    9   -1510.2658860005      7.34E-09 Convergence criterion met
 Total energy in the final basis set = -1510.26588600
    9   -1510.2658872061      7.71E-09 Convergence criterion met
 Total energy in the final basis set = -1510.26588721

             Standard Nuclear Orientation (Angstroms)
    I     Atom           X                Y                Z
 ----------------------------------------------------------------
    1      O       3.3611870036    -2.2099809821    -0.8339129195
    2      C       4.4940074312    -1.6965730889    -0.7361829046
    3      C       4.9469883290    -0.2195305495    -0.4632947891
    4      C       3.9052588489     0.9536761151    -0.6490624045
    5      C       2.3817064071     0.5766186236    -0.5169545678
    6      O       1.6731747134     1.6736676570    -1.1059827838
    7      C       0.1876245862     1.5808994044    -1.1176937020
    8      C      -0.5128197056     0.1948227228    -0.8391615184
    9      O      -1.9469333936     0.3024178630    -1.2104533041
   10      C      -2.7047474302     0.8314554948    -0.1099163483
   11      C      -4.2192035809     0.8278081206    -0.5301032555
   12      C      -4.9874219978    -0.5569868984    -0.4108769968
   13      C      -4.2365057120    -1.7852829991     0.2218437523
   14      O      -4.7263498985    -2.9263454334     0.3727573307
   15      O       5.7102207574    -2.4604189682    -0.8344243628
   16      O      -2.9302265912    -1.4245494514     0.6641128012
   17      O      -2.2038723815     1.3164592683     0.9266373841
   18      C      -2.2475083757    -2.5790335074     1.2898441595
   19      C      -5.0879536641     1.7392659302     0.4372512757
   20      C      -6.4201380454     2.1316003200    -0.3125556506
   21      C      -7.2013484657     0.7660251229    -0.2675826455
   22      C      -6.1919273796    -0.1388165056     0.5438135194
   23      O      -5.5490200266     0.8022539658     1.4876974013
   24      H      -4.2694154314     1.1871484171    -1.5740532168
   25      H      -5.3648001612    -0.8818908080    -1.3978309942
   26      H      -4.5241599745     2.5771912866     0.8911128329
   27      H      -6.9552873990     2.9208331812     0.2392613954
   28      H      -6.2341575717     2.4830957042    -1.3399935459
   29      H      -8.1544374958     0.8616686017     0.2764663835
   30      H      -7.4060900695     0.3591600535    -1.2706624671
   31      H      -6.6505423878    -0.9889686855     1.0858871357
   32      O       1.8773463796    -0.3683625304     0.1206571054
   33      C       5.3923772161    -3.8920932548    -1.0351354492
   34      C       5.4661459980     0.0498701270     1.0250430818
   35      C       6.5844081475     1.1574792090     0.9240905964
   36      C       5.7143484606     2.4098623774     0.5327438157
   37      C       4.2506476255     1.8210434682     0.6440070596
   38      O       4.3555724787     0.7707473295     1.6845696257
   39      H       5.7904250806    -0.0507049967    -1.1574951981
   40      H       4.0657100258     1.5100352774    -1.5889266299
   41      H       4.8443824039    -4.0618781597    -1.9847260745
   42      H       5.7404135460    -0.8587915423     1.5949079526
   43      H       7.0718205407     1.2975635923     1.9024430376
   44      H       7.3537977173     0.9142993136     0.1743371894
   45      H       5.8519935539     3.2409619607     1.2420472778
   46      H       5.9311523246     2.7740852494    -0.4844127594
   47      H       3.4685187150     2.5577461354     0.9121439092
   48      H       4.7817212847    -4.2976788046    -0.2026847829
   49      H       6.3638658847    -4.4186003334    -1.0716944380
   50      H      -1.2381388125    -2.2211408382     1.5648091913
   51      H      -2.1633973656    -3.4307106491     0.5846868186
   52      H      -2.7837687267    -2.9206132819     2.1986012301
   53      H      -0.0939293068    -0.6004442352    -1.4871312120
   54      H      -0.4015853591    -0.0923605393     0.2240807663
   55      H      -0.1223688435     1.9313123160    -2.1258917531
   56      H      -0.1995946753     2.3088295481    -0.3700693287
 ----------------------------------------------------------------

    9   -1510.2658877073      2.14E-09 Convergence criterion met
 Total energy in the final basis set = -1510.26588771
 Final energy is   -1510.26588770727
 **  OPTIMIZATION CONVERGED  **

                    Orbital Energies (a.u.)
 --------------------------------------------------------------

 Alpha MOs
 -- Occupied --
-18.940 -18.927 -18.926 -18.920 -18.889 -18.885 -18.877 -18.875
-18.871 -18.863 -10.100 -10.098 -10.097 -10.095 -10.066 -10.064
-10.062 -10.062 -10.061 -10.060 -10.058 -10.055 -10.038 -10.037
-10.036 -10.033 -10.022 -10.020 -10.019 -10.017  -1.014  -1.009
 -1.004  -0.999  -0.972  -0.968  -0.936  -0.935  -0.930  -0.927
 -0.763  -0.760  -0.725  -0.721  -0.712  -0.704  -0.691  -0.661
 -0.660  -0.618  -0.596  -0.581  -0.544  -0.541  -0.538  -0.535
 -0.514  -0.508  -0.481  -0.466  -0.462  -0.456  -0.446  -0.443
 -0.435  -0.433  -0.423  -0.411  -0.410  -0.408  -0.408  -0.392
 -0.383  -0.377  -0.373  -0.370  -0.360  -0.354  -0.352  -0.344
 -0.338  -0.338  -0.332  -0.330  -0.329  -0.321  -0.318  -0.314
 -0.309  -0.305  -0.304  -0.301  -0.296  -0.292  -0.290  -0.271
 -0.268  -0.261  -0.251  -0.239  -0.235  -0.233  -0.232  -0.181
 -0.175  -0.173  -0.167  -0.157  -0.152  -0.145  -0.143  -0.142
 -0.133

          Ground-State Mulliken Net Atomic Charges

     Atom                 Charge (a.u.)
  ----------------------------------------
      1 O                    -0.203008
      2 C                     0.207325
      3 C                    -0.080821
      4 C                    -0.077555
      5 C                     0.212487
      6 O                    -0.177147
      7 C                    -0.055353
      8 C                    -0.049705
      9 O                    -0.178334
     10 C                     0.220243
     11 C                    -0.080986
     12 C                    -0.077607
     13 C                     0.211847
     14 O                    -0.216336
     15 O                    -0.175746
     16 O                    -0.165754
     17 O                    -0.219197
     18 C                    -0.125246
     19 C                     0.024797
     20 C                    -0.143967
     21 C                    -0.144169
     22 C                     0.024931
     23 O                    -0.189270
     24 H                     0.083047
     25 H                     0.085614
     26 H                     0.088129
     27 H                     0.077752
     28 H                     0.072589
     29 H                     0.078199
     30 H                     0.073552
     31 H                     0.085916
     32 O                    -0.199569
     33 C                    -0.129412
     34 C                     0.027092
     35 C                    -0.141645
     36 C                    -0.145282
     37 C                     0.025168
     38 O                    -0.187948
     39 H                     0.085075
     40 H                     0.085726
     41 H                     0.087135
     42 H                     0.085778
     43 H                     0.078220
     44 H                     0.074789
     45 H                     0.078802
     46 H                     0.074089
     47 H                     0.085069
     48 H                     0.088918
     49 H                     0.088763
     50 H                     0.097899
     51 H                     0.091798
     52 H                     0.092031
     53 H                     0.091263
     54 H                     0.106831
     55 H                     0.084901
     56 H                     0.088284
  ----------------------------------------
  Sum of atomic charges =    -0.000000

                    Cartesian Multipole Moments
 -----------------------------------------------------------------
    Charge (ESU x 10^10)
                -0.0000
    Dipole Moment (Debye)
         X       1.8899      Y       0.8996      Z      -2.7817
       Tot       3.4813
    Quadrupole Moments (Debye-Ang)
        XX    -138.6868     XY      -6.7332     YY    -154.4936
        XZ       4.3974     YZ      -3.3136     ZZ    -162.1031

 Total job time:  60.06s(wall), 2857.98s(cpu)
        *  Thank you very much for using Q-Chem.  Have a nice day.  *
