 Q-Chem 5.0, Q-Chem, Inc., Pleasanton, CA (2017)
 Q-Chem 5.0.1 for Intel X86 EM64T Linux

User input:
--------------------------------------------------------------
$molecule
0  1
O 3.3611870036 -2.2099809821 -0.8339129195
C 4.4940074312 -1.6965730889 -0.7361829046
C 4.946988329 -0.2195305495 -0.4632947891
C 3.9052588489 0.9536761151 -0.6490624045
C 2.3817064071 0.5766186236 -0.5169545678
O 1.6731747134 1.673667657 -1.1059827838
C 0.1876245862 1.5808994044 -1.117693702
C -0.5128197056 0.1948227228 -0.8391615184
O -1.9469333936 0.302417863 -1.2104533041
C -2.7047474302 0.8314554948 -0.1099163483
C -4.2192035809 0.8278081206 -0.5301032555
C -4.9874219978 -0.5569868984 -0.4108769968
C -4.236505712 -1.7852829991 0.2218437523
O -4.7263498985 -2.9263454334 0.3727573307
O 5.7102207574 -2.4604189682 -0.8344243628
O -2.9302265912 -1.4245494514 0.6641128012
O -2.2038723815 1.3164592683 0.9266373841
C -2.2475083757 -2.5790335074 1.2898441595
C -5.0879536641 1.7392659302 0.4372512757
C -6.4201380454 2.13160032 -0.3125556506
C -7.2013484657 0.7660251229 -0.2675826455
C -6.1919273796 -0.1388165056 0.5438135194
O -5.5490200266 0.8022539658 1.4876974013
H -4.2694154314 1.1871484171 -1.5740532168
H -5.3648001612 -0.881890808 -1.3978309942
H -4.5241599745 2.5771912866 0.8911128329
H -6.955287399 2.9208331812 0.2392613954
H -6.2341575717 2.4830957042 -1.3399935459
H -8.1544374958 0.8616686017 0.2764663835
H -7.4060900695 0.3591600535 -1.2706624671
H -6.6505423878 -0.9889686855 1.0858871357
O 1.8773463796 -0.3683625304 0.1206571054
C 5.3923772161 -3.8920932548 -1.0351354492
C 5.466145998 0.049870127 1.0250430818
C 6.5844081475 1.157479209 0.9240905964
C 5.7143484606 2.4098623774 0.5327438157
C 4.2506476255 1.8210434682 0.6440070596
O 4.3555724787 0.7707473295 1.6845696257
H 5.7904250806 -0.0507049967 -1.1574951981
H 4.0657100258 1.5100352774 -1.5889266299
H 4.8443824039 -4.0618781597 -1.9847260745
H 5.740413546 -0.8587915423 1.5949079526
H 7.0718205407 1.2975635923 1.9024430376
H 7.3537977173 0.9142993136 0.1743371894
H 5.8519935539 3.2409619607 1.2420472778
H 5.9311523246 2.7740852494 -0.4844127594
H 3.468518715 2.5577461354 0.9121439092
H 4.7817212847 -4.2976788046 -0.2026847829
H 6.3638658847 -4.4186003334 -1.071694438
H -1.2381388125 -2.2211408382 1.5648091913
H -2.1633973656 -3.4307106491 0.5846868186
H -2.7837687267 -2.9206132819 2.1986012301
H -0.0939293068 -0.6004442352 -1.487131212
H -0.4015853591 -0.0923605393 0.2240807663
H -0.1223688435 1.931312316 -2.1258917531
H -0.1995946753 2.3088295481 -0.3700693287
$end

$rem
JOBTYPE                   OPT
METHOD                    B3LYP
DFT_D                     d3_op
BASIS                     STO-3G
GEOM_OPT_MAX_CYCLES       100
GEOM_OPT_TOL_GRADIENT     300
GEOM_OPT_TOL_DISPLACEMENT 1200
GEOM_OPT_TOL_ENERGY       100
SYMMETRY                  False
THRESH                    12
SCF_CONVERGENCE           8
MAX_SUB_FILE_NUM          128
MEM_STATIC                400
MEM_TOTAL                 4000
$end
--------------------------------------------------------------

   16   -1510.2658460776      7.01E-09 Convergence criterion met
 Total energy in the final basis set = -1510.26584608
   13   -1510.2676061087      4.92E-09 Convergence criterion met
 Total energy in the final basis set = -1510.26760611
   13   -1510.2695337023      2.81E-09 Convergence criterion met
 Total energy in the final basis set = -1510.26953370
   13   -1510.2716309255      4.28E-09 Convergence criterion met
 Total energy in the final basis set = -1510.27163093
   13   -1510.2739051856      6.64E-09 Convergence criterion met
 Total energy in the final basis set = -1510.27390519
   13   -1510.2760742085      9.39E-09 Convergence criterion met
 Total energy in the final basis set = -1510.27607421
   13   -1510.2781183805      7.00E-09 Convergence criterion met
 Total energy in the final basis set = -1510.27811838
   13   -1510.2799077209      2.83E-09 Convergence criterion met
   11   -1510.3019265751      6.70E-09 Convergence criterion met
 Total energy in the final basis set = -1510.30192658
   11   -1510.3019285685      8.54E-09 Convergence criterion met
 Total energy in the final basis set = -1510.30192857
   10   -1510.3019287757      9.98E-09 Convergence criterion met
 Total energy in the final basis set = -1510.30192878
   11   -1510.3019304748      4.46E-09 Convergence criterion met
 Total energy in the final basis set = -1510.30193047
   10   -1510.3019279629      9.23E-09 Convergence criterion met
 Total energy in the final basis set = -1510.30192796
    9   -1510.3019320365      9.51E-09 Convergence criterion met
 Total energy in the final basis set = -1510.30193204

             Standard Nuclear Orientation (Angstroms)
    I     Atom           X                Y                Z
 ----------------------------------------------------------------
    1      O       1.4373933655    -0.2496300156     0.8762728136
    2      C       2.3814712416    -0.8344170439     0.2900777921
    3      C       3.5862793870    -0.1744414832    -0.4679330108
    4      C       3.6352345062     1.4039865763    -0.3874116955
    5      C       2.4550481116     2.0832294053     0.3959197619
    6      O       1.4223636050     2.3949655731    -0.5540111329
    7      C       0.3211249801     3.1275603114     0.1143095743
    8      C      -0.6778472751     2.1609920169     0.8316254985
    9      O      -1.4548453000     1.4028506251    -0.1802252794
   10      C      -2.8492652672     1.4350358781     0.1533488848
   11      C      -3.6384891157     0.5961447567    -0.9136466054
   12      C      -3.1679515555    -0.9129696177    -1.0369864765
   13      C      -2.0007011632    -1.3071288639    -0.0738323239
   14      O      -0.9882110347    -1.9746151041    -0.3950002725
   15      O       2.5568737886    -2.2391628963     0.2037318008
   16      O      -2.2921968468    -0.8304522530     1.2332281404
   17      O      -3.3359269684     2.0862990978     1.1034518928
   18      C      -1.1724343330    -1.1121933247     2.1669633634
   19      C      -5.1522070582     0.4122951380    -0.4827345112
   20      C      -5.9785007886    -0.0487317541    -1.7458284401
   21      C      -5.5131368624    -1.5462070015    -1.8820088699
   22      C      -4.5184416347    -1.6693591830    -0.6597515365
   23      O      -5.1204320480    -0.7983815125     0.3718009913
   24      H      -3.5499359860     1.1091204653    -1.8891674031
   25      H      -2.8415322862    -1.1554863239    -2.0634371674
   26      H      -5.5632618351     1.2718882191     0.0814158030
   27      H      -7.0597108124     0.0209877013    -1.5464424085
   28      H      -5.7440653543     0.5530749322    -2.6383586880
   29      H      -6.3569000019    -2.2444381760    -1.7626464187
   30      H      -5.0166807359    -1.7533284214    -2.8434683401
   31      H      -4.3771282332    -2.6959515899    -0.2693091512
   32      O       2.4398221228     2.4372303624     1.5943957204
   33      C       1.4442802835    -2.9696951147     0.8622967897
   34      C       4.9674725589    -0.5567661397     0.2213009947
   35      C       6.1415340060    -0.2138268080    -0.7784875404
   36      C       6.1862733163     1.3555760403    -0.6668789085
   37      C       5.0187216807     1.6199491634     0.3629486243
   38      O       5.1013005951     0.4632591584     1.2846226355
   39      H       3.5555078433    -0.5225282921    -1.5166010904
   40      H       3.6509349951     1.8358425641    -1.4035593008
   41      H       0.4575144710    -2.6464112633     0.4452059875
   42      H       4.9869842745    -1.5787401592     0.6472414128
   43      H       7.0834358594    -0.6713294879    -0.4364077118
   44      H       5.9297939399    -0.5637188569    -1.8015639172
   45      H       7.1477630782     1.7037583539    -0.2572469130
   46      H       6.0102199341     1.8568442977    -1.6320165043
   47      H       5.0846423331     2.5681057037     0.9306045872
   48      H       1.4656327066    -2.8106959854     1.9592807871
   49      H       1.6263101473    -4.0381662744     0.6472255039
   50      H      -1.3804619423    -0.5095036039     3.0696650513
   51      H      -0.1877853347    -0.8245128703     1.7251701261
   52      H      -1.1562418006    -2.1859371433     2.4434546042
   53      H      -0.1042693531     1.4444434262     1.4544241201
   54      H      -1.3924157193     2.7241000386     1.4716651055
   55      H      -0.1988315083     3.6944941674    -0.6843365851
   56      H       0.7325854720     3.8320149259     0.8697815501
 ----------------------------------------------------------------

    9   -1510.3019320788      4.71E-09 Convergence criterion met
 Total energy in the final basis set = -1510.30193208
 Final energy is   -1510.30193207883
 **  OPTIMIZATION CONVERGED  **

                    Orbital Energies (a.u.)
 --------------------------------------------------------------

 Alpha MOs
 -- Occupied --
-18.940 -18.939 -18.924 -18.922 -18.888 -18.886 -18.885 -18.881
-18.872 -18.864 -10.108 -10.107 -10.097 -10.092 -10.066 -10.062
-10.059 -10.057 -10.057 -10.056 -10.048 -10.043 -10.039 -10.039
-10.037 -10.033 -10.021 -10.020 -10.020 -10.019  -1.017  -1.014
 -1.005  -1.000  -0.970  -0.969  -0.941  -0.939  -0.933  -0.925
 -0.764  -0.762  -0.726  -0.722  -0.711  -0.705  -0.694  -0.661
 -0.651  -0.614  -0.596  -0.578  -0.547  -0.543  -0.538  -0.534
 -0.512  -0.511  -0.483  -0.469  -0.467  -0.452  -0.451  -0.441
 -0.434  -0.432  -0.426  -0.425  -0.413  -0.410  -0.404  -0.399
 -0.381  -0.376  -0.373  -0.367  -0.361  -0.360  -0.353  -0.350
 -0.340  -0.333  -0.333  -0.331  -0.325  -0.324  -0.323  -0.311
 -0.309  -0.305  -0.305  -0.299  -0.296  -0.293  -0.277  -0.274
 -0.270  -0.257  -0.252  -0.242  -0.235  -0.234  -0.233  -0.183
 -0.180  -0.177  -0.161  -0.159  -0.157  -0.151  -0.144  -0.144
 -0.143

          Ground-State Mulliken Net Atomic Charges

     Atom                 Charge (a.u.)
  ----------------------------------------
      1 O                    -0.215102
      2 C                     0.222848
      3 C                    -0.077070
      4 C                    -0.081604
      5 C                     0.213326
      6 O                    -0.173997
      7 C                    -0.049367
      8 C                    -0.060193
      9 O                    -0.177685
     10 C                     0.216544
     11 C                    -0.077752
     12 C                    -0.078266
     13 C                     0.223315
     14 O                    -0.218125
     15 O                    -0.168796
     16 O                    -0.163604
     17 O                    -0.214938
     18 C                    -0.144153
     19 C                     0.024807
     20 C                    -0.144134
     21 C                    -0.143692
     22 C                     0.025939
     23 O                    -0.185851
     24 H                     0.084385
     25 H                     0.086131
     26 H                     0.091272
     27 H                     0.078328
     28 H                     0.073141
     29 H                     0.078200
     30 H                     0.073799
     31 H                     0.082253
     32 O                    -0.217900
     33 C                    -0.149656
     34 C                     0.024885
     35 C                    -0.143858
     36 C                    -0.144090
     37 C                     0.025524
     38 O                    -0.189048
     39 H                     0.087934
     40 H                     0.084728
     41 H                     0.120122
     42 H                     0.087839
     43 H                     0.078135
     44 H                     0.073769
     45 H                     0.077850
     46 H                     0.073199
     47 H                     0.086898
     48 H                     0.077321
     49 H                     0.083586
     50 H                     0.089290
     51 H                     0.114566
     52 H                     0.078786
     53 H                     0.099984
     54 H                     0.099597
     55 H                     0.087325
     56 H                     0.093252
  ----------------------------------------
  Sum of atomic charges =    -0.000000

                    Cartesian Multipole Moments
 -----------------------------------------------------------------
    Charge (ESU x 10^10)
                -0.0000
    Dipole Moment (Debye)
         X       0.2826      Y      -0.6868      Z      -3.2650
       Tot       3.3484
    Quadrupole Moments (Debye-Ang)
        XX    -154.3196     XY       2.1105     YY    -153.9733
        XZ       2.1518     YZ      -6.1100     ZZ    -161.0637

 Total job time:  220.82s(wall), 10531.13s(cpu)
        *  Thank you very much for using Q-Chem.  Have a nice day.  *
