 Q-Chem 5.0, Q-Chem, Inc., Pleasanton, CA (2017)
 Q-Chem 5.0.1 for Intel X86 EM64T Linux

User input:
--------------------------------------------------------------
$molecule
0  1
O -3.94934 -3.66094 2.70899
C -3.26408 -4.56952 2.26188
C -3.36658 -6.02376 2.66595
C -3.56126 -6.32558 4.16089
C -3.8097 -5.13648 5.06222
O -2.62816 -4.5106 5.3409
C -2.78211 -3.37036 6.19261
C -3.10026 -2.13215 5.3609
O -3.16382 -0.97539 6.20987
C -3.76288 0.11372 5.66755
C -3.61543 1.35177 6.51969
C -2.18916 1.62948 7.0166
C -1.08475 0.86273 6.31727
O 0.10812 0.94889 6.57062
O -2.24549 -4.259 1.41773
O -1.32724 0.42626 5.04809
O -4.2196 0.14073 4.5302
C -0.38093 -0.0823 4.17819
C -3.93746 2.68114 5.80899
C -4.30617 3.74176 6.84575
C -2.95586 3.99621 7.48523
C -2.06412 3.10905 6.60984
O -2.68954 3.13756 5.348
H -4.3102 1.21031 7.37799
H -2.07057 1.45346 8.10831
H -4.74334 2.59611 5.04824
H -4.61012 4.65494 6.28527
H -5.11825 3.45723 7.54891
H -2.69804 5.06945 7.34447
H -2.87879 3.72276 8.55992
H -1.01147 3.46791 6.63937
O -4.89021 -4.85754 5.57329
C -1.96728 -2.98322 0.97371
C -4.65973 -6.63736 2.08959
C -4.51844 -8.15488 1.98672
C -4.58215 -8.53923 3.44781
C -4.85324 -7.16934 4.08015
O -5.60993 -6.48858 3.11242
H -2.50095 -6.56536 2.22098
H -2.73967 -6.92808 4.60896
H -1.73308 -2.32137 1.83427
H -4.94031 -6.21536 1.0989
H -5.43394 -8.5361 1.47974
H -3.62038 -8.51292 1.43889
H -5.45358 -9.21556 3.59481
H -3.66217 -9.00986 3.8572
H -5.33728 -7.30441 5.07273
H -2.83538 -2.57619 0.41225
H -1.08825 -3.01637 0.29801
H -0.87446 -0.35291 3.22285
H 0.08682 -0.99184 4.6121
H 0.39906 0.6805 3.96937
H -2.34928 -1.98982 4.5569
H -4.0965 -2.31705 4.90176
H -1.79807 -3.18513 6.6732
H -3.50599 -3.53232 7.0239
$end

$opt
CONSTRAINT
tors           1           2           3           4     -41.285
tors           3           4           5           6     -79.558
tors           4           5           6           7    -180.000
tors           5           6           7           8     -86.329
tors           6           7           8           9    -176.103
tors           7           8           9          10    -163.944
tors           8           9          10          11    -171.307
tors           9          10          11          12     +48.017
tors          11          12          13          14    +179.965
ENDCONSTRAINT
$end

$rem
JOBTYPE                   OPT
METHOD                    B3LYP
DFT_D                     d3_op
BASIS                     STO-3G
GEOM_OPT_MAX_CYCLES       100
GEOM_OPT_TOL_GRADIENT     300
GEOM_OPT_TOL_DISPLACEMENT 1200
GEOM_OPT_TOL_ENERGY       100
SYMMETRY                  False
THRESH                    12
SCF_CONVERGENCE           8
MAX_SUB_FILE_NUM          128
MEM_STATIC                400
MEM_TOTAL                 4000
$end
--------------------------------------------------------------

   15   -1510.1479223437      9.61E-09 Convergence criterion met
 Total energy in the final basis set = -1510.14792234
   14   -1510.2188913578      7.13E-09 Convergence criterion met
 Total energy in the final basis set = -1510.21889136
   13   -1510.2572988969      8.26E-09 Convergence criterion met
 Total energy in the final basis set = -1510.25729890
   13   -1510.2741293189      9.10E-09 Convergence criterion met
 Total energy in the final basis set = -1510.27412932
   13   -1510.2792618486      5.68E-09 Convergence criterion met
 Total energy in the final basis set = -1510.27926185
   13   -1510.2800939876      5.64E-09 Convergence criterion met
 Total energy in the final basis set = -1510.28009399
    2   -1510.2800939876      8.86E-09 Convergence criterion met
 Total energy in the final basis set = -1510.28009399
   13   -1510.2810986401      3.84E-09 Convergence criterion met
   11   -1510.2819664028      5.54E-09 Convergence criterion met
 Total energy in the final basis set = -1510.28196640
   10   -1510.2819828760      8.81E-09 Convergence criterion met
 Total energy in the final basis set = -1510.28198288
   10   -1510.2819949660      9.92E-09 Convergence criterion met
 Total energy in the final basis set = -1510.28199497
   10   -1510.2820043457      6.48E-09 Convergence criterion met
 Total energy in the final basis set = -1510.28200435
    9   -1510.2820080429      6.33E-09 Convergence criterion met
 Total energy in the final basis set = -1510.28200804
    9   -1510.2820092212      5.87E-09 Convergence criterion met
 Total energy in the final basis set = -1510.28200922

             Standard Nuclear Orientation (Angstroms)
    I     Atom           X                Y                Z
 ----------------------------------------------------------------
    1      O      -2.2455825608     0.3899640198     1.2232744742
    2      C      -3.0794757531     1.1248141344     0.6481029125
    3      C      -4.4162058887     0.6798428476    -0.0322955245
    4      C      -4.2609818330    -0.6649400716    -0.8625082188
    5      C      -2.8210989041    -1.2848790521    -0.7651072012
    6      O      -1.9773035179    -0.5555919415    -1.6724351658
    7      C      -0.5963478365    -1.0914130407    -1.6308738211
    8      C       0.2078591701    -0.3982919051    -0.4764732764
    9      O       1.5987270740    -0.9008514116    -0.5441903427
   10      C       2.2887753726    -0.6101470817     0.6819684360
   11      C       3.8038195009    -0.9585028894     0.4720604881
   12      C       4.4769809932    -0.4017059780    -0.8440430867
   13      C       3.8265775291     0.8908744597    -1.4640834267
   14      O       4.2125646923     1.4805638559    -2.4970593230
   15      O      -2.9480547917     2.5449406516     0.5366252631
   16      O       2.8542010263     1.4387579854    -0.5671452714
   17      O       1.7461541057    -0.1895115945     1.7245414838
   18      C       2.3341290256     2.7215566333    -1.0882583529
   19      C       4.7793697449    -0.4082827643     1.5967186149
   20      C       5.9826349592    -1.4231218757     1.6955368614
   21      C       6.6853802685    -1.1664559733     0.3095052558
   22      C       5.8702710846     0.0750804805    -0.2328633762
   23      O       5.4199629367     0.7832881415     0.9897089777
   24      H       3.8618224036    -2.0634891987     0.4477797492
   25      H       4.5875698861    -1.1708579678    -1.6285965091
   26      H       4.2746182041    -0.1447166074     2.5466852125
   27      H       6.6438376957    -1.1552634363     2.5354926898
   28      H       5.6504239455    -2.4657175373     1.8229160477
   29      H       7.7490861722    -0.9085243845     0.4316165687
   30      H       6.6087210792    -2.0314072183    -0.3689566478
   31      H       6.4388220865     0.7585849950    -0.8935109901
   32      O      -2.4620166836    -2.2911104698    -0.1194243924
   33      C      -1.6924362412     2.9844628920     1.1911962846
   34      C      -5.5124116955     0.2412828724     1.0380608036
   35      C      -6.9135284026     0.1907367159     0.3099835019
   36      C      -6.7673539355    -1.1274946195    -0.5375371379
   37      C      -5.3148463153    -1.5937174288    -0.1303901808
   38      O      -5.1989654748    -1.1815084428     1.2890038652
   39      H      -4.7809827042     1.5100175697    -0.6619952141
   40      H      -4.5033942386    -0.5020445726    -1.9277888478
   41      H      -0.8043495772     2.5067703239     0.7290173487
   42      H      -5.4914040776     0.8186255959     1.9826807930
   43      H      -7.7256489073     0.1076546369     1.0496767256
   44      H      -7.0917184171     1.0818551625    -0.3129794443
   45      H      -7.5127576636    -1.8827934275    -0.2416140647
   46      H      -6.8568375193    -0.9484848815    -1.6209931607
   47      H      -5.1103406560    -2.6770351410    -0.2315100286
   48      H      -1.6917172153     2.7468936262     2.2744566654
   49      H      -1.6419567869     4.0797641225     1.0506189993
   50      H       1.6564885425     3.1134420517    -0.3073398675
   51      H       1.7695997270     2.5795321174    -2.0329593548
   52      H       3.1523060604     3.4471780959    -1.2718831726
   53      H       0.1971847354     0.7040408950    -0.6216796472
   54      H      -0.2641191199    -0.6142301183     0.5068741646
   55      H      -0.1392856781    -0.8592740038    -2.6137896075
   56      H      -0.6083490413    -2.1901809465    -1.4697557313
 ----------------------------------------------------------------

    9   -1510.2820091837      2.38E-09 Convergence criterion met
 Total energy in the final basis set = -1510.28200918
 Final energy is   -1510.28200918372
 **  OPTIMIZATION CONVERGED  **

                    Orbital Energies (a.u.)
 --------------------------------------------------------------

 Alpha MOs
 -- Occupied --
-18.940 -18.940 -18.928 -18.920 -18.889 -18.884 -18.879 -18.875
-18.873 -18.867 -10.102 -10.100 -10.097 -10.095 -10.068 -10.068
-10.067 -10.063 -10.060 -10.059 -10.059 -10.055 -10.040 -10.039
-10.038 -10.033 -10.022 -10.021 -10.020 -10.018  -1.017  -1.015
 -1.008  -0.999  -0.971  -0.968  -0.939  -0.937  -0.935  -0.928
 -0.765  -0.762  -0.727  -0.723  -0.710  -0.704  -0.693  -0.666
 -0.664  -0.613  -0.597  -0.581  -0.547  -0.542  -0.538  -0.536
 -0.512  -0.509  -0.485  -0.477  -0.464  -0.458  -0.453  -0.443
 -0.436  -0.432  -0.424  -0.416  -0.415  -0.412  -0.409  -0.396
 -0.389  -0.380  -0.375  -0.369  -0.361  -0.358  -0.354  -0.347
 -0.343  -0.340  -0.336  -0.332  -0.330  -0.328  -0.319  -0.311
 -0.308  -0.306  -0.305  -0.299  -0.296  -0.292  -0.282  -0.273
 -0.268  -0.259  -0.249  -0.246  -0.243  -0.235  -0.232  -0.182
 -0.180  -0.175  -0.165  -0.158  -0.155  -0.150  -0.145  -0.144
 -0.143

          Ground-State Mulliken Net Atomic Charges

     Atom                 Charge (a.u.)
  ----------------------------------------
      1 O                    -0.210566
      2 C                     0.209253
      3 C                    -0.079232
      4 C                    -0.079232
      5 C                     0.212949
      6 O                    -0.178727
      7 C                    -0.050360
      8 C                    -0.052958
      9 O                    -0.180873
     10 C                     0.221260
     11 C                    -0.080213
     12 C                    -0.075182
     13 C                     0.213969
     14 O                    -0.216372
     15 O                    -0.168132
     16 O                    -0.166214
     17 O                    -0.214075
     18 C                    -0.126262
     19 C                     0.023705
     20 C                    -0.141746
     21 C                    -0.145362
     22 C                     0.023843
     23 O                    -0.192159
     24 H                     0.082665
     25 H                     0.087104
     26 H                     0.091489
     27 H                     0.077847
     28 H                     0.073687
     29 H                     0.078295
     30 H                     0.073709
     31 H                     0.084585
     32 O                    -0.206763
     33 C                    -0.128632
     34 C                     0.026104
     35 C                    -0.143332
     36 C                    -0.144323
     37 C                     0.025653
     38 O                    -0.184945
     39 H                     0.086528
     40 H                     0.085499
     41 H                     0.088292
     42 H                     0.083512
     43 H                     0.078651
     44 H                     0.073937
     45 H                     0.078571
     46 H                     0.073321
     47 H                     0.089168
     48 H                     0.092808
     49 H                     0.090581
     50 H                     0.089976
     51 H                     0.087503
     52 H                     0.093812
     53 H                     0.075956
     54 H                     0.107588
     55 H                     0.087590
     56 H                     0.096251
  ----------------------------------------
  Sum of atomic charges =    -0.000000

                    Cartesian Multipole Moments
 -----------------------------------------------------------------
    Charge (ESU x 10^10)
                 0.0000
    Dipole Moment (Debye)
         X      -1.0772      Y       0.8966      Z      -1.8432
       Tot       2.3155
    Quadrupole Moments (Debye-Ang)
        XX    -142.9125     XY     -13.4284     YY    -155.9233
        XZ       7.6923     YZ       5.4546     ZZ    -165.7579

 Total job time:  53.21s(wall), 2531.27s(cpu)
        *  Thank you very much for using Q-Chem.  Have a nice day.  *
