 Q-Chem 5.0, Q-Chem, Inc., Pleasanton, CA (2017)
 Q-Chem 5.0.1 for Intel X86 EM64T Linux

User input:
--------------------------------------------------------------
$molecule
0  1
O -2.2455825608 0.3899640198 1.2232744742
C -3.0794757531 1.1248141344 0.6481029125
C -4.4162058887 0.6798428476 -0.0322955245
C -4.260981833 -0.6649400716 -0.8625082188
C -2.8210989041 -1.2848790521 -0.7651072012
O -1.9773035179 -0.5555919415 -1.6724351658
C -0.5963478365 -1.0914130407 -1.6308738211
C 0.2078591701 -0.3982919051 -0.4764732764
O 1.598727074 -0.9008514116 -0.5441903427
C 2.2887753726 -0.6101470817 0.681968436
C 3.8038195009 -0.9585028894 0.4720604881
C 4.4769809932 -0.401705978 -0.8440430867
C 3.8265775291 0.8908744597 -1.4640834267
O 4.2125646923 1.4805638559 -2.497059323
O -2.9480547917 2.5449406516 0.5366252631
O 2.8542010263 1.4387579854 -0.5671452714
O 1.7461541057 -0.1895115945 1.7245414838
C 2.3341290256 2.7215566333 -1.0882583529
C 4.7793697449 -0.4082827643 1.5967186149
C 5.9826349592 -1.4231218757 1.6955368614
C 6.6853802685 -1.1664559733 0.3095052558
C 5.8702710846 0.0750804805 -0.2328633762
O 5.4199629367 0.7832881415 0.9897089777
H 3.8618224036 -2.0634891987 0.4477797492
H 4.5875698861 -1.1708579678 -1.6285965091
H 4.2746182041 -0.1447166074 2.5466852125
H 6.6438376957 -1.1552634363 2.5354926898
H 5.6504239455 -2.4657175373 1.8229160477
H 7.7490861722 -0.9085243845 0.4316165687
H 6.6087210792 -2.0314072183 -0.3689566478
H 6.4388220865 0.758584995 -0.8935109901
O -2.4620166836 -2.2911104698 -0.1194243924
C -1.6924362412 2.984462892 1.1911962846
C -5.5124116955 0.2412828724 1.0380608036
C -6.9135284026 0.1907367159 0.3099835019
C -6.7673539355 -1.1274946195 -0.5375371379
C -5.3148463153 -1.5937174288 -0.1303901808
O -5.1989654748 -1.1815084428 1.2890038652
H -4.7809827042 1.5100175697 -0.6619952141
H -4.5033942386 -0.5020445726 -1.9277888478
H -0.8043495772 2.5067703239 0.7290173487
H -5.4914040776 0.8186255959 1.982680793
H -7.7256489073 0.1076546369 1.0496767256
H -7.0917184171 1.0818551625 -0.3129794443
H -7.5127576636 -1.8827934275 -0.2416140647
H -6.8568375193 -0.9484848815 -1.6209931607
H -5.110340656 -2.677035141 -0.2315100286
H -1.6917172153 2.7468936262 2.2744566654
H -1.6419567869 4.0797641225 1.0506189993
H 1.6564885425 3.1134420517 -0.3073398675
H 1.769599727 2.5795321174 -2.0329593548
H 3.1523060604 3.4471780959 -1.2718831726
H 0.1971847354 0.704040895 -0.6216796472
H -0.2641191199 -0.6142301183 0.5068741646
H -0.1392856781 -0.8592740038 -2.6137896075
H -0.6083490413 -2.1901809465 -1.4697557313
$end

$rem
JOBTYPE                   OPT
METHOD                    B3LYP
DFT_D                     d3_op
BASIS                     STO-3G
GEOM_OPT_MAX_CYCLES       100
GEOM_OPT_TOL_GRADIENT     300
GEOM_OPT_TOL_DISPLACEMENT 1200
GEOM_OPT_TOL_ENERGY       100
SYMMETRY                  False
THRESH                    12
SCF_CONVERGENCE           8
MAX_SUB_FILE_NUM          128
MEM_STATIC                400
MEM_TOTAL                 4000
$end
--------------------------------------------------------------

   16   -1510.2819356924      6.15E-09 Convergence criterion met
 Total energy in the final basis set = -1510.28193569
   13   -1510.2831510791      7.43E-09 Convergence criterion met
 Total energy in the final basis set = -1510.28315108
   14   -1510.2850532935      6.08E-09 Convergence criterion met
 Total energy in the final basis set = -1510.28505329
   15   -1510.2865262075      2.99E-09 Convergence criterion met
 Total energy in the final basis set = -1510.28652621
   13   -1510.2884271652      9.39E-09 Convergence criterion met
 Total energy in the final basis set = -1510.28842717
   14   -1510.2895857561      5.14E-09 Convergence criterion met
 Total energy in the final basis set = -1510.28958576
   13   -1510.2888972535      9.85E-09 Convergence criterion met
 Total energy in the final basis set = -1510.28889725
   14   -1510.2904635903      6.16E-09 Convergence criterion met
   13   -1510.2936476298      2.25E-09 Convergence criterion met
 Total energy in the final basis set = -1510.29364763
   12   -1510.2937291523      8.83E-09 Convergence criterion met
 Total energy in the final basis set = -1510.29372915
   12   -1510.2936766192      9.28E-09 Convergence criterion met
 Total energy in the final basis set = -1510.29367662
   12   -1510.2937334081      5.47E-09 Convergence criterion met
 Total energy in the final basis set = -1510.29373341
   10   -1510.2937214270      7.26E-09 Convergence criterion met
 Total energy in the final basis set = -1510.29372143
   10   -1510.2937316267      6.08E-09 Convergence criterion met
 Total energy in the final basis set = -1510.29373163

             Standard Nuclear Orientation (Angstroms)
    I     Atom           X                Y                Z
 ----------------------------------------------------------------
    1      O      -2.1640529740    -0.6929242386     1.1523427261
    2      C      -2.7539193131     0.4081733041     1.0288385737
    3      C      -4.0706842336     0.6740183496     0.2235735973
    4      C      -4.2128257316    -0.2328235200    -1.0743359028
    5      C      -2.9362693443    -1.0941120955    -1.3808771313
    6      O      -1.9345980912    -0.1882314031    -1.8764571065
    7      C      -0.5977397947    -0.8342106127    -1.8863780410
    8      C       0.1166092330    -0.3412717524    -0.5847709258
    9      O       1.4978020413    -0.8735989074    -0.5265626871
   10      C       2.1503187555    -0.3378058381     0.6279129074
   11      C       3.6262857446    -0.8657885868     0.6497293839
   12      C       4.4327363591    -0.5503710057    -0.6792752384
   13      C       3.6088807867     0.2455889838    -1.7471961842
   14      O       3.4644666152    -0.0328088254    -2.9567118914
   15      O      -2.3212110793     1.6195442268     1.6368569499
   16      O       3.0514751591     1.4089064978    -1.1185395796
   17      O       1.5963780649     0.3965130884     1.4773694006
   18      C       2.2743361603     2.1936516311    -2.1040896829
   19      C       4.4931477231    -0.0995020759     1.7302292367
   20      C       5.8057859944    -0.9329298694     1.9962639773
   21      C       6.6174830054    -0.6451945893     0.6778823454
   22      C       5.6279954557     0.3198323210    -0.0880535216
   23      O       4.9832196815     1.0918003152     0.9964640440
   24      H       3.6003720348    -1.9546443836     0.8404219491
   25      H       4.7975490036    -1.4740451088    -1.1612493379
   26      H       3.9193744352     0.2079377724     2.6261095839
   27      H       6.3314536398    -0.5491829637     2.8849682581
   28      H       5.5967689620    -2.0046403326     2.1433487449
   29      H       7.5664229285    -0.1282747606     0.8923620912
   30      H       6.8365179132    -1.5592623839     0.1026378557
   31      H       6.1057155835     1.0005942596    -0.8190921182
   32      O      -2.7938542117    -2.3306366643    -1.2865292115
   33      C      -1.1354929993     1.3797025913     2.5033120043
   34      C      -5.3315948956     0.1740981144     1.0578626918
   35      C      -6.6445450632     0.7194437229     0.3669291084
   36      C      -6.7651805967    -0.2458473381    -0.8699066726
   37      C      -5.4666927100    -1.1250992594    -0.6926414407
   38      O      -5.3566632534    -1.2781754973     0.7775325823
   39      H      -4.1322574656     1.7509709250    -0.0114451817
   40      H      -4.4166668339     0.3997257302    -1.9572193592
   41      H      -0.2328473400     1.0511831833     1.9356010403
   42      H      -5.2618418311     0.3602309611     2.1473382219
   43      H      -7.5061731152     0.6181896932     1.0455568008
   44      H      -6.5482341572     1.7770369618     0.0733613103
   45      H      -7.6674347873    -0.8744831677    -0.8034051576
   46      H      -6.7781226972     0.2913106798    -1.8316257526
   47      H      -5.4822530913    -2.1179414977    -1.1824737236
   48      H      -1.3625036963     0.6199563558     3.2777761285
   49      H      -0.9297249107     2.3497147236     2.9912582104
   50      H       1.8075260842     3.0198374191    -1.5369979585
   51      H       1.4868089867     1.5809792895    -2.5877327870
   52      H       2.9280002217     2.6119569053    -2.8967015077
   53      H       0.1350183145     0.7698421638    -0.5794755899
   54      H      -0.4905339573    -0.6721452286     0.2920464863
   55      H      -0.0634216219    -0.5001997777    -2.7990482648
   56      H      -0.7070458134    -1.9394760939    -1.8904054639
 ----------------------------------------------------------------

    9   -1510.2937309479      7.85E-09 Convergence criterion met
 Total energy in the final basis set = -1510.29373095
 Final energy is   -1510.29373094794
 **  OPTIMIZATION CONVERGED  **

                    Orbital Energies (a.u.)
 --------------------------------------------------------------

 Alpha MOs
 -- Occupied --
-18.940 -18.936 -18.934 -18.925 -18.889 -18.888 -18.881 -18.878
-18.878 -18.874 -10.105 -10.104 -10.099 -10.099 -10.067 -10.064
-10.063 -10.061 -10.059 -10.058 -10.058 -10.050 -10.040 -10.039
-10.038 -10.038 -10.022 -10.021 -10.020 -10.020  -1.019  -1.015
 -1.007  -1.006  -0.971  -0.970  -0.941  -0.938  -0.935  -0.934
 -0.765  -0.764  -0.728  -0.724  -0.711  -0.707  -0.696  -0.661
 -0.659  -0.614  -0.598  -0.581  -0.547  -0.545  -0.538  -0.538
 -0.515  -0.510  -0.484  -0.477  -0.465  -0.461  -0.454  -0.443
 -0.437  -0.432  -0.428  -0.416  -0.413  -0.410  -0.407  -0.399
 -0.391  -0.381  -0.371  -0.369  -0.361  -0.358  -0.356  -0.351
 -0.345  -0.337  -0.335  -0.333  -0.331  -0.329  -0.325  -0.311
 -0.310  -0.307  -0.305  -0.300  -0.294  -0.292  -0.283  -0.278
 -0.270  -0.260  -0.251  -0.247  -0.246  -0.235  -0.234  -0.186
 -0.177  -0.174  -0.173  -0.160  -0.158  -0.152  -0.150  -0.145
 -0.144

          Ground-State Mulliken Net Atomic Charges

     Atom                 Charge (a.u.)
  ----------------------------------------
      1 O                    -0.216619
      2 C                     0.213076
      3 C                    -0.077975
      4 C                    -0.079103
      5 C                     0.214634
      6 O                    -0.181009
      7 C                    -0.053273
      8 C                    -0.063003
      9 O                    -0.174443
     10 C                     0.222276
     11 C                    -0.077988
     12 C                    -0.078847
     13 C                     0.211771
     14 O                    -0.213821
     15 O                    -0.167590
     16 O                    -0.169036
     17 O                    -0.215214
     18 C                    -0.128375
     19 C                     0.024636
     20 C                    -0.143913
     21 C                    -0.143810
     22 C                     0.025972
     23 O                    -0.186195
     24 H                     0.086536
     25 H                     0.086043
     26 H                     0.090246
     27 H                     0.078360
     28 H                     0.073725
     29 H                     0.078134
     30 H                     0.074147
     31 H                     0.082611
     32 O                    -0.204884
     33 C                    -0.142206
     34 C                     0.025761
     35 C                    -0.143987
     36 C                    -0.143614
     37 C                     0.025031
     38 O                    -0.186342
     39 H                     0.087667
     40 H                     0.085345
     41 H                     0.111447
     42 H                     0.083211
     43 H                     0.078648
     44 H                     0.074126
     45 H                     0.078606
     46 H                     0.073469
     47 H                     0.089988
     48 H                     0.085093
     49 H                     0.087557
     50 H                     0.091796
     51 H                     0.087579
     52 H                     0.088067
     53 H                     0.080644
     54 H                     0.106325
     55 H                     0.086713
     56 H                     0.102010
  ----------------------------------------
  Sum of atomic charges =     0.000000

                    Cartesian Multipole Moments
 -----------------------------------------------------------------
    Charge (ESU x 10^10)
                 0.0000
    Dipole Moment (Debye)
         X       0.0278      Y       1.6248      Z      -0.1886
       Tot       1.6360
    Quadrupole Moments (Debye-Ang)
        XX    -140.8892     XY     -14.8581     YY    -164.6032
        XZ       6.3278     YZ      -3.7443     ZZ    -160.3452

 Total job time:  72.71s(wall), 3465.06s(cpu)
        *  Thank you very much for using Q-Chem.  Have a nice day.  *
