 Q-Chem 5.0, Q-Chem, Inc., Pleasanton, CA (2017)
 Q-Chem 5.0.1 for Intel X86 EM64T Linux

User input:
--------------------------------------------------------------
$molecule
0  1
O -3.94934 -3.66094 2.70899
C -3.26408 -4.56952 2.26188
C -3.36658 -6.02376 2.66595
C -4.72196 -6.71799 2.4542
C -5.77109 -5.93284 1.69858
O -6.97509 -6.03498 2.33526
C -8.02297 -5.3152 1.67713
C -7.45362 -4.49531 0.52399
O -8.08556 -3.20624 0.48121
C -7.92595 -2.51669 -0.67558
C -8.42907 -1.09549 -0.5876
C -9.78689 -0.93156 0.11078
C -10.26301 -2.12275 0.91768
O -10.26576 -2.19681 2.13796
O -2.362 -4.26457 1.29035
O -10.7907 -3.14879 0.19742
O -7.51379 -3.00832 -1.71871
C -11.46918 -4.21606 0.74792
C -7.53867 -0.20694 0.30628
C -7.70892 1.25515 -0.10076
C -9.12271 1.51462 0.37716
C -9.41082 0.19294 1.10182
O -8.1535 -0.22877 1.56849
H -8.40969 -0.66994 -1.61697
H -10.61288 -0.62283 -0.56667
H -6.46408 -0.49288 0.28078
H -7.00501 1.84498 0.52969
H -7.52067 1.48868 -1.17074
H -9.10017 2.37004 1.08815
H -9.86934 1.70093 -0.42502
H -10.19156 0.34678 1.87948
O -5.61731 -6.06701 0.48143
C -2.1625 -2.99908 0.77915
C -2.43042 -6.97908 1.89106
C -2.16725 -8.23975 2.71576
C -3.50028 -8.9429 2.58994
C -4.2422 -7.96849 1.67091
O -3.22791 -7.45914 0.83874
H -3.08146 -6.03351 3.74186
H -5.16635 -7.05099 3.42101
H -1.83711 -2.3074 1.58533
H -1.45904 -6.52143 1.60494
H -1.39908 -8.84288 2.18064
H -1.82578 -8.04846 3.75585
H -3.33955 -9.9077 2.05874
H -4.03632 -9.12467 3.54632
H -5.08006 -8.49309 1.1605
H -3.09925 -2.62219 0.31529
H -1.3712 -3.04106 0.00295
H -11.7679 -4.91432 -0.06043
H -12.38328 -3.85634 1.26653
H -10.82879 -4.75502 1.47295
H -6.43734 -4.04862 0.64668
H -7.56474 -5.06836 -0.42712
H -8.4103 -4.60988 2.44379
H -8.85383 -5.97696 1.35681
$end

$opt
CONSTRAINT
tors           1           2           3           4     +59.091
tors           3           4           5           6    -134.993
tors           4           5           6           7    -180.000
tors           5           6           7           8      -6.617
tors           6           7           8           9    -139.350
tors           7           8           9          10    -163.944
tors           8           9          10          11    -171.307
tors           9          10          11          12     -43.885
tors          11          12          13          14    +105.558
ENDCONSTRAINT
$end

$rem
JOBTYPE                   OPT
METHOD                    B3LYP
DFT_D                     d3_op
BASIS                     STO-3G
GEOM_OPT_MAX_CYCLES       100
GEOM_OPT_TOL_GRADIENT     300
GEOM_OPT_TOL_DISPLACEMENT 1200
GEOM_OPT_TOL_ENERGY       100
SYMMETRY                  False
THRESH                    12
SCF_CONVERGENCE           8
MAX_SUB_FILE_NUM          128
MEM_STATIC                400
MEM_TOTAL                 4000
$end
--------------------------------------------------------------

   16   -1510.0901665050      5.19E-09 Convergence criterion met
 Total energy in the final basis set = -1510.09016651
   15   -1510.1681780004      3.21E-09 Convergence criterion met
 Total energy in the final basis set = -1510.16817800
   14   -1510.2144126493      4.31E-09 Convergence criterion met
 Total energy in the final basis set = -1510.21441265
   14   -1510.2415056164      7.87E-09 Convergence criterion met
 Total energy in the final basis set = -1510.24150562
   14   -1510.2548703896      5.36E-09 Convergence criterion met
 Total energy in the final basis set = -1510.25487039
   13   -1510.2619335308      7.33E-09 Convergence criterion met
 Total energy in the final basis set = -1510.26193353
   13   -1510.2664227844      4.36E-09 Convergence criterion met
 Total energy in the final basis set = -1510.26642278
   13   -1510.2690654978      1.71E-09 Convergence criterion met
   11   -1510.2712518304      8.99E-09 Convergence criterion met
 Total energy in the final basis set = -1510.27125183
   10   -1510.2712669064      4.77E-09 Convergence criterion met
 Total energy in the final basis set = -1510.27126691
    9   -1510.2712734938      7.62E-09 Convergence criterion met
 Total energy in the final basis set = -1510.27127349
    9   -1510.2712845269      6.57E-09 Convergence criterion met
 Total energy in the final basis set = -1510.27128453
    9   -1510.2712882572      4.93E-09 Convergence criterion met
 Total energy in the final basis set = -1510.27128826
    9   -1510.2712925936      2.67E-09 Convergence criterion met
 Total energy in the final basis set = -1510.27129259

             Standard Nuclear Orientation (Angstroms)
    I     Atom           X                Y                Z
 ----------------------------------------------------------------
    1      O      -2.2268825242    -2.0685967979     1.0445807775
    2      C      -3.3581043934    -1.8505991907     0.5575231546
    3      C      -4.3239867737    -0.6736507265     0.9550027834
    4      C      -3.6729190274     0.7565442348     0.7250760983
    5      C      -2.2871457837     0.6870314888    -0.0107550869
    6      O      -1.4101439350     1.5627464224     0.6894433575
    7      C      -0.0038725585     1.7085802478     0.2170167154
    8      C       0.5513021333     0.7930770573    -0.9400197880
    9      O       1.9278379660     0.4372587214    -0.5195337976
   10      C       2.6911315231    -0.0767240602    -1.6117807655
   11      C       4.0405169097    -0.6317288940    -1.0470862364
   12      C       4.7674140408     0.2851631272     0.0295774028
   13      C       3.9864631151     1.5964294900     0.4075700117
   14      O       3.3526759583     1.8400747040     1.4558530044
   15      O      -3.9623267275    -2.6650629485    -0.4497030848
   16      O       4.1084634718     2.5092534948    -0.6929320494
   17      O       2.2990096154    -0.1092499240    -2.7986204622
   18      C       3.3486184013     3.7468665174    -0.4101592217
   19      C       3.8013914098    -1.9549264995    -0.1904553441
   20      C       5.1856534688    -2.7046151840    -0.0527277236
   21      C       5.9160340370    -1.7992402451     1.0080035766
   22      C       4.8185010630    -0.6959560982     1.2732584095
   23      O       3.5427262406    -1.4428406880     1.1713839266
   24      H       4.7016586312    -0.8323649225    -1.9085107599
   25      H       5.7764665340     0.5661430883    -0.3222660586
   26      H       2.9571877746    -2.5811522363    -0.5388982234
   27      H       5.0330137776    -3.7283096640     0.3245066634
   28      H       5.7248288272    -2.7575205302    -1.0119988065
   29      H       6.1333926976    -2.3566780902     1.9330593388
   30      H       6.8555832291    -1.3690437938     0.6255356120
   31      H       4.8810945572    -0.1795732202     2.2505331504
   32      O      -2.0405738948    -0.0096180436    -1.0218190349
   33      C      -3.0252792758    -3.7366658547    -0.8575872080
   34      C      -5.6316515148    -0.5630804441     0.0641544991
   35      C      -6.6780373716     0.3334219538     0.8359532150
   36      C      -6.0405004034     1.7615904148     0.6606614154
   37      C      -4.7693578794     1.4240174274    -0.2153028953
   38      O      -5.2126607788     0.2983847397    -1.0667249653
   39      H      -4.5799563899    -0.8034141062     2.0229038191
   40      H      -3.5449604171     1.3112524756     1.6705889918
   41      H      -2.7706898504    -4.4036402460    -0.0085034727
   42      H      -6.0105515828    -1.5336551753    -0.3081543469
   43      H      -7.6664538374     0.2709667964     0.3533625021
   44      H      -6.7823807558     0.0388979809     1.8925343464
   45      H      -6.7137024972     2.4426052915     0.1161074489
   46      H      -5.7681064753     2.2271132535     1.6213286024
   47      H      -4.3924280503     2.2580319761    -0.8385531939
   48      H      -2.0862339367    -3.3149892457    -1.2703563846
   49      H      -3.5479863604    -4.3155815507    -1.6410514849
   50      H       3.4914043582     4.4023572731    -1.2889081911
   51      H       3.7217654579     4.2594275446     0.4999609519
   52      H       2.2679174378     3.5383949614    -0.2757721823
   53      H      -0.0906095515    -0.1055327438    -1.0554424178
   54      H       0.5619544242     1.3305969478    -1.9112011505
   55      H       0.6323269130     1.5237182118     1.1117209274
   56      H       0.1162716156     2.7785415959    -0.0612311273
 ----------------------------------------------------------------

    9   -1510.2712939619      1.95E-09 Convergence criterion met
 Total energy in the final basis set = -1510.27129396
 Final energy is   -1510.27129396194
 **  OPTIMIZATION CONVERGED  **

                    Orbital Energies (a.u.)
 --------------------------------------------------------------

 Alpha MOs
 -- Occupied --
-18.940 -18.931 -18.931 -18.929 -18.886 -18.886 -18.876 -18.872
-18.870 -18.865 -10.106 -10.097 -10.096 -10.094 -10.073 -10.063
-10.062 -10.060 -10.059 -10.059 -10.056 -10.055 -10.036 -10.035
-10.035 -10.034 -10.020 -10.019 -10.018 -10.018  -1.014  -1.011
 -1.005  -1.003  -0.968  -0.968  -0.942  -0.935  -0.931  -0.930
 -0.762  -0.760  -0.727  -0.720  -0.711  -0.704  -0.695  -0.662
 -0.656  -0.618  -0.595  -0.583  -0.545  -0.543  -0.535  -0.535
 -0.514  -0.510  -0.482  -0.472  -0.463  -0.457  -0.446  -0.442
 -0.433  -0.430  -0.428  -0.412  -0.408  -0.406  -0.404  -0.393
 -0.385  -0.380  -0.376  -0.365  -0.363  -0.361  -0.357  -0.346
 -0.342  -0.341  -0.335  -0.330  -0.329  -0.323  -0.321  -0.309
 -0.306  -0.304  -0.302  -0.296  -0.294  -0.290  -0.285  -0.275
 -0.270  -0.252  -0.250  -0.244  -0.242  -0.232  -0.232  -0.181
 -0.176  -0.174  -0.170  -0.153  -0.151  -0.146  -0.144  -0.141
 -0.140

          Ground-State Mulliken Net Atomic Charges

     Atom                 Charge (a.u.)
  ----------------------------------------
      1 O                    -0.218679
      2 C                     0.211566
      3 C                    -0.079055
      4 C                    -0.078308
      5 C                     0.216777
      6 O                    -0.168104
      7 C                    -0.051742
      8 C                    -0.059792
      9 O                    -0.172428
     10 C                     0.209179
     11 C                    -0.078788
     12 C                    -0.078764
     13 C                     0.215652
     14 O                    -0.213879
     15 O                    -0.166784
     16 O                    -0.174321
     17 O                    -0.212233
     18 C                    -0.128272
     19 C                     0.026117
     20 C                    -0.143539
     21 C                    -0.144379
     22 C                     0.025408
     23 O                    -0.184872
     24 H                     0.084978
     25 H                     0.084140
     26 H                     0.083587
     27 H                     0.078034
     28 H                     0.073716
     29 H                     0.077956
     30 H                     0.072826
     31 H                     0.088042
     32 O                    -0.213476
     33 C                    -0.126793
     34 C                     0.024113
     35 C                    -0.144007
     36 C                    -0.144076
     37 C                     0.025365
     38 O                    -0.186839
     39 H                     0.083724
     40 H                     0.087227
     41 H                     0.087575
     42 H                     0.092822
     43 H                     0.077624
     44 H                     0.072857
     45 H                     0.077708
     46 H                     0.073790
     47 H                     0.081575
     48 H                     0.093270
     49 H                     0.090304
     50 H                     0.089735
     51 H                     0.088020
     52 H                     0.083798
     53 H                     0.114261
     54 H                     0.090347
     55 H                     0.106476
     56 H                     0.080562
  ----------------------------------------
  Sum of atomic charges =     0.000000

                    Cartesian Multipole Moments
 -----------------------------------------------------------------
    Charge (ESU x 10^10)
                 0.0000
    Dipole Moment (Debye)
         X       0.3046      Y       0.7858      Z       0.8437
       Tot       1.1926
    Quadrupole Moments (Debye-Ang)
        XX    -137.5693     XY      -2.3343     YY    -145.5119
        XZ      -8.2939     YZ       0.8214     ZZ    -170.4028

 Total job time:  57.41s(wall), 2730.95s(cpu)
        *  Thank you very much for using Q-Chem.  Have a nice day.  *
