 Q-Chem 5.0, Q-Chem, Inc., Pleasanton, CA (2017)
 Q-Chem 5.0.1 for Intel X86 EM64T Linux

User input:
--------------------------------------------------------------
$molecule
0  1
O -2.2268825242 -2.0685967979 1.0445807775
C -3.3581043934 -1.8505991907 0.5575231546
C -4.3239867737 -0.6736507265 0.9550027834
C -3.6729190274 0.7565442348 0.7250760983
C -2.2871457837 0.6870314888 -0.0107550869
O -1.410143935 1.5627464224 0.6894433575
C -0.0038725585 1.7085802478 0.2170167154
C 0.5513021333 0.7930770573 -0.940019788
O 1.927837966 0.4372587214 -0.5195337976
C 2.6911315231 -0.0767240602 -1.6117807655
C 4.0405169097 -0.631728894 -1.0470862364
C 4.7674140408 0.2851631272 0.0295774028
C 3.9864631151 1.59642949 0.4075700117
O 3.3526759583 1.840074704 1.4558530044
O -3.9623267275 -2.6650629485 -0.4497030848
O 4.1084634718 2.5092534948 -0.6929320494
O 2.2990096154 -0.109249924 -2.7986204622
C 3.3486184013 3.7468665174 -0.4101592217
C 3.8013914098 -1.9549264995 -0.1904553441
C 5.1856534688 -2.704615184 -0.0527277236
C 5.916034037 -1.7992402451 1.0080035766
C 4.818501063 -0.6959560982 1.2732584095
O 3.5427262406 -1.442840688 1.1713839266
H 4.7016586312 -0.8323649225 -1.9085107599
H 5.776466534 0.5661430883 -0.3222660586
H 2.9571877746 -2.5811522363 -0.5388982234
H 5.0330137776 -3.728309664 0.3245066634
H 5.7248288272 -2.7575205302 -1.0119988065
H 6.1333926976 -2.3566780902 1.9330593388
H 6.8555832291 -1.3690437938 0.625535612
H 4.8810945572 -0.1795732202 2.2505331504
O -2.0405738948 -0.0096180436 -1.0218190349
C -3.0252792758 -3.7366658547 -0.857587208
C -5.6316515148 -0.5630804441 0.0641544991
C -6.6780373716 0.3334219538 0.835953215
C -6.0405004034 1.7615904148 0.6606614154
C -4.7693578794 1.4240174274 -0.2153028953
O -5.2126607788 0.2983847397 -1.0667249653
H -4.5799563899 -0.8034141062 2.0229038191
H -3.5449604171 1.3112524756 1.6705889918
H -2.7706898504 -4.403640246 -0.0085034727
H -6.0105515828 -1.5336551753 -0.3081543469
H -7.6664538374 0.2709667964 0.3533625021
H -6.7823807558 0.0388979809 1.8925343464
H -6.7137024972 2.4426052915 0.1161074489
H -5.7681064753 2.2271132535 1.6213286024
H -4.3924280503 2.2580319761 -0.8385531939
H -2.0862339367 -3.3149892457 -1.2703563846
H -3.5479863604 -4.3155815507 -1.6410514849
H 3.4914043582 4.4023572731 -1.2889081911
H 3.7217654579 4.2594275446 0.4999609519
H 2.2679174378 3.5383949614 -0.2757721823
H -0.0906095515 -0.1055327438 -1.0554424178
H 0.5619544242 1.3305969478 -1.9112011505
H 0.632326913 1.5237182118 1.1117209274
H 0.1162716156 2.7785415959 -0.0612311273
$end

$rem
JOBTYPE                   OPT
METHOD                    B3LYP
DFT_D                     d3_op
BASIS                     STO-3G
GEOM_OPT_MAX_CYCLES       100
GEOM_OPT_TOL_GRADIENT     300
GEOM_OPT_TOL_DISPLACEMENT 1200
GEOM_OPT_TOL_ENERGY       100
SYMMETRY                  False
THRESH                    12
SCF_CONVERGENCE           8
MAX_SUB_FILE_NUM          128
MEM_STATIC                400
MEM_TOTAL                 4000
$end
--------------------------------------------------------------

   15   -1510.2713649111      8.92E-09 Convergence criterion met
 Total energy in the final basis set = -1510.27136491
   13   -1510.2722237610      7.35E-09 Convergence criterion met
 Total energy in the final basis set = -1510.27222376
   13   -1510.2725654932      7.56E-09 Convergence criterion met
 Total energy in the final basis set = -1510.27256549
   13   -1510.2734982300      6.33E-09 Convergence criterion met
 Total energy in the final basis set = -1510.27349823
   13   -1510.2743856684      4.42E-09 Convergence criterion met
 Total energy in the final basis set = -1510.27438567
   13   -1510.2749087969      9.97E-09 Convergence criterion met
 Total energy in the final basis set = -1510.27490880
   13   -1510.2758426599      6.63E-09 Convergence criterion met
 Total energy in the final basis set = -1510.27584266
   13   -1510.2768944189      3.68E-09 Convergence criterion met
   10   -1510.2983399970      5.92E-09 Convergence criterion met
 Total energy in the final basis set = -1510.29834000
   10   -1510.2983535677      9.39E-09 Convergence criterion met
 Total energy in the final basis set = -1510.29835357
   11   -1510.2983742017      4.48E-09 Convergence criterion met
 Total energy in the final basis set = -1510.29837420
   11   -1510.2983972339      2.42E-09 Convergence criterion met
 Total energy in the final basis set = -1510.29839723
   11   -1510.2984109937      6.32E-09 Convergence criterion met
 Total energy in the final basis set = -1510.29841099
   11   -1510.2984134875      5.04E-09 Convergence criterion met
 Total energy in the final basis set = -1510.29841349

             Standard Nuclear Orientation (Angstroms)
    I     Atom           X                Y                Z
 ----------------------------------------------------------------
    1      O      -5.1976575708    -0.8262166957     2.2491660394
    2      C      -4.7421230380    -0.7943104315     1.0848644619
    3      C      -4.1420528704     0.4637486775     0.3534567960
    4      C      -2.5730138299     0.6079358899     0.5096524573
    5      C      -1.9028137800    -0.5561294356     1.3053754495
    6      O      -0.5247550883    -0.2107774423     1.5082371346
    7      C       0.2355980995    -1.3312479603     2.1061407567
    8      C       0.8371142740    -2.2550448425     0.9833478780
    9      O       2.0619003694    -1.6465687781     0.4125243611
   10      C       1.7601270352    -0.7847438022    -0.6835989683
   11      C       3.0810355090    -0.0735441786    -1.1394372292
   12      C       3.5805090019     1.0476904486    -0.1214425662
   13      C       2.6059543955     1.2569673090     1.0890053887
   14      O       2.5743599200     0.6309915417     2.1723191861
   15      O      -4.7753812535    -1.8988260021     0.1737041247
   16      O       1.7087656721     2.3106545767     0.7379068897
   17      O       0.6253548798    -0.6565518596    -1.1967967311
   18      C       0.6560452915     2.4519607960     1.7755691405
   19      C       4.3283958193    -1.0558006352    -1.1222567876
   20      C       5.5138209867    -0.3742603788    -1.9148909041
   21      C       6.0056839987     0.6951132029    -0.8693241169
   22      C       4.9864051601     0.4528307726     0.3120774234
   23      O       4.7762496923    -1.0123213849     0.2872821550
   24      H       2.8982560222     0.3558286953    -2.1400703061
   25      H       3.6850876080     2.0155890365    -0.6429506334
   26      H       4.0962460124    -2.0957978631    -1.4227834134
   27      H       6.3001409753    -1.1120750426    -2.1393762069
   28      H       5.1741923172     0.0791995220    -2.8598266905
   29      H       7.0350565280     0.4882213608    -0.5358167543
   30      H       5.9601869413     1.7250477101    -1.2579956406
   31      H       5.3301155857     0.7744848787     1.3142767152
   32      O      -2.4118923297    -1.6293513646     1.6946916993
   33      C      -5.2608431834    -3.1088006508     0.8721529690
   34      C      -4.2712800533     0.3892518644    -1.2268615848
   35      C      -4.0216049575     1.8347714403    -1.8166757469
   36      C      -2.4600836656     1.9615728595    -1.6655988813
   37      C      -2.1017624556     0.5694684425    -1.0137864774
   38      O      -3.0645778948    -0.3650074749    -1.6361875908
   39      H      -4.6496234012     1.3543423347     0.7646815272
   40      H      -2.2937808849     1.5637671309     0.9869623406
   41      H      -6.2766977879    -2.9621790233     1.2933026798
   42      H      -5.1867636792    -0.1173220183    -1.5871183918
   43      H      -4.3300610131     1.8767004212    -2.8734465910
   44      H      -4.5686191064     2.6115434404    -1.2587746453
   45      H      -1.9658057301     2.0651500665    -2.6447632101
   46      H      -2.1597352053     2.8087266703    -1.0284579105
   47      H      -1.0567534336     0.2111526645    -1.1552467088
   48      H      -4.5745389453    -3.3973008315     1.6944721209
   49      H      -5.2862864393    -3.9110074293     0.1117461676
   50      H       0.0179610492     3.2912946906     1.4450028244
   51      H       1.0927863508     2.6857921250     2.7670883823
   52      H       0.0639053779     1.5074730174     1.8345732193
   53      H       1.1562357521    -3.2193838544     1.4279295153
   54      H       0.0785404570    -2.4354080253     0.1915028671
   55      H      -0.4215348085    -1.9282439402     2.7736671666
   56      H       1.0684794131    -0.8578572699     2.6701309570
 ----------------------------------------------------------------

    9   -1510.2984129656      9.65E-09 Convergence criterion met
 Total energy in the final basis set = -1510.29841297
 Final energy is   -1510.29841296565
 **  OPTIMIZATION CONVERGED  **

                    Orbital Energies (a.u.)
 --------------------------------------------------------------

 Alpha MOs
 -- Occupied --
-18.946 -18.943 -18.931 -18.919 -18.890 -18.890 -18.886 -18.878
-18.873 -18.855 -10.109 -10.109 -10.098 -10.086 -10.077 -10.073
-10.063 -10.061 -10.051 -10.051 -10.046 -10.043 -10.042 -10.039
-10.036 -10.029 -10.023 -10.021 -10.013 -10.012  -1.026  -1.017
 -1.008  -0.995  -0.972  -0.961  -0.949  -0.944  -0.933  -0.920
 -0.766  -0.758  -0.730  -0.720  -0.712  -0.705  -0.694  -0.657
 -0.648  -0.621  -0.598  -0.579  -0.549  -0.540  -0.537  -0.530
 -0.517  -0.508  -0.490  -0.479  -0.461  -0.457  -0.446  -0.444
 -0.434  -0.431  -0.425  -0.418  -0.409  -0.406  -0.402  -0.399
 -0.394  -0.380  -0.376  -0.365  -0.362  -0.361  -0.355  -0.349
 -0.343  -0.340  -0.334  -0.332  -0.329  -0.322  -0.317  -0.314
 -0.309  -0.309  -0.301  -0.297  -0.294  -0.284  -0.281  -0.273
 -0.272  -0.259  -0.250  -0.246  -0.239  -0.236  -0.224  -0.200
 -0.176  -0.172  -0.163  -0.162  -0.161  -0.151  -0.145  -0.138
 -0.134

          Ground-State Mulliken Net Atomic Charges

     Atom                 Charge (a.u.)
  ----------------------------------------
      1 O                    -0.222273
      2 C                     0.212251
      3 C                    -0.081720
      4 C                    -0.079921
      5 C                     0.218332
      6 O                    -0.175924
      7 C                    -0.057242
      8 C                    -0.050690
      9 O                    -0.161767
     10 C                     0.213030
     11 C                    -0.077914
     12 C                    -0.078764
     13 C                     0.206261
     14 O                    -0.216380
     15 O                    -0.167768
     16 O                    -0.171455
     17 O                    -0.215224
     18 C                    -0.146651
     19 C                     0.026981
     20 C                    -0.144243
     21 C                    -0.143650
     22 C                     0.025813
     23 O                    -0.183067
     24 H                     0.086460
     25 H                     0.086521
     26 H                     0.084408
     27 H                     0.078538
     28 H                     0.073894
     29 H                     0.078396
     30 H                     0.073709
     31 H                     0.086328
     32 O                    -0.205157
     33 C                    -0.126981
     34 C                     0.026343
     35 C                    -0.144913
     36 C                    -0.144006
     37 C                     0.012148
     38 O                    -0.188977
     39 H                     0.081735
     40 H                     0.084250
     41 H                     0.085404
     42 H                     0.085682
     43 H                     0.076109
     44 H                     0.071072
     45 H                     0.077249
     46 H                     0.070442
     47 H                     0.108866
     48 H                     0.091757
     49 H                     0.087317
     50 H                     0.080772
     51 H                     0.082060
     52 H                     0.108512
     53 H                     0.094871
     54 H                     0.098740
     55 H                     0.098328
     56 H                     0.112111
  ----------------------------------------
  Sum of atomic charges =    -0.000000

                    Cartesian Multipole Moments
 -----------------------------------------------------------------
    Charge (ESU x 10^10)
                 0.0000
    Dipole Moment (Debye)
         X       1.7203      Y       1.5429      Z      -1.3231
       Tot       2.6628
    Quadrupole Moments (Debye-Ang)
        XX    -157.7669     XY       0.3356     YY    -151.8477
        XZ      -2.6032     YZ      -0.0455     ZZ    -164.3190

 Total job time:  225.24s(wall), 10746.55s(cpu)
        *  Thank you very much for using Q-Chem.  Have a nice day.  *
