 Q-Chem 5.0, Q-Chem, Inc., Pleasanton, CA (2017)
 Q-Chem 5.0.1 for Intel X86 EM64T Linux

User input:
--------------------------------------------------------------
$molecule
0  1
O -3.94934 -3.66094 2.70899
C -3.26408 -4.56952 2.26188
C -3.36658 -6.02376 2.66595
C -2.87942 -6.39736 4.07554
C -2.50972 -5.24879 4.98779
O -1.97948 -4.22586 4.25437
C -1.60341 -3.09762 5.05118
C -1.90017 -1.8027 4.30202
O -0.86512 -0.84058 4.55869
C -0.3461 -0.86267 5.8114
C 0.58117 0.29759 6.08462
C 0.09362 1.27575 7.1634
C -1.0353 0.77915 8.0441
O -1.47164 1.35597 9.02972
O -2.48634 -4.32872 1.17149
O -1.93384 -0.1235 7.56631
O -0.40297 -1.72755 6.67919
C -3.06871 -0.57496 8.21447
C 1.95417 -0.11317 6.64472
C 2.97652 0.98788 6.36737
C 2.50056 2.06229 7.32423
C 1.36574 1.31613 8.03572
O 1.7915 -0.02633 8.03811
H 0.72862 0.84352 5.12374
H -0.19277 2.27805 6.77586
H 2.3136 -1.08839 6.24926
H 3.9648 0.61242 6.7175
H 3.05976 1.30223 5.30476
H 3.32602 2.28738 8.03566
H 2.14117 2.99996 6.8476
H 1.17976 1.76688 9.03578
O -2.36139 -5.385 6.19732
C -2.4756 -3.15532 0.44563
C -4.83169 -6.48289 2.72139
C -4.91263 -8.00481 2.60572
C -4.40546 -8.41598 3.97085
C -4.17854 -7.04281 4.60991
O -5.19867 -6.24724 4.05658
H -2.81162 -6.61553 1.90245
H -2.04036 -7.12763 4.09459
H -2.16478 -2.29951 1.07251
H -5.46635 -6.00255 1.94419
H -5.98702 -8.28644 2.52759
H -4.35463 -8.42847 1.74305
H -5.22774 -8.94207 4.50571
H -3.49109 -9.04776 3.97066
H -4.18846 -7.14072 5.71787
H -3.48504 -2.96014 0.02507
H -1.75537 -3.25507 -0.39203
H -3.58294 -1.31678 7.56958
H -3.76343 0.26933 8.41014
H -2.79026 -1.06565 9.17149
H -1.81838 -2.00894 3.22157
H -2.92102 -1.41256 4.50017
H -0.50105 -3.26051 5.06353
H -2.0729 -3.07936 6.06371
$end

$opt
CONSTRAINT
tors           1           2           3           4     -70.549
tors           3           4           5           6     -33.408
tors           4           5           6           7    -180.000
tors           5           6           7           8    -142.921
tors           6           7           8           9    -142.408
tors           7           8           9          10     -35.788
tors           8           9          10          11    -171.307
tors           9          10          11          12    +114.987
tors          11          12          13          14    +172.769
ENDCONSTRAINT
$end

$rem
JOBTYPE                   OPT
METHOD                    B3LYP
DFT_D                     d3_op
BASIS                     STO-3G
GEOM_OPT_MAX_CYCLES       100
GEOM_OPT_TOL_GRADIENT     300
GEOM_OPT_TOL_DISPLACEMENT 1200
GEOM_OPT_TOL_ENERGY       100
SYMMETRY                  False
THRESH                    12
SCF_CONVERGENCE           8
MAX_SUB_FILE_NUM          128
MEM_STATIC                400
MEM_TOTAL                 4000
$end
--------------------------------------------------------------

   15   -1510.1065920547      7.65E-09 Convergence criterion met
 Total energy in the final basis set = -1510.10659205
   14   -1510.1838039128      5.90E-09 Convergence criterion met
 Total energy in the final basis set = -1510.18380391
   14   -1510.2266797403      2.80E-09 Convergence criterion met
 Total energy in the final basis set = -1510.22667974
   14   -1510.2508445387      6.77E-09 Convergence criterion met
 Total energy in the final basis set = -1510.25084454
   14   -1510.2608023871      3.42E-09 Convergence criterion met
 Total energy in the final basis set = -1510.26080239
   13   -1510.2651261178      8.53E-09 Convergence criterion met
 Total energy in the final basis set = -1510.26512612
   13   -1510.2677447716      6.57E-09 Convergence criterion met
 Total energy in the final basis set = -1510.26774477
   13   -1510.2691148851      4.03E-09 Convergence criterion met
   12   -1510.2724144528      2.73E-09 Convergence criterion met
 Total energy in the final basis set = -1510.27241445
   11   -1510.2724875013      7.68E-09 Convergence criterion met
 Total energy in the final basis set = -1510.27248750
   11   -1510.2725418004      4.14E-09 Convergence criterion met
 Total energy in the final basis set = -1510.27254180
   11   -1510.2725740463      2.61E-09 Convergence criterion met
 Total energy in the final basis set = -1510.27257405
    9   -1510.2725932739      9.26E-09 Convergence criterion met
 Total energy in the final basis set = -1510.27259327
   11   -1510.2725984703      1.67E-09 Convergence criterion met
 Total energy in the final basis set = -1510.27259847

             Standard Nuclear Orientation (Angstroms)
    I     Atom           X                Y                Z
 ----------------------------------------------------------------
    1      O      -3.1420103560     0.5634635043     1.8186191893
    2      C      -3.6625229042     1.1636434462     0.8542164888
    3      C      -4.7019239344     0.6221492111    -0.1896216162
    4      C      -4.1703910349    -0.4436836335    -1.2374232095
    5      C      -2.6508798330    -0.8288829364    -1.1693669227
    6      O      -1.8697306325     0.2972456819    -0.7625542080
    7      C      -0.4266647917    -0.0771326434    -0.7003245277
    8      C       0.1799515263     0.6866966260     0.5361663980
    9      O       1.5570323036     1.2280758589     0.4279733722
   10      C       2.4635773452     0.4169220414    -0.3338078159
   11      C       3.8997614738     1.0329395240    -0.1423827296
   12      C       4.9259188633     0.0947876941     0.6186949482
   13      C       4.3571685480    -1.1305245923     1.4178686964
   14      O       5.0369681110    -2.0291013884     1.9595583911
   15      O      -3.5067952383     2.5708700250     0.6064220589
   16      O       2.9386504643    -1.0191807599     1.5632968924
   17      O       2.1555797860    -0.5420570676    -1.0709704856
   18      C       2.3990232345    -2.1802771155     2.3064000323
   19      C       4.5996215180     1.1040284676    -1.5687052321
   20      C       5.9455958973     1.9260715812    -1.4650151293
   21      C       6.9053315969     0.8659565690    -0.8064347746
   22      C       5.9037337633    -0.3286733771    -0.5644093217
   23      O       5.0465438147    -0.2945669553    -1.7696314650
   24      H       3.8059539570     2.0168911868     0.3486534237
   25      H       5.4896723351     0.6968235090     1.3566277447
   26      H       3.9234827143     1.4120028293    -2.3896248545
   27      H       6.2943957061     2.2235323095    -2.4665567514
   28      H       5.8282214700     2.8326855675    -0.8496977888
   29      H       7.7031385758     0.5590163720    -1.5016719993
   30      H       7.3668742593     1.2248700745     0.1272874845
   31      H       6.3685611525    -1.3257921030    -0.4373816647
   32      O      -2.1758402434    -1.9555106617    -1.4348307716
   33      C      -2.6922846602     3.1938157024     1.6729347956
   34      C      -5.8284535349    -0.2355492424     0.5399377026
   35      C      -7.0651631682    -0.3726098108    -0.4336857352
   36      C      -6.5280415715    -1.4374967126    -1.4608686275
   37      C      -5.0789400529    -1.6991853258    -0.8941341333
   38      O      -5.2554163170    -1.5992065078     0.5728484936
   39      H      -5.1291922891     1.4965288043    -0.7107398059
   40      H      -4.3712210733    -0.0868694957    -2.2654210470
   41      H      -1.6611257102     2.7874568060     1.7011317115
   42      H      -6.0704190805     0.1051544542     1.5653054249
   43      H      -7.9445322441    -0.7478671676     0.1134458542
   44      H      -7.3280892751     0.5854425860    -0.9100230691
   45      H      -7.1252319555    -2.3626997847    -1.4329926209
   46      H      -6.5073556554    -1.0600063023    -2.4956432323
   47      H      -4.6167762642    -2.6674436822    -1.1694538753
   48      H      -3.1495994512     3.0483219067     2.6730989334
   49      H      -2.6528672070     4.2731513266     1.4370804440
   50      H       1.3101142988    -2.0086057271     2.3898396130
   51      H       2.8445277331    -2.2561461061     3.3192266588
   52      H       2.5839248564    -3.1300048361     1.7643855961
   53      H      -0.4558394326     1.5748482415     0.7295337536
   54      H       0.1236451966     0.0307178410     1.4328250233
   55      H       0.0516233920     0.2549764654    -1.6448451350
   56      H      -0.3296432119    -1.1787828421    -0.6233834312
 ----------------------------------------------------------------

    9   -1510.2725998710      4.60E-09 Convergence criterion met
 Total energy in the final basis set = -1510.27259987
 Final energy is   -1510.27259987097
 **  OPTIMIZATION CONVERGED  **

                    Orbital Energies (a.u.)
 --------------------------------------------------------------

 Alpha MOs
 -- Occupied --
-18.943 -18.935 -18.929 -18.928 -18.888 -18.887 -18.877 -18.875
-18.867 -18.866 -10.104 -10.101 -10.099 -10.096 -10.072 -10.068
-10.066 -10.063 -10.060 -10.059 -10.059 -10.057 -10.040 -10.038
-10.035 -10.035 -10.021 -10.020 -10.020 -10.019  -1.017  -1.014
 -1.004  -1.002  -0.970  -0.969  -0.940  -0.938  -0.932  -0.930
 -0.763  -0.762  -0.727  -0.722  -0.710  -0.705  -0.696  -0.665
 -0.663  -0.618  -0.597  -0.585  -0.545  -0.543  -0.537  -0.537
 -0.512  -0.510  -0.482  -0.481  -0.459  -0.458  -0.449  -0.445
 -0.434  -0.431  -0.427  -0.415  -0.414  -0.412  -0.408  -0.396
 -0.387  -0.385  -0.374  -0.367  -0.363  -0.362  -0.353  -0.350
 -0.348  -0.337  -0.333  -0.330  -0.329  -0.325  -0.324  -0.313
 -0.311  -0.306  -0.304  -0.298  -0.294  -0.293  -0.288  -0.274
 -0.272  -0.252  -0.249  -0.247  -0.243  -0.234  -0.233  -0.184
 -0.180  -0.172  -0.166  -0.157  -0.157  -0.147  -0.147  -0.143
 -0.140

          Ground-State Mulliken Net Atomic Charges

     Atom                 Charge (a.u.)
  ----------------------------------------
      1 O                    -0.218423
      2 C                     0.213591
      3 C                    -0.080222
      4 C                    -0.078497
      5 C                     0.211416
      6 O                    -0.173619
      7 C                    -0.051961
      8 C                    -0.048978
      9 O                    -0.173766
     10 C                     0.220006
     11 C                    -0.079336
     12 C                    -0.079229
     13 C                     0.211633
     14 O                    -0.213089
     15 O                    -0.171239
     16 O                    -0.168187
     17 O                    -0.216075
     18 C                    -0.126126
     19 C                     0.025878
     20 C                    -0.145293
     21 C                    -0.142565
     22 C                     0.025457
     23 O                    -0.185530
     24 H                     0.085430
     25 H                     0.085365
     26 H                     0.082738
     27 H                     0.078182
     28 H                     0.073248
     29 H                     0.078593
     30 H                     0.073598
     31 H                     0.088294
     32 O                    -0.212388
     33 C                    -0.128392
     34 C                     0.025970
     35 C                    -0.144219
     36 C                    -0.143891
     37 C                     0.024179
     38 O                    -0.187769
     39 H                     0.085801
     40 H                     0.084920
     41 H                     0.084021
     42 H                     0.083092
     43 H                     0.077945
     44 H                     0.073400
     45 H                     0.078473
     46 H                     0.073278
     47 H                     0.091428
     48 H                     0.087451
     49 H                     0.089538
     50 H                     0.092238
     51 H                     0.091951
     52 H                     0.093893
     53 H                     0.090336
     54 H                     0.085613
     55 H                     0.093496
     56 H                     0.108338
  ----------------------------------------
  Sum of atomic charges =     0.000000

                    Cartesian Multipole Moments
 -----------------------------------------------------------------
    Charge (ESU x 10^10)
                 0.0000
    Dipole Moment (Debye)
         X      -0.7907      Y       3.6430      Z       0.2266
       Tot       3.7347
    Quadrupole Moments (Debye-Ang)
        XX    -144.1168     XY       5.2780     YY    -160.5249
        XZ       6.9039     YZ      -0.0790     ZZ    -160.4823

 Total job time:  55.74s(wall), 2652.48s(cpu)
        *  Thank you very much for using Q-Chem.  Have a nice day.  *
