 Q-Chem 5.0, Q-Chem, Inc., Pleasanton, CA (2017)
 Q-Chem 5.0.1 for Intel X86 EM64T Linux

User input:
--------------------------------------------------------------
$molecule
0  1
O -3.142010356 0.5634635043 1.8186191893
C -3.6625229042 1.1636434462 0.8542164888
C -4.7019239344 0.6221492111 -0.1896216162
C -4.1703910349 -0.4436836335 -1.2374232095
C -2.650879833 -0.8288829364 -1.1693669227
O -1.8697306325 0.2972456819 -0.762554208
C -0.4266647917 -0.0771326434 -0.7003245277
C 0.1799515263 0.686696626 0.536166398
O 1.5570323036 1.2280758589 0.4279733722
C 2.4635773452 0.4169220414 -0.3338078159
C 3.8997614738 1.032939524 -0.1423827296
C 4.9259188633 0.0947876941 0.6186949482
C 4.357168548 -1.1305245923 1.4178686964
O 5.036968111 -2.0291013884 1.9595583911
O -3.5067952383 2.570870025 0.6064220589
O 2.9386504643 -1.0191807599 1.5632968924
O 2.155579786 -0.5420570676 -1.0709704856
C 2.3990232345 -2.1802771155 2.3064000323
C 4.599621518 1.1040284676 -1.5687052321
C 5.9455958973 1.9260715812 -1.4650151293
C 6.9053315969 0.865956569 -0.8064347746
C 5.9037337633 -0.3286733771 -0.5644093217
O 5.0465438147 -0.2945669553 -1.769631465
H 3.805953957 2.0168911868 0.3486534237
H 5.4896723351 0.696823509 1.3566277447
H 3.9234827143 1.4120028293 -2.3896248545
H 6.2943957061 2.2235323095 -2.4665567514
H 5.82822147 2.8326855675 -0.8496977888
H 7.7031385758 0.559016372 -1.5016719993
H 7.3668742593 1.2248700745 0.1272874845
H 6.3685611525 -1.325792103 -0.4373816647
O -2.1758402434 -1.9555106617 -1.4348307716
C -2.6922846602 3.1938157024 1.6729347956
C -5.8284535349 -0.2355492424 0.5399377026
C -7.0651631682 -0.3726098108 -0.4336857352
C -6.5280415715 -1.4374967126 -1.4608686275
C -5.0789400529 -1.6991853258 -0.8941341333
O -5.255416317 -1.5992065078 0.5728484936
H -5.1291922891 1.4965288043 -0.7107398059
H -4.3712210733 -0.0868694957 -2.265421047
H -1.6611257102 2.787456806 1.7011317115
H -6.0704190805 0.1051544542 1.5653054249
H -7.9445322441 -0.7478671676 0.1134458542
H -7.3280892751 0.585442586 -0.9100230691
H -7.1252319555 -2.3626997847 -1.4329926209
H -6.5073556554 -1.0600063023 -2.4956432323
H -4.6167762642 -2.6674436822 -1.1694538753
H -3.1495994512 3.0483219067 2.6730989334
H -2.652867207 4.2731513266 1.437080444
H 1.3101142988 -2.0086057271 2.389839613
H 2.8445277331 -2.2561461061 3.3192266588
H 2.5839248564 -3.1300048361 1.7643855961
H -0.4558394326 1.5748482415 0.7295337536
H 0.1236451966 0.030717841 1.4328250233
H 0.051623392 0.2549764654 -1.644845135
H -0.3296432119 -1.1787828421 -0.6233834312
$end

$rem
JOBTYPE                   OPT
METHOD                    B3LYP
DFT_D                     d3_op
BASIS                     STO-3G
GEOM_OPT_MAX_CYCLES       100
GEOM_OPT_TOL_GRADIENT     300
GEOM_OPT_TOL_DISPLACEMENT 1200
GEOM_OPT_TOL_ENERGY       100
SYMMETRY                  False
THRESH                    12
SCF_CONVERGENCE           8
MAX_SUB_FILE_NUM          128
MEM_STATIC                400
MEM_TOTAL                 4000
$end
--------------------------------------------------------------

   16   -1510.2726727465      5.53E-09 Convergence criterion met
 Total energy in the final basis set = -1510.27267275
   14   -1510.2755172198      6.18E-09 Convergence criterion met
 Total energy in the final basis set = -1510.27551722
   14   -1510.2775028821      5.02E-09 Convergence criterion met
 Total energy in the final basis set = -1510.27750288
   14   -1510.2794413654      4.80E-09 Convergence criterion met
 Total energy in the final basis set = -1510.27944137
   13   -1510.2810458442      7.14E-09 Convergence criterion met
 Total energy in the final basis set = -1510.28104584
   13   -1510.2823615894      5.79E-09 Convergence criterion met
 Total energy in the final basis set = -1510.28236159
   13   -1510.2835408137      5.91E-09 Convergence criterion met
 Total energy in the final basis set = -1510.28354081
   13   -1510.2845386047      6.92E-09 Convergence criterion met
   12   -1510.2898006499      7.54E-09 Convergence criterion met
 Total energy in the final basis set = -1510.28980065
   12   -1510.2898439496      3.58E-09 Convergence criterion met
 Total energy in the final basis set = -1510.28984395
   11   -1510.2898383315      6.27E-09 Convergence criterion met
 Total energy in the final basis set = -1510.28983833
   10   -1510.2898457540      7.17E-09 Convergence criterion met
 Total energy in the final basis set = -1510.28984575
   10   -1510.2898430455      3.26E-09 Convergence criterion met
 Total energy in the final basis set = -1510.28984305
    9   -1510.2898460750      7.07E-09 Convergence criterion met
 Total energy in the final basis set = -1510.28984608

             Standard Nuclear Orientation (Angstroms)
    I     Atom           X                Y                Z
 ----------------------------------------------------------------
    1      O      -2.5162761409     1.1290912400     1.4742789493
    2      C      -3.3689974413     1.5586170647     0.6635861927
    3      C      -4.5668799017     0.7761458156     0.0217920149
    4      C      -4.1262756374    -0.3023584265    -1.0591702747
    5      C      -2.5718339771    -0.4482703927    -1.2275359948
    6      O      -2.0093026721     0.8587461466    -1.3918000884
    7      C      -0.5258871797     0.7941104797    -1.3927445643
    8      C       0.0269335082     0.4334111897     0.0421250008
    9      O       1.3733365820     1.0014163737     0.2840779068
   10      C       2.3602898146     0.2382516738    -0.4250298071
   11      C       3.7796980584     0.7816555999    -0.0444951357
   12      C       4.6533726548    -0.2914014153     0.7363384387
   13      C       3.9095076845    -1.6563895207     0.9609222191
   14      O       4.3187003290    -2.8018246247     0.6798691137
   15      O      -3.4300447040     2.9143568669     0.2085810565
   16      O       2.6401693340    -1.3751687281     1.5650561867
   17      O       2.0903147088    -0.6853812557    -1.2236932244
   18      C       1.8375980899    -2.6151597592     1.6744318098
   19      C       4.6820313307     1.0039813442    -1.3343304789
   20      C       5.9413216396     1.8645186712    -0.9197160599
   21      C       6.8034166790     0.7940384348    -0.1514976461
   22      C       5.8723713382    -0.4760874298    -0.2555752477
   23      O       5.2465801259    -0.3393613450    -1.5920809084
   24      H       3.6567723019     1.7080236003     0.5429963003
   25      H       4.9734965583     0.1021546147     1.7186727124
   26      H       4.1314690770     1.3694549736    -2.2226786309
   27      H       6.4635962235     2.2369323708    -1.8152220044
   28      H       5.6662361187     2.7241356053    -0.2876485993
   29      H       7.7637575768     0.6106662082    -0.6592839637
   30      H       7.0047652526     1.0791188471     0.8935137780
   31      H       6.3766400343    -1.4579204802    -0.1651679341
   32      O      -1.9109448886    -1.5080118379    -1.2257663983
   33      C      -2.2919237925     3.6872634782     0.7572669772
   34      C      -5.3046545987    -0.1588964951     1.0776525735
   35      C      -6.7135805643    -0.5568009491     0.4842013140
   36      C      -6.2963044417    -1.6051939797    -0.6133564222
   37      C      -4.7288049768    -1.6263765644    -0.4337504321
   38      O      -4.5363011926    -1.4223848830     1.0217643134
   39      H      -5.2557191392     1.5169560248    -0.4203150520
   40      H      -4.5696784767    -0.0704419399    -2.0451481503
   41      H      -1.3302132040     3.3570500703     0.3145416894
   42      H      -5.3202665209     0.2388612961     2.1108984694
   43      H      -7.3406522232    -1.0170109196     1.2643682784
   44      H      -7.2501506023     0.3096984309     0.0654133562
   45      H      -6.7222274406    -2.5995148945    -0.4054905604
   46      H      -6.5922328437    -1.2984939407    -1.6293624964
   47      H      -4.2125641915    -2.5480422835    -0.7663653623
   48      H      -2.2243797462     3.5885792854     1.8596614684
   49      H      -2.4779448428     4.7425556644     0.4859675954
   50      H       0.9189950718    -2.3380091174     2.2236403335
   51      H       2.3813515725    -3.4074735143     2.2274793708
   52      H       1.5665291134    -3.0033093040     0.6708664095
   53      H      -0.6547753136     0.8694825088     0.8073626728
   54      H       0.0385030931    -0.6697486481     0.1540356110
   55      H      -0.1921666010     1.8110310082    -1.6830820946
   56      H      -0.1556308894     0.0581679141    -2.1373996876
 ----------------------------------------------------------------

    9   -1510.2898461030      2.38E-09 Convergence criterion met
 Total energy in the final basis set = -1510.28984610
 Final energy is   -1510.28984610303
 **  OPTIMIZATION CONVERGED  **

                    Orbital Energies (a.u.)
 --------------------------------------------------------------

 Alpha MOs
 -- Occupied --
-18.938 -18.938 -18.932 -18.926 -18.889 -18.884 -18.882 -18.876
-18.874 -18.864 -10.104 -10.103 -10.097 -10.093 -10.068 -10.066
-10.062 -10.059 -10.059 -10.058 -10.055 -10.055 -10.041 -10.039
-10.036 -10.034 -10.022 -10.021 -10.019 -10.017  -1.019  -1.011
 -1.010  -1.001  -0.971  -0.967  -0.942  -0.937  -0.934  -0.928
 -0.765  -0.760  -0.727  -0.721  -0.709  -0.704  -0.692  -0.666
 -0.657  -0.617  -0.597  -0.582  -0.547  -0.543  -0.539  -0.535
 -0.512  -0.507  -0.483  -0.471  -0.463  -0.456  -0.452  -0.448
 -0.434  -0.430  -0.427  -0.413  -0.412  -0.409  -0.406  -0.392
 -0.391  -0.384  -0.370  -0.369  -0.363  -0.355  -0.352  -0.350
 -0.348  -0.340  -0.336  -0.332  -0.329  -0.325  -0.323  -0.311
 -0.308  -0.307  -0.303  -0.300  -0.290  -0.289  -0.282  -0.276
 -0.270  -0.256  -0.255  -0.249  -0.242  -0.236  -0.231  -0.190
 -0.179  -0.174  -0.164  -0.159  -0.154  -0.152  -0.146  -0.144
 -0.140

          Ground-State Mulliken Net Atomic Charges

     Atom                 Charge (a.u.)
  ----------------------------------------
      1 O                    -0.222469
      2 C                     0.216423
      3 C                    -0.079629
      4 C                    -0.078308
      5 C                     0.212336
      6 O                    -0.173932
      7 C                    -0.054457
      8 C                    -0.063873
      9 O                    -0.172524
     10 C                     0.210091
     11 C                    -0.079268
     12 C                    -0.078207
     13 C                     0.213513
     14 O                    -0.206700
     15 O                    -0.166182
     16 O                    -0.171604
     17 O                    -0.218766
     18 C                    -0.129852
     19 C                     0.025340
     20 C                    -0.144001
     21 C                    -0.144060
     22 C                     0.024197
     23 O                    -0.186435
     24 H                     0.085173
     25 H                     0.084830
     26 H                     0.082161
     27 H                     0.077495
     28 H                     0.072723
     29 H                     0.078036
     30 H                     0.072771
     31 H                     0.090687
     32 O                    -0.206200
     33 C                    -0.129089
     34 C                     0.025508
     35 C                    -0.143623
     36 C                    -0.144255
     37 C                     0.023938
     38 O                    -0.187456
     39 H                     0.086706
     40 H                     0.086214
     41 H                     0.087855
     42 H                     0.083995
     43 H                     0.078450
     44 H                     0.073637
     45 H                     0.078870
     46 H                     0.073485
     47 H                     0.091403
     48 H                     0.091136
     49 H                     0.090640
     50 H                     0.093048
     51 H                     0.090568
     52 H                     0.094454
     53 H                     0.104929
     54 H                     0.095151
     55 H                     0.085959
     56 H                     0.099170
  ----------------------------------------
  Sum of atomic charges =    -0.000000

                    Cartesian Multipole Moments
 -----------------------------------------------------------------
    Charge (ESU x 10^10)
                 0.0000
    Dipole Moment (Debye)
         X      -1.9168      Y       3.5997      Z       0.5882
       Tot       4.1204
    Quadrupole Moments (Debye-Ang)
        XX    -140.5915     XY       9.2906     YY    -159.3526
        XZ       9.9072     YZ      -2.4252     ZZ    -161.1200

 Total job time:  83.59s(wall), 3979.33s(cpu)
        *  Thank you very much for using Q-Chem.  Have a nice day.  *
