 Q-Chem 5.0, Q-Chem, Inc., Pleasanton, CA (2017)
 Q-Chem 5.0.1 for Intel X86 EM64T Linux

User input:
--------------------------------------------------------------
$molecule
0  1
O -3.94934 -3.66094 2.70899
C -3.26408 -4.56952 2.26188
C -3.36658 -6.02376 2.66595
C -3.92413 -6.32624 4.06648
C -4.48256 -5.15127 4.8383
O -3.57258 -4.73078 5.76595
C -4.03073 -3.61682 6.53953
C -3.55912 -2.31017 5.90993
O -3.94336 -1.20127 6.73793
C -3.7253 0.0269 6.20577
C -3.95128 1.14535 7.19504
C -2.94325 2.30055 7.10744
C -2.10055 2.34817 5.84875
O -1.55378 3.34488 5.39912
O -2.38452 -4.29304 1.26379
O -1.46341 1.18227 5.54424
O -3.71344 0.21214 4.99299
C -0.50716 1.02765 4.56003
C -5.27133 1.90382 6.94636
C -5.72357 2.58019 8.23904
C -4.67607 3.66718 8.3677
C -3.92863 3.48452 7.04045
O -4.90931 3.00592 6.15314
H -3.99441 0.70264 8.21724
H -2.25188 2.34664 7.97711
H -6.08173 1.25633 6.54512
H -6.70685 3.05681 8.02257
H -5.82863 1.91644 9.124
H -5.19519 4.65051 8.40632
H -3.98617 3.56285 9.23308
H -3.43349 4.43647 6.74765
O -5.5366 -4.58177 4.57022
C -2.17691 -3.03465 0.7388
C -4.3994 -6.77048 1.79893
C -4.10548 -8.27035 1.81228
C -4.53568 -8.62993 3.2195
C -5.07513 -7.27823 3.699
O -5.59765 -6.69092 2.53199
H -2.36123 -6.47707 2.50966
H -3.15742 -6.82741 4.70107
H -1.81746 -2.34387 1.53146
H -4.44049 -6.39733 0.75177
H -4.80797 -8.75165 1.09461
H -3.06274 -8.54858 1.54738
H -5.3618 -9.37271 3.15532
H -3.72905 -9.01564 3.87983
H -5.78996 -7.42036 4.53966
H -3.11897 -2.6434 0.29841
H -1.40823 -3.09529 -0.05865
H -0.18 -0.03207 4.53563
H 0.37482 1.66829 4.77448
H -0.93449 1.293 3.56938
H -2.45398 -2.32078 5.78056
H -4.04574 -2.23291 4.91351
H -3.5676 -3.69666 7.5458
H -5.13207 -3.61275 6.71136
$end

$opt
CONSTRAINT
tors           1           2           3           4     -25.526
tors           3           4           5           6    -101.306
tors           4           5           6           7    -180.000
tors           5           6           7           8     -93.576
tors           6           7           8           9    -176.103
tors           7           8           9          10    -172.256
tors           8           9          10          11    -171.307
tors           9          10          11          12    +140.557
tors          11          12          13          14    +157.022
ENDCONSTRAINT
$end

$rem
JOBTYPE                   OPT
METHOD                    B3LYP
DFT_D                     d3_op
BASIS                     STO-3G
GEOM_OPT_MAX_CYCLES       100
GEOM_OPT_TOL_GRADIENT     300
GEOM_OPT_TOL_DISPLACEMENT 1200
GEOM_OPT_TOL_ENERGY       100
SYMMETRY                  False
THRESH                    12
SCF_CONVERGENCE           8
MAX_SUB_FILE_NUM          128
MEM_STATIC                400
MEM_TOTAL                 4000
$end
--------------------------------------------------------------

   16   -1510.1372896066      2.20E-09 Convergence criterion met
 Total energy in the final basis set = -1510.13728961
   13   -1510.2082354980      8.75E-09 Convergence criterion met
 Total energy in the final basis set = -1510.20823550
   13   -1510.2468882664      9.12E-09 Convergence criterion met
 Total energy in the final basis set = -1510.24688827
   13   -1510.2647132989      8.27E-09 Convergence criterion met
 Total energy in the final basis set = -1510.26471330
   13   -1510.2716739154      6.67E-09 Convergence criterion met
 Total energy in the final basis set = -1510.27167392
   13   -1510.2747670102      3.94E-09 Convergence criterion met
 Total energy in the final basis set = -1510.27476701
   13   -1510.2764473210      5.81E-09 Convergence criterion met
 Total energy in the final basis set = -1510.27644732
   13   -1510.2775056500      4.88E-09 Convergence criterion met
   11   -1510.2809339016      8.21E-09 Convergence criterion met
 Total energy in the final basis set = -1510.28093390
   11   -1510.2809867033      6.74E-09 Convergence criterion met
 Total energy in the final basis set = -1510.28098670
   11   -1510.2810175611      2.82E-09 Convergence criterion met
 Total energy in the final basis set = -1510.28101756
   10   -1510.2810353024      7.06E-09 Convergence criterion met
 Total energy in the final basis set = -1510.28103530
    9   -1510.2810401239      9.30E-09 Convergence criterion met
 Total energy in the final basis set = -1510.28104012
    9   -1510.2810424656      6.30E-09 Convergence criterion met
 Total energy in the final basis set = -1510.28104247

             Standard Nuclear Orientation (Angstroms)
    I     Atom           X                Y                Z
 ----------------------------------------------------------------
    1      O      -2.1142520608     0.5273980020     0.8127922715
    2      C      -3.1340020449     1.2084847825     0.5580915085
    3      C      -4.4922022442     0.7009067199    -0.0275440938
    4      C      -4.3440851067    -0.6252528872    -0.8819765039
    5      C      -2.9565222534    -1.3383394358    -0.6729913082
    6      O      -2.1264059894    -1.0155130220    -1.8044859979
    7      C      -0.8025861231    -1.6653645217    -1.6562006389
    8      C       0.1718137973    -0.6453890015    -0.9729088121
    9      O       1.5172246565    -1.2681010752    -0.9144452735
   10      C       2.3961811897    -0.4443144996    -0.1365773175
   11      C       3.8546435048    -1.0101463694    -0.2805423940
   12      C       4.9445862468     0.1292415728    -0.3950281619
   13      C       4.4184365072     1.5451485632    -0.8187268182
   14      O       4.9664914910     2.6462002554    -0.5995270399
   15      O      -3.2326886292     2.6122407192     0.8012836712
   16      O       3.2922081702     1.3727130063    -1.6915689229
   17      O       2.0195040860     0.5083026291     0.5791001559
   18      C       2.7621717067     2.6878890719    -2.1136424226
   19      C       4.2757245273    -1.6427120438     1.1184086733
   20      C       5.6842086384    -2.3487099449     0.9812370786
   21      C       6.6581482542    -1.1124912773     1.0244554617
   22      C       5.6210728324     0.0764630110     1.0408588425
   23      O       4.5526002792    -0.4341917827     1.9302590078
   24      H       3.8938107711    -1.7303549003    -1.1153777271
   25      H       5.6884146742    -0.1544417694    -1.1643854881
   26      H       3.4879481643    -2.2572131996     1.5961917020
   27      H       5.8579753691    -3.0333204146     1.8263593930
   28      H       5.7660401413    -2.9203400952     0.0426202497
   29      H       7.2592746161    -1.1073935511     1.9477230034
   30      H       7.3369860325    -1.0682416740     0.1580035044
   31      H       6.0042608122     1.0510554127     1.4012407025
   32      O      -2.6611834187    -2.1872453875     0.1945848755
   33      C      -1.9709704518     3.1091178449     1.4024821895
   34      C      -5.5526693627     0.2441541109     1.0736861750
   35      C      -6.9788828110     0.3060987285     0.3990704684
   36      C      -6.8944726179    -0.9203376920    -0.5831382105
   37      C      -5.4765847935    -1.5155587359    -0.2179927908
   38      O      -5.3162538831    -1.2070836576     1.2239505722
   39      H      -4.9167104245     1.5189519794    -0.6363620907
   40      H      -4.4989264695    -0.4401159695    -1.9591310104
   41      H      -1.0965251908     2.8850400242     0.7583730475
   42      H      -5.4630798818     0.7612138529     2.0487762934
   43      H      -7.7644794662     0.1602180215     1.1576768530
   44      H      -7.1593873131     1.2612661153    -0.1194576185
   45      H      -7.6881658175    -1.6568384655    -0.3816612639
   46      H      -6.9523913749    -0.6196691215    -1.6416052212
   47      H      -5.3597396200    -2.6026919472    -0.3912458310
   48      H      -1.7943375583     2.6608894897     2.4014247235
   49      H      -2.0915890509     4.2033187971     1.5027032416
   50      H       1.9718451045     2.4747229647    -2.8568412030
   51      H       3.5501976362     3.3176751730    -2.5742801422
   52      H       2.3243272797     3.2386317156    -1.2560068430
   53      H       0.2137396681     0.2905238950    -1.5722922144
   54      H      -0.2127332427    -0.3833851035     0.0382052133
   55      H      -0.4501760123    -1.9267802728    -2.6743150564
   56      H      -0.8966135129    -2.5798458542    -1.0328188437
 ----------------------------------------------------------------

    9   -1510.2810432344      3.13E-09 Convergence criterion met
 Total energy in the final basis set = -1510.28104323
 Final energy is   -1510.28104323440
 **  OPTIMIZATION CONVERGED  **

                    Orbital Energies (a.u.)
 --------------------------------------------------------------

 Alpha MOs
 -- Occupied --
-18.943 -18.934 -18.922 -18.920 -18.890 -18.884 -18.884 -18.875
-18.865 -18.860 -10.106 -10.099 -10.092 -10.090 -10.067 -10.065
-10.063 -10.062 -10.060 -10.056 -10.056 -10.056 -10.040 -10.036
-10.035 -10.032 -10.022 -10.021 -10.018 -10.017  -1.019  -1.011
 -1.003  -0.997  -0.971  -0.966  -0.942  -0.936  -0.928  -0.923
 -0.764  -0.760  -0.725  -0.721  -0.710  -0.704  -0.690  -0.666
 -0.661  -0.612  -0.595  -0.574  -0.547  -0.543  -0.537  -0.534
 -0.513  -0.507  -0.478  -0.472  -0.463  -0.454  -0.452  -0.447
 -0.434  -0.431  -0.426  -0.414  -0.412  -0.411  -0.408  -0.392
 -0.389  -0.378  -0.372  -0.368  -0.358  -0.354  -0.352  -0.349
 -0.341  -0.339  -0.333  -0.330  -0.328  -0.326  -0.319  -0.313
 -0.309  -0.305  -0.303  -0.300  -0.290  -0.285  -0.278  -0.274
 -0.268  -0.260  -0.252  -0.244  -0.240  -0.235  -0.230  -0.185
 -0.177  -0.169  -0.163  -0.157  -0.154  -0.148  -0.144  -0.143
 -0.137

          Ground-State Mulliken Net Atomic Charges

     Atom                 Charge (a.u.)
  ----------------------------------------
      1 O                    -0.208426
      2 C                     0.211832
      3 C                    -0.080049
      4 C                    -0.080195
      5 C                     0.213380
      6 O                    -0.178983
      7 C                    -0.052063
      8 C                    -0.053669
      9 O                    -0.177046
     10 C                     0.216185
     11 C                    -0.078011
     12 C                    -0.079116
     13 C                     0.214295
     14 O                    -0.212574
     15 O                    -0.167981
     16 O                    -0.171056
     17 O                    -0.216689
     18 C                    -0.127997
     19 C                     0.025133
     20 C                    -0.145130
     21 C                    -0.142401
     22 C                     0.024965
     23 O                    -0.186832
     24 H                     0.085926
     25 H                     0.083666
     26 H                     0.083667
     27 H                     0.078000
     28 H                     0.073222
     29 H                     0.077993
     30 H                     0.072713
     31 H                     0.089529
     32 O                    -0.210548
     33 C                    -0.129051
     34 C                     0.026260
     35 C                    -0.142269
     36 C                    -0.145218
     37 C                     0.026627
     38 O                    -0.183742
     39 H                     0.085959
     40 H                     0.085717
     41 H                     0.093952
     42 H                     0.084748
     43 H                     0.078781
     44 H                     0.074141
     45 H                     0.078628
     46 H                     0.073582
     47 H                     0.086480
     48 H                     0.092571
     49 H                     0.091836
     50 H                     0.088924
     51 H                     0.090920
     52 H                     0.090649
     53 H                     0.078426
     54 H                     0.105510
     55 H                     0.085512
     56 H                     0.099320
  ----------------------------------------
  Sum of atomic charges =    -0.000000

                    Cartesian Multipole Moments
 -----------------------------------------------------------------
    Charge (ESU x 10^10)
                 0.0000
    Dipole Moment (Debye)
         X      -1.1297      Y       0.7766      Z      -3.0296
       Tot       3.3253
    Quadrupole Moments (Debye-Ang)
        XX    -140.8027     XY     -14.9092     YY    -157.8876
        XZ       0.3122     YZ       2.3412     ZZ    -159.7867

 Total job time:  57.48s(wall), 2733.90s(cpu)
        *  Thank you very much for using Q-Chem.  Have a nice day.  *
