 Q-Chem 5.0, Q-Chem, Inc., Pleasanton, CA (2017)
 Q-Chem 5.0.1 for Intel X86 EM64T Linux

User input:
--------------------------------------------------------------
$molecule
0  1
O -2.1142520608 0.527398002 0.8127922715
C -3.1340020449 1.2084847825 0.5580915085
C -4.4922022442 0.7009067199 -0.0275440938
C -4.3440851067 -0.6252528872 -0.8819765039
C -2.9565222534 -1.3383394358 -0.6729913082
O -2.1264059894 -1.015513022 -1.8044859979
C -0.8025861231 -1.6653645217 -1.6562006389
C 0.1718137973 -0.6453890015 -0.9729088121
O 1.5172246565 -1.2681010752 -0.9144452735
C 2.3961811897 -0.4443144996 -0.1365773175
C 3.8546435048 -1.0101463694 -0.280542394
C 4.9445862468 0.1292415728 -0.3950281619
C 4.4184365072 1.5451485632 -0.8187268182
O 4.966491491 2.6462002554 -0.5995270399
O -3.2326886292 2.6122407192 0.8012836712
O 3.2922081702 1.3727130063 -1.6915689229
O 2.019504086 0.5083026291 0.5791001559
C 2.7621717067 2.6878890719 -2.1136424226
C 4.2757245273 -1.6427120438 1.1184086733
C 5.6842086384 -2.3487099449 0.9812370786
C 6.6581482542 -1.1124912773 1.0244554617
C 5.6210728324 0.076463011 1.0408588425
O 4.5526002792 -0.4341917827 1.9302590078
H 3.8938107711 -1.7303549003 -1.1153777271
H 5.6884146742 -0.1544417694 -1.1643854881
H 3.4879481643 -2.2572131996 1.596191702
H 5.8579753691 -3.0333204146 1.826359393
H 5.7660401413 -2.9203400952 0.0426202497
H 7.2592746161 -1.1073935511 1.9477230034
H 7.3369860325 -1.068241674 0.1580035044
H 6.0042608122 1.0510554127 1.4012407025
O -2.6611834187 -2.1872453875 0.1945848755
C -1.9709704518 3.1091178449 1.4024821895
C -5.5526693627 0.2441541109 1.073686175
C -6.978882811 0.3060987285 0.3990704684
C -6.8944726179 -0.920337692 -0.5831382105
C -5.4765847935 -1.5155587359 -0.2179927908
O -5.3162538831 -1.2070836576 1.2239505722
H -4.9167104245 1.5189519794 -0.6363620907
H -4.4989264695 -0.4401159695 -1.9591310104
H -1.0965251908 2.8850400242 0.7583730475
H -5.4630798818 0.7612138529 2.0487762934
H -7.7644794662 0.1602180215 1.157676853
H -7.1593873131 1.2612661153 -0.1194576185
H -7.6881658175 -1.6568384655 -0.3816612639
H -6.9523913749 -0.6196691215 -1.6416052212
H -5.35973962 -2.6026919472 -0.391245831
H -1.7943375583 2.6608894897 2.4014247235
H -2.0915890509 4.2033187971 1.5027032416
H 1.9718451045 2.4747229647 -2.856841203
H 3.5501976362 3.317675173 -2.5742801422
H 2.3243272797 3.2386317156 -1.256006843
H 0.2137396681 0.290523895 -1.5722922144
H -0.2127332427 -0.3833851035 0.0382052133
H -0.4501760123 -1.9267802728 -2.6743150564
H -0.8966135129 -2.5798458542 -1.0328188437
$end

$rem
JOBTYPE                   OPT
METHOD                    B3LYP
DFT_D                     d3_op
BASIS                     STO-3G
GEOM_OPT_MAX_CYCLES       100
GEOM_OPT_TOL_GRADIENT     300
GEOM_OPT_TOL_DISPLACEMENT 1200
GEOM_OPT_TOL_ENERGY       100
SYMMETRY                  False
THRESH                    12
SCF_CONVERGENCE           8
MAX_SUB_FILE_NUM          128
MEM_STATIC                400
MEM_TOTAL                 4000
$end
--------------------------------------------------------------

   16   -1510.2810084499      7.51E-09 Convergence criterion met
 Total energy in the final basis set = -1510.28100845
   14   -1510.2820538912      2.19E-09 Convergence criterion met
 Total energy in the final basis set = -1510.28205389
   14   -1510.2850662702      3.44E-09 Convergence criterion met
 Total energy in the final basis set = -1510.28506627
   14   -1510.2865147534      3.93E-09 Convergence criterion met
 Total energy in the final basis set = -1510.28651475
   13   -1510.2876923649      4.68E-09 Convergence criterion met
 Total energy in the final basis set = -1510.28769236
   13   -1510.2887510606      8.40E-09 Convergence criterion met
 Total energy in the final basis set = -1510.28875106
   14   -1510.2900725842      4.46E-09 Convergence criterion met
 Total energy in the final basis set = -1510.29007258
   14   -1510.2820386651      9.14E-09 Convergence criterion met
   13   -1510.2919299077      3.75E-09 Convergence criterion met
 Total energy in the final basis set = -1510.29192991
   12   -1510.2922380592      6.12E-09 Convergence criterion met
 Total energy in the final basis set = -1510.29223806
   12   -1510.2922203000      3.03E-09 Convergence criterion met
 Total energy in the final basis set = -1510.29222030
   12   -1510.2922559453      2.93E-09 Convergence criterion met
 Total energy in the final basis set = -1510.29225595
   12   -1510.2922524082      3.26E-09 Convergence criterion met
 Total energy in the final basis set = -1510.29225241
   11   -1510.2922578865      7.38E-09 Convergence criterion met
 Total energy in the final basis set = -1510.29225789

             Standard Nuclear Orientation (Angstroms)
    I     Atom           X                Y                Z
 ----------------------------------------------------------------
    1      O      -1.8996272122    -0.2783368687     0.8905104177
    2      C      -2.5785119809     0.7230269956     0.5547959862
    3      C      -4.0143500986     0.7016911537    -0.0710364371
    4      C      -4.3007743904    -0.5960459297    -0.9429391872
    5      C      -3.0465207397    -1.5217109032    -1.1344858782
    6      O      -2.1911062227    -0.8706005576    -2.0909310132
    7      C      -0.8442895757    -1.4964347369    -2.1048740713
    8      C       0.0537405931    -0.5701332605    -1.2207783802
    9      O       1.4300978878    -1.1139824190    -1.1236823462
   10      C       2.1372460684    -0.3899334507    -0.1161223701
   11      C       3.6120514139    -0.9111847728    -0.0618989126
   12      C       4.6723876584     0.2378982126    -0.3423944183
   13      C       4.0014842718     1.6368647519    -0.5838539527
   14      O       4.2054170496     2.7013651165     0.0348767148
   15      O      -2.1446396349     2.0690086273     0.7028744772
   16      O       3.0769271977     1.4970289490    -1.6739259686
   17      O       1.6291009182     0.5034827892     0.6025540562
   18      C       2.2869122017     2.7381623985    -1.8346584756
   19      C       4.0281023790    -1.3378415206     1.4129309410
   20      C       5.3610946404    -2.1804413748     1.3264200415
   21      C       6.4163068719    -1.0506378676     1.0293678777
   22      C       5.4947395145     0.2307619119     1.0092537653
   23      O       4.4602169563    -0.0637800788     2.0295037844
   24      H       3.7133211771    -1.7443807395    -0.7786323041
   25      H       5.3015285568    -0.0106388956    -1.2168950429
   26      H       3.2133007792    -1.7987156501     2.0043808444
   27      H       5.5620372675    -2.6793450302     2.2877753190
   28      H       5.3187420788    -2.9443572310     0.5333735681
   29      H       7.1653880840    -0.9757333810     1.8335763935
   30      H       6.9395307127    -1.1998373324     0.0713305466
   31      H       5.9949486754     1.1926144035     1.2344753033
   32      O      -2.8308549086    -2.6456015498    -0.6356006039
   33      C      -0.8321138040     2.1249637133     1.4024610843
   34      C      -5.1101680341     0.5239647049     1.0712571324
   35      C      -6.5371084748     0.8042431054     0.4521385656
   36      C      -6.7913565424    -0.5268819909    -0.3488102429
   37      C      -5.4381364044    -1.2962527939    -0.0892080348
   38      O      -5.1040021161    -0.9357195912     1.3087179838
   39      H      -4.1668808752     1.6319278181    -0.6461327178
   40      H      -4.6634178376    -0.3058261682    -1.9457265214
   41      H      -0.0467944729     1.4900656777     0.9280035247
   42      H      -4.8874134540     1.0723471477     2.0073912728
   43      H      -7.2817480486     0.9445187532     1.2516527816
   44      H      -6.5400973494     1.6976714165    -0.1927362328
   45      H      -7.6404454917    -1.0907849489     0.0691643474
   46      H      -6.9749477724    -0.3524963257    -1.4209675376
   47      H      -5.4768549573    -2.3969101865    -0.2033351619
   48      H      -0.9431925611     1.8117797473     2.4602013803
   49      H      -0.5266758228     3.1865905199     1.3696662232
   50      H       1.6937051689     2.6085038995    -2.7586123351
   51      H       2.9370410597     3.6311799303    -1.9285667917
   52      H       1.6034113605     2.8847104435    -0.9725878683
   53      H       0.0809404242     0.4485693171    -1.6653136811
   54      H      -0.4241590025    -0.4953360656    -0.2143766442
   55      H      -0.4958255253    -1.5327664364    -3.1568938733
   56      H      -0.8971918897    -2.5224459458    -1.6822542114
 ----------------------------------------------------------------

    9   -1510.2922570879      3.45E-09 Convergence criterion met
 Total energy in the final basis set = -1510.29225709
 Final energy is   -1510.29225708788
 **  OPTIMIZATION CONVERGED  **

                    Orbital Energies (a.u.)
 --------------------------------------------------------------

 Alpha MOs
 -- Occupied --
-18.940 -18.935 -18.935 -18.924 -18.888 -18.887 -18.881 -18.880
-18.876 -18.872 -10.104 -10.102 -10.101 -10.098 -10.066 -10.065
-10.063 -10.060 -10.058 -10.058 -10.055 -10.049 -10.040 -10.039
-10.037 -10.037 -10.022 -10.020 -10.020 -10.019  -1.017  -1.015
 -1.008  -1.005  -0.971  -0.969  -0.939  -0.939  -0.937  -0.932
 -0.764  -0.763  -0.727  -0.723  -0.711  -0.706  -0.694  -0.663
 -0.658  -0.614  -0.597  -0.577  -0.547  -0.545  -0.538  -0.537
 -0.513  -0.508  -0.480  -0.474  -0.463  -0.458  -0.453  -0.452
 -0.436  -0.431  -0.427  -0.419  -0.415  -0.410  -0.405  -0.396
 -0.392  -0.379  -0.372  -0.370  -0.359  -0.358  -0.355  -0.351
 -0.349  -0.337  -0.335  -0.333  -0.330  -0.328  -0.324  -0.311
 -0.309  -0.305  -0.305  -0.300  -0.293  -0.286  -0.281  -0.275
 -0.272  -0.260  -0.255  -0.246  -0.242  -0.235  -0.233  -0.184
 -0.179  -0.172  -0.170  -0.159  -0.158  -0.152  -0.150  -0.145
 -0.143

          Ground-State Mulliken Net Atomic Charges

     Atom                 Charge (a.u.)
  ----------------------------------------
      1 O                    -0.214820
      2 C                     0.214330
      3 C                    -0.077886
      4 C                    -0.079399
      5 C                     0.214750
      6 O                    -0.181343
      7 C                    -0.053135
      8 C                    -0.063629
      9 O                    -0.169270
     10 C                     0.217726
     11 C                    -0.078725
     12 C                    -0.078287
     13 C                     0.214084
     14 O                    -0.205718
     15 O                    -0.167936
     16 O                    -0.173914
     17 O                    -0.222322
     18 C                    -0.129914
     19 C                     0.025716
     20 C                    -0.143567
     21 C                    -0.144120
     22 C                     0.024308
     23 O                    -0.186208
     24 H                     0.087093
     25 H                     0.085266
     26 H                     0.085240
     27 H                     0.078693
     28 H                     0.073895
     29 H                     0.078466
     30 H                     0.072939
     31 H                     0.090132
     32 O                    -0.206082
     33 C                    -0.143033
     34 C                     0.025847
     35 C                    -0.143940
     36 C                    -0.143657
     37 C                     0.025105
     38 O                    -0.186520
     39 H                     0.087372
     40 H                     0.085011
     41 H                     0.114121
     42 H                     0.083578
     43 H                     0.078662
     44 H                     0.073996
     45 H                     0.078562
     46 H                     0.073372
     47 H                     0.089790
     48 H                     0.085489
     49 H                     0.086216
     50 H                     0.089122
     51 H                     0.091952
     52 H                     0.090625
     53 H                     0.076896
     54 H                     0.108479
     55 H                     0.085720
     56 H                     0.100874
  ----------------------------------------
  Sum of atomic charges =    -0.000000

                    Cartesian Multipole Moments
 -----------------------------------------------------------------
    Charge (ESU x 10^10)
                 0.0000
    Dipole Moment (Debye)
         X      -0.2001      Y       0.7892      Z      -2.8660
       Tot       2.9794
    Quadrupole Moments (Debye-Ang)
        XX    -139.6368     XY     -14.6816     YY    -162.9731
        XZ      -0.1236     YZ      -1.0969     ZZ    -160.7900

 Total job time:  79.60s(wall), 3793.34s(cpu)
        *  Thank you very much for using Q-Chem.  Have a nice day.  *
