 Q-Chem 5.0, Q-Chem, Inc., Pleasanton, CA (2017)
 Q-Chem 5.0.1 for Intel X86 EM64T Linux

User input:
--------------------------------------------------------------
$molecule
0  1
O -3.94934 -3.66094 2.70899
C -3.26408 -4.56952 2.26188
C -3.36658 -6.02376 2.66595
C -4.59198 -6.4373 3.49736
C -5.66719 -5.38932 3.68104
O -5.10846 -4.14316 3.66296
C -6.07608 -3.09101 3.74013
C -5.46648 -1.77969 3.25541
O -6.41123 -0.71046 3.41996
C -6.08356 0.45607 2.81088
C -7.00051 1.59495 3.18878
C -8.19742 1.19872 4.06552
C -8.11354 -0.16506 4.72109
O -8.8395 -0.56548 5.61953
O -2.28089 -4.26194 1.37527
O -8.53296 -0.99311 3.66968
O -5.08416 0.61501 2.12076
C -9.31057 -2.14795 3.70551
C -6.32045 2.66375 4.05684
C -7.07897 3.98388 3.9262
C -8.34609 3.6562 4.68845
C -8.01081 2.24471 5.18704
O -6.61587 2.27177 5.37253
H -7.34263 2.04301 2.22881
H -9.19268 1.32451 3.57861
H -5.24466 2.80783 3.81578
H -6.50918 4.75161 4.4969
H -7.23167 4.33941 2.88417
H -8.43157 4.3615 5.54473
H -9.28144 3.67321 4.08774
H -8.61433 2.01067 6.09193
O -6.79604 -5.63312 4.09206
C -2.06785 -2.99925 0.86256
C -3.5634 -6.92019 1.42463
C -3.13844 -8.35393 1.742
C -4.28089 -8.79303 2.62949
C -5.16192 -7.54124 2.58316
O -4.95648 -7.02825 1.29211
H -2.40313 -6.28707 3.15642
H -4.34549 -6.84475 4.50243
H -1.83783 -2.28472 1.68131
H -3.01747 -6.56037 0.52529
H -3.18296 -8.93768 0.79479
H -2.12474 -8.4506 2.1873
H -4.8032 -9.64253 2.13532
H -3.99834 -9.07458 3.66708
H -6.21106 -7.81199 2.83521
H -2.96874 -2.65698 0.30878
H -1.20963 -3.03122 0.16057
H -8.85483 -2.90637 4.37462
H -9.39103 -2.56519 2.6804
H -10.33258 -1.91054 4.06911
H -4.54601 -1.53361 3.832
H -5.24206 -1.87562 2.16672
H -6.42401 -2.98949 4.79152
H -6.93493 -3.29915 3.06367
$end

$opt
CONSTRAINT
tors           1           2           3           4     +12.208
tors           3           4           5           6     -29.863
tors           4           5           6           7    +175.991
tors           5           6           7           8    -161.119
tors           6           7           8           9    -176.103
tors           7           8           9          10    -168.706
tors           8           9          10          11    -171.307
tors           9          10          11          12      -5.793
tors          11          12          13          14    +166.886
ENDCONSTRAINT
$end

$rem
JOBTYPE                   OPT
METHOD                    B3LYP
DFT_D                     d3_op
BASIS                     STO-3G
GEOM_OPT_MAX_CYCLES       100
GEOM_OPT_TOL_GRADIENT     300
GEOM_OPT_TOL_DISPLACEMENT 1200
GEOM_OPT_TOL_ENERGY       100
SYMMETRY                  False
THRESH                    12
SCF_CONVERGENCE           8
MAX_SUB_FILE_NUM          128
MEM_STATIC                400
MEM_TOTAL                 4000
$end
--------------------------------------------------------------

   18   -1509.8675161641      4.94E-09 Convergence criterion met
 Total energy in the final basis set = -1509.86751616
   15   -1509.9939311896      7.65E-09 Convergence criterion met
 Total energy in the final basis set = -1509.99393119
   15   -1510.0720383276      4.17E-09 Convergence criterion met
 Total energy in the final basis set = -1510.07203833
   15   -1510.1362413538      3.35E-09 Convergence criterion met
 Total energy in the final basis set = -1510.13624135
   14   -1510.1764947781      6.73E-09 Convergence criterion met
 Total energy in the final basis set = -1510.17649478
   14   -1510.2030114313      5.50E-09 Convergence criterion met
 Total energy in the final basis set = -1510.20301143
   14   -1510.2208558310      3.88E-09 Convergence criterion met
 Total energy in the final basis set = -1510.22085583
   13   -1510.2331102787      9.38E-09 Convergence criterion met
   12   -1510.2648408481      3.68E-09 Convergence criterion met
 Total energy in the final basis set = -1510.26484085
   11   -1510.2648650914      6.11E-09 Convergence criterion met
 Total energy in the final basis set = -1510.26486509
   11   -1510.2648629340      5.02E-09 Convergence criterion met
 Total energy in the final basis set = -1510.26486293
   11   -1510.2648765135      3.49E-09 Convergence criterion met
 Total energy in the final basis set = -1510.26487651
    9   -1510.2648813772      8.47E-09 Convergence criterion met
 Total energy in the final basis set = -1510.26488138
   10   -1510.2648829636      7.35E-09 Convergence criterion met
 Total energy in the final basis set = -1510.26488296

             Standard Nuclear Orientation (Angstroms)
    I     Atom           X                Y                Z
 ----------------------------------------------------------------
    1      O      -2.4339831786    -1.0966287895    -1.1634121803
    2      C      -3.3918465717    -1.5251031568    -0.4878404785
    3      C      -4.1952139264    -0.8430294928     0.6903637283
    4      C      -3.9264700417     0.7017765961     0.8808077053
    5      C      -2.5035672152     1.2648572046     0.5361042277
    6      O      -1.5299528456     0.2458623507     0.7646525635
    7      C      -0.1829771250     0.7098258492     0.3585371732
    8      C       0.6777939262    -0.5814273760     0.1836056344
    9      O       2.0522439561    -0.1240011134    -0.1293050184
   10      C       2.8596482364    -1.2195945948    -0.5632943609
   11      C       4.3690935037    -0.7811393301    -0.6828693448
   12      C       4.6647305996     0.7495031647    -0.4544431650
   13      C       3.6224256122     1.8017201170    -0.9734787148
   14      O       3.5932923353     3.0154239731    -0.6738486346
   15      O      -3.9487219440    -2.8366147564    -0.6625085241
   16      O       2.8952247979     1.2445779273    -2.0777384633
   17      O       2.4201904216    -2.3735687157    -0.7602703694
   18      C       1.9945603574     2.2661756255    -2.6559815654
   19      C       5.0291099239    -1.3542211325     0.6513360760
   20      C       6.5775702692    -1.0372261348     0.7087095485
   21      C       6.5749977873     0.4625333520     1.1906390383
   22      C       5.0340727643     0.7848667710     1.0944797243
   23      O       4.4276125487    -0.4438449835     1.6598796800
   24      H       4.8087507234    -1.1819711122    -1.6125601820
   25      H       5.5833200185     0.9922621315    -1.0242296576
   26      H       4.7572813423    -2.4060328828     0.8672783519
   27      H       7.0828660186    -1.6988547768     1.4296397019
   28      H       7.0546193471    -1.1626485285    -0.2767981665
   29      H       6.9188491009     0.5484855613     2.2341479411
   30      H       7.1901365494     1.1208474556     0.5564755482
   31      H       4.6880280857     1.6861800780     1.6367436029
   32      O      -2.2380293288     2.4148068851     0.1239344555
   33      C      -3.2454927625    -3.5428500851    -1.7570845038
   34      C      -5.6999169779    -0.7662856878     0.1749305579
   35      C      -6.6497727317    -0.1281453765     1.2654949669
   36      C      -6.3572311189     1.4082860056     1.0809300563
   37      C      -5.1423402479     1.3438072608     0.0785843068
   38      O      -5.5718480489     0.2863301597    -0.8665199675
   39      H      -4.0654505890    -1.4230774786     1.6215343823
   40      H      -4.0665427157     0.9300283212     1.9558488563
   41      H      -2.1597421222    -3.6399387295    -1.5515695201
   42      H      -6.0594893814    -1.7132842222    -0.2716080331
   43      H      -7.7023778096    -0.3733301237     1.0536695878
   44      H      -6.4036547151    -0.4863444426     2.2782576954
   45      H      -7.2115682582     1.9250601964     0.6143511259
   46      H      -6.1059784470     1.9166279836     2.0253292308
   47      H      -4.8965547396     2.2818215916    -0.4566265777
   48      H      -3.3737790355    -3.0218464686    -2.7280178442
   49      H      -3.7025604109    -4.5478984483    -1.8144325660
   50      H       1.2368504490     2.6059433844    -1.9203959653
   51      H       1.4866915415     1.7772851688    -3.5077072471
   52      H       2.5560032562     3.1529383323    -3.0150488932
   53      H       0.6689598071    -1.1798249169     1.1209669169
   54      H       0.2622217624    -1.2088600469    -0.6343311214
   55      H       0.2614263596     1.3691944079     1.1367816470
   56      H      -0.2325591824     1.2800045615    -0.5929977049
 ----------------------------------------------------------------

    9   -1510.2648821567      5.23E-09 Convergence criterion met
 Total energy in the final basis set = -1510.26488216
 Final energy is   -1510.26488215673
 **  OPTIMIZATION CONVERGED  **

                    Orbital Energies (a.u.)
 --------------------------------------------------------------

 Alpha MOs
 -- Occupied --
-18.932 -18.932 -18.930 -18.928 -18.886 -18.885 -18.876 -18.871
-18.868 -18.868 -10.099 -10.098 -10.097 -10.097 -10.071 -10.069
-10.062 -10.059 -10.059 -10.059 -10.058 -10.058 -10.039 -10.038
-10.036 -10.035 -10.021 -10.021 -10.019 -10.019  -1.014  -1.011
 -1.006  -1.002  -0.970  -0.970  -0.938  -0.934  -0.931  -0.928
 -0.764  -0.762  -0.728  -0.723  -0.710  -0.703  -0.696  -0.660
 -0.658  -0.610  -0.597  -0.580  -0.544  -0.543  -0.537  -0.536
 -0.515  -0.508  -0.488  -0.473  -0.461  -0.459  -0.449  -0.448
 -0.433  -0.430  -0.429  -0.411  -0.408  -0.406  -0.406  -0.402
 -0.393  -0.375  -0.373  -0.368  -0.360  -0.357  -0.354  -0.347
 -0.340  -0.338  -0.332  -0.330  -0.329  -0.319  -0.314  -0.311
 -0.310  -0.308  -0.306  -0.299  -0.295  -0.291  -0.283  -0.271
 -0.269  -0.256  -0.250  -0.248  -0.244  -0.234  -0.233  -0.183
 -0.180  -0.172  -0.163  -0.153  -0.151  -0.146  -0.144  -0.144
 -0.144

          Ground-State Mulliken Net Atomic Charges

     Atom                 Charge (a.u.)
  ----------------------------------------
      1 O                    -0.211178
      2 C                     0.215707
      3 C                    -0.074162
      4 C                    -0.081290
      5 C                     0.213915
      6 O                    -0.169876
      7 C                    -0.042604
      8 C                    -0.044066
      9 O                    -0.169492
     10 C                     0.217099
     11 C                    -0.075144
     12 C                    -0.079324
     13 C                     0.215526
     14 O                    -0.218277
     15 O                    -0.174487
     16 O                    -0.169550
     17 O                    -0.218658
     18 C                    -0.127980
     19 C                     0.023008
     20 C                    -0.145945
     21 C                    -0.140910
     22 C                     0.024797
     23 O                    -0.192999
     24 H                     0.087633
     25 H                     0.082814
     26 H                     0.084567
     27 H                     0.078456
     28 H                     0.073825
     29 H                     0.077890
     30 H                     0.074037
     31 H                     0.088763
     32 O                    -0.216175
     33 C                    -0.128597
     34 C                     0.022583
     35 C                    -0.146127
     36 C                    -0.141196
     37 C                     0.023657
     38 O                    -0.193347
     39 H                     0.087531
     40 H                     0.082392
     41 H                     0.089862
     42 H                     0.088749
     43 H                     0.078324
     44 H                     0.073387
     45 H                     0.078081
     46 H                     0.073691
     47 H                     0.090212
     48 H                     0.089129
     49 H                     0.089688
     50 H                     0.088356
     51 H                     0.090259
     52 H                     0.088431
     53 H                     0.087944
     54 H                     0.099646
     55 H                     0.087184
     56 H                     0.094238
  ----------------------------------------
  Sum of atomic charges =     0.000000

                    Cartesian Multipole Moments
 -----------------------------------------------------------------
    Charge (ESU x 10^10)
                 0.0000
    Dipole Moment (Debye)
         X       0.0840      Y      -1.2639      Z       0.6185
       Tot       1.4096
    Quadrupole Moments (Debye-Ang)
        XX    -138.6077     XY       1.4762     YY    -165.6063
        XZ      -9.7612     YZ       0.5814     ZZ    -155.9759

 Total job time:  98.36s(wall), 4682.65s(cpu)
        *  Thank you very much for using Q-Chem.  Have a nice day.  *
