 Q-Chem 5.0, Q-Chem, Inc., Pleasanton, CA (2017)
 Q-Chem 5.0.1 for Intel X86 EM64T Linux

User input:
--------------------------------------------------------------
$molecule
0  1
O -2.4339831786 -1.0966287895 -1.1634121803
C -3.3918465717 -1.5251031568 -0.4878404785
C -4.1952139264 -0.8430294928 0.6903637283
C -3.9264700417 0.7017765961 0.8808077053
C -2.5035672152 1.2648572046 0.5361042277
O -1.5299528456 0.2458623507 0.7646525635
C -0.182977125 0.7098258492 0.3585371732
C 0.6777939262 -0.581427376 0.1836056344
O 2.0522439561 -0.1240011134 -0.1293050184
C 2.8596482364 -1.2195945948 -0.5632943609
C 4.3690935037 -0.7811393301 -0.6828693448
C 4.6647305996 0.7495031647 -0.454443165
C 3.6224256122 1.801720117 -0.9734787148
O 3.5932923353 3.0154239731 -0.6738486346
O -3.948721944 -2.8366147564 -0.6625085241
O 2.8952247979 1.2445779273 -2.0777384633
O 2.4201904216 -2.3735687157 -0.7602703694
C 1.9945603574 2.2661756255 -2.6559815654
C 5.0291099239 -1.3542211325 0.651336076
C 6.5775702692 -1.0372261348 0.7087095485
C 6.5749977873 0.462533352 1.1906390383
C 5.0340727643 0.784866771 1.0944797243
O 4.4276125487 -0.4438449835 1.65987968
H 4.8087507234 -1.1819711122 -1.612560182
H 5.5833200185 0.9922621315 -1.0242296576
H 4.7572813423 -2.4060328828 0.8672783519
H 7.0828660186 -1.6988547768 1.4296397019
H 7.0546193471 -1.1626485285 -0.2767981665
H 6.9188491009 0.5484855613 2.2341479411
H 7.1901365494 1.1208474556 0.5564755482
H 4.6880280857 1.686180078 1.6367436029
O -2.2380293288 2.4148068851 0.1239344555
C -3.2454927625 -3.5428500851 -1.7570845038
C -5.6999169779 -0.7662856878 0.1749305579
C -6.6497727317 -0.1281453765 1.2654949669
C -6.3572311189 1.4082860056 1.0809300563
C -5.1423402479 1.3438072608 0.0785843068
O -5.5718480489 0.2863301597 -0.8665199675
H -4.065450589 -1.4230774786 1.6215343823
H -4.0665427157 0.9300283212 1.9558488563
H -2.1597421222 -3.6399387295 -1.5515695201
H -6.0594893814 -1.7132842222 -0.2716080331
H -7.7023778096 -0.3733301237 1.0536695878
H -6.4036547151 -0.4863444426 2.2782576954
H -7.2115682582 1.9250601964 0.6143511259
H -6.105978447 1.9166279836 2.0253292308
H -4.8965547396 2.2818215916 -0.4566265777
H -3.3737790355 -3.0218464686 -2.7280178442
H -3.7025604109 -4.5478984483 -1.814432566
H 1.236850449 2.6059433844 -1.9203959653
H 1.4866915415 1.7772851688 -3.5077072471
H 2.5560032562 3.1529383323 -3.0150488932
H 0.6689598071 -1.1798249169 1.1209669169
H 0.2622217624 -1.2088600469 -0.6343311214
H 0.2614263596 1.3691944079 1.136781647
H -0.2325591824 1.2800045615 -0.5929977049
$end

$rem
JOBTYPE                   OPT
METHOD                    B3LYP
DFT_D                     d3_op
BASIS                     STO-3G
GEOM_OPT_MAX_CYCLES       100
GEOM_OPT_TOL_GRADIENT     300
GEOM_OPT_TOL_DISPLACEMENT 1200
GEOM_OPT_TOL_ENERGY       100
SYMMETRY                  False
THRESH                    12
SCF_CONVERGENCE           8
MAX_SUB_FILE_NUM          128
MEM_STATIC                400
MEM_TOTAL                 4000
$end
--------------------------------------------------------------

   16   -1510.2650013420      4.28E-09 Convergence criterion met
 Total energy in the final basis set = -1510.26500134
   13   -1510.2687996907      8.64E-09 Convergence criterion met
 Total energy in the final basis set = -1510.26879969
   13   -1510.2722037609      9.70E-09 Convergence criterion met
 Total energy in the final basis set = -1510.27220376
   13   -1510.2750608455      8.40E-09 Convergence criterion met
 Total energy in the final basis set = -1510.27506085
   13   -1510.2777365649      4.87E-09 Convergence criterion met
 Total energy in the final basis set = -1510.27773656
   13   -1510.2802385014      5.11E-09 Convergence criterion met
 Total energy in the final basis set = -1510.28023850
   14   -1510.2825449382      1.90E-09 Convergence criterion met
 Total energy in the final basis set = -1510.28254494
   14   -1510.2847080321      4.02E-09 Convergence criterion met
   12   -1510.2996781057      6.58E-09 Convergence criterion met
 Total energy in the final basis set = -1510.29967811
   11   -1510.2996513001      9.68E-09 Convergence criterion met
 Total energy in the final basis set = -1510.29965130
   11   -1510.2996868984      8.04E-09 Convergence criterion met
 Total energy in the final basis set = -1510.29968690
   11   -1510.2996812612      5.25E-09 Convergence criterion met
 Total energy in the final basis set = -1510.29968126
   10   -1510.2996890956      9.38E-09 Convergence criterion met
 Total energy in the final basis set = -1510.29968910
    9   -1510.2996907933      5.95E-09 Convergence criterion met
 Total energy in the final basis set = -1510.29969079

             Standard Nuclear Orientation (Angstroms)
    I     Atom           X                Y                Z
 ----------------------------------------------------------------
    1      O      -1.5728490284     0.5002444225     0.6941422972
    2      C      -2.5642980777     1.1699152473     0.3118407718
    3      C      -3.8833633700     0.6059883655    -0.3114294832
    4      C      -3.6799819657    -0.7508764665    -1.1124708275
    5      C      -2.1841002287    -1.2211698136    -1.2181547394
    6      O      -1.5364956808    -0.3790310754    -2.1837078686
    7      C      -0.0615280272    -0.5535123954    -2.1292058019
    8      C       0.4908842958     0.6995035606    -1.3705663381
    9      O       1.9032230826     0.4715110117    -0.9871039478
   10      C       2.2517177893     1.3421419511     0.0932679093
   11      C       3.7216657412     1.0138099744     0.5153032981
   12      C       3.9510815172    -0.5342177442     0.7808160509
   13      C       2.6402488443    -1.3959323449     0.6779891522
   14      O       2.4464024976    -2.4052815132    -0.0332378797
   15      O      -2.6379372244     2.5846007899     0.4017808384
   16      O       1.6974639501    -0.8450748299     1.6017480434
   17      O       1.4919335421     2.2142217536     0.5743883508
   18      C       0.4296382810    -1.6168179429     1.6016516868
   19      C       4.7359021869     1.2483984472    -0.6881664222
   20      C       6.2107663887     1.1932414406    -0.1212433191
   21      C       6.4064640576    -0.3563923479     0.0787485519
   22      C       4.9894355283    -0.8956296889    -0.3585697709
   23      O       4.6152846887     0.0029163972    -1.4768697704
   24      H       3.9725720708     1.6272653552     1.3978978122
   25      H       4.3842708589    -0.6917375941     1.7857910032
   26      H       4.5075665751     2.1305456605    -1.3177208162
   27      H       6.9211194086     1.5996443117    -0.8586866215
   28      H       6.3142292773     1.7598382297     0.8181359284
   29      H       7.1918963267    -0.7521250803    -0.5847142444
   30      H       6.6527969108    -0.6239149035     1.1186389112
   31      H       4.9480847791    -1.9535907430    -0.6833271956
   32      O      -1.6472506823    -2.1912621404    -0.6427960434
   33      C      -1.4391207406     3.1305486342     1.0962263355
   34      C      -4.8704639049     0.1146653934     0.8415068485
   35      C      -6.2976896732    -0.1308873998     0.2098229385
   36      C      -6.0675291922    -1.4920401448    -0.5465361079
   37      C      -4.5427560932    -1.7538583043    -0.2397012444
   38      O      -4.3756686457    -1.2455780933     1.1428052267
   39      H      -4.3452212560     1.3925722988    -0.9334459908
   40      H      -4.0799927102    -0.6497356248    -2.1376100038
   41      H      -0.4769799930     2.7309102273     0.6995894291
   42      H      -4.8597097066     0.7460372706     1.7512797182
   43      H      -7.0549999239    -0.2318798842     1.0034530749
   44      H      -6.5992523490     0.6865986651    -0.4642841501
   45      H      -6.6900679929    -2.2971827824    -0.1249247629
   46      H      -6.2679504248    -1.4182760891    -1.6272550957
   47      H      -4.2083337422    -2.8074471979    -0.3033676720
   48      H      -1.4900250502     2.9078479312     2.1813053510
   49      H      -1.4843070154     4.2245011114     0.9465800501
   50      H      -0.4043627327    -0.9284385922     1.3509682126
   51      H       0.2755035266    -2.0424781987     2.6123059459
   52      H       0.4831026346    -2.4331513514     0.8547957243
   53      H       0.4040042347     1.6068197223    -2.0067505528
   54      H      -0.1326139878     0.8390491745    -0.4576421029
   55      H       0.3168796435    -0.6121844609    -3.1694131717
   56      H       0.1905826429    -1.4862758084    -1.5801079449
 ----------------------------------------------------------------

   10   -1510.2996903369      8.06E-09 Convergence criterion met
 Total energy in the final basis set = -1510.29969034
 Final energy is   -1510.29969033686
 **  OPTIMIZATION CONVERGED  **

                    Orbital Energies (a.u.)
 --------------------------------------------------------------

 Alpha MOs
 -- Occupied --
-18.949 -18.931 -18.925 -18.916 -18.892 -18.889 -18.884 -18.876
-18.874 -18.863 -10.114 -10.099 -10.099 -10.089 -10.066 -10.062
-10.061 -10.058 -10.056 -10.055 -10.053 -10.045 -10.040 -10.035
-10.031 -10.029 -10.024 -10.023 -10.018 -10.016  -1.024  -1.012
 -1.006  -0.995  -0.974  -0.966  -0.947  -0.937  -0.932  -0.923
 -0.767  -0.759  -0.728  -0.722  -0.712  -0.703  -0.692  -0.664
 -0.642  -0.611  -0.595  -0.577  -0.548  -0.541  -0.539  -0.533
 -0.517  -0.506  -0.483  -0.472  -0.465  -0.458  -0.454  -0.440
 -0.434  -0.430  -0.426  -0.419  -0.412  -0.406  -0.398  -0.397
 -0.388  -0.376  -0.373  -0.365  -0.360  -0.357  -0.353  -0.346
 -0.344  -0.335  -0.334  -0.330  -0.328  -0.325  -0.319  -0.314
 -0.308  -0.307  -0.303  -0.300  -0.289  -0.287  -0.282  -0.277
 -0.267  -0.261  -0.247  -0.241  -0.238  -0.233  -0.230  -0.190
 -0.176  -0.167  -0.166  -0.159  -0.155  -0.153  -0.149  -0.144
 -0.139

          Ground-State Mulliken Net Atomic Charges

     Atom                 Charge (a.u.)
  ----------------------------------------
      1 O                    -0.217744
      2 C                     0.220918
      3 C                    -0.078085
      4 C                    -0.079450
      5 C                     0.214107
      6 O                    -0.180543
      7 C                    -0.054018
      8 C                    -0.061534
      9 O                    -0.168130
     10 C                     0.218414
     11 C                    -0.077904
     12 C                    -0.077617
     13 C                     0.214488
     14 O                    -0.217209
     15 O                    -0.164116
     16 O                    -0.179329
     17 O                    -0.219353
     18 C                    -0.149328
     19 C                     0.025688
     20 C                    -0.144055
     21 C                    -0.143713
     22 C                     0.024335
     23 O                    -0.186192
     24 H                     0.085121
     25 H                     0.083441
     26 H                     0.080987
     27 H                     0.077266
     28 H                     0.073159
     29 H                     0.077491
     30 H                     0.072940
     31 H                     0.090587
     32 O                    -0.208115
     33 C                    -0.140154
     34 C                     0.025809
     35 C                    -0.143649
     36 C                    -0.143808
     37 C                     0.025064
     38 O                    -0.187113
     39 H                     0.089301
     40 H                     0.086335
     41 H                     0.115448
     42 H                     0.083597
     43 H                     0.079256
     44 H                     0.074681
     45 H                     0.079167
     46 H                     0.074209
     47 H                     0.090868
     48 H                     0.086105
     49 H                     0.089364
     50 H                     0.108642
     51 H                     0.078065
     52 H                     0.099917
     53 H                     0.077673
     54 H                     0.103900
     55 H                     0.088033
     56 H                     0.106783
  ----------------------------------------
  Sum of atomic charges =    -0.000000

                    Cartesian Multipole Moments
 -----------------------------------------------------------------
    Charge (ESU x 10^10)
                -0.0000
    Dipole Moment (Debye)
         X      -1.2827      Y       2.2984      Z      -0.0294
       Tot       2.6323
    Quadrupole Moments (Debye-Ang)
        XX    -134.6178     XY       2.0374     YY    -162.9869
        XZ       9.2247     YZ       0.3005     ZZ    -159.9095

 Total job time:  108.85s(wall), 5186.86s(cpu)
        *  Thank you very much for using Q-Chem.  Have a nice day.  *
