 Q-Chem 5.0, Q-Chem, Inc., Pleasanton, CA (2017)
 Q-Chem 5.0.1 for Intel X86 EM64T Linux

User input:
--------------------------------------------------------------
$molecule
0  1
O -2.7883573233 0.0495704505 2.110109229
C -2.6869269244 0.8622004993 1.1628461731
C -3.5477112772 0.9403777695 -0.1367375529
C -3.9398662037 -0.4101119073 -0.8687208714
C -3.1392848787 -1.7637041973 -0.6538483811
O -1.703583399 -1.5864306082 -0.6106000844
C -1.1679965709 -1.8308857157 0.7529894741
C 0.0634913102 -0.8907495061 0.9279025595
O 1.2694036809 -1.4631633179 0.2920693071
C 2.4117007662 -0.7146019372 0.7435139476
C 3.6548357652 -1.1723771653 -0.0966918907
C 4.2161028893 -0.0521337205 -1.0705841976
C 3.3081404669 1.188368969 -1.4039068599
O 3.629698413 2.1369102467 -2.1528627737
O -1.7299673545 1.9319579499 1.1219890314
O 2.0055767199 1.0484604862 -0.8310186792
O 2.3980606489 0.0709556581 1.7159373971
C 1.150761571 2.211280168 -1.1636475857
C 4.8967985777 -1.3325015888 0.8816862895
C 6.1039245337 -1.9903719364 0.1011789197
C 6.646275663 -0.7640583045 -0.7228613854
C 5.580976013 0.3373256912 -0.3476807452
O 5.320748455 0.0735965863 1.0845822611
H 3.4009631984 -2.097293159 -0.6429972181
H 4.4473923918 -0.5087840535 -2.0516430056
H 4.6509321189 -1.8034822316 1.8529038848
H 6.859268906 -2.3732092353 0.8056686245
H 5.7711646735 -2.8198701264 -0.5433966207
H 7.647201993 -0.4588794457 -0.3774996051
H 6.6895458832 -0.9578602856 -1.8063525104
H 5.9008429015 1.3856408832 -0.5055850737
O -3.6973750583 -2.8792733717 -0.5846619213
C -0.9693469113 2.0073559402 2.3951395756
C -5.0061833246 1.4254941635 0.3045244717
C -5.8580074964 1.803680409 -0.9734665167
C -6.2893614827 0.3806464349 -1.4906450197
C -5.4819221857 -0.5434088373 -0.5010105832
O -5.6135385412 0.1680952551 0.7916983849
H -3.0612256414 1.6492256268 -0.8290441257
H -3.8548055249 -0.2124839603 -1.9558286535
H 0.1114781075 1.8979047471 2.1781767172
H -5.0020665304 2.1911150236 1.1050843497
H -6.7278668201 2.4158213961 -0.6877806465
H -5.2612693404 2.362009012 -1.712474397
H -7.3727525671 0.2209666981 -1.3673001725
H -6.0225707819 0.2072583439 -2.5453390164
H -5.8290345834 -1.5918103594 -0.4150277562
H -1.3034476626 1.195365264 3.0716610316
H -1.154534545 2.9943971638 2.8618290967
H 0.2212299792 2.0896966252 -0.5737473098
H 0.9038822539 2.2320390414 -2.2450502527
H 1.6427880579 3.1675166776 -0.8942720275
H -0.1695946699 0.0941547934 0.4709131299
H 0.2546135607 -0.7259016817 2.0108496394
H -0.8645615604 -2.895366972 0.8777539562
H -1.9161329031 -1.5638628365 1.5313950387
$end

$rem
JOBTYPE                   OPT
METHOD                    B3LYP
DFT_D                     d3_op
BASIS                     STO-3G
GEOM_OPT_MAX_CYCLES       100
GEOM_OPT_TOL_GRADIENT     300
GEOM_OPT_TOL_DISPLACEMENT 1200
GEOM_OPT_TOL_ENERGY       100
SYMMETRY                  False
THRESH                    12
SCF_CONVERGENCE           8
MAX_SUB_FILE_NUM          128
MEM_STATIC                400
MEM_TOTAL                 4000
$end
--------------------------------------------------------------

   16   -1510.2565728919      6.89E-09 Convergence criterion met
 Total energy in the final basis set = -1510.25657289
   15   -1510.2601249517      2.72E-09 Convergence criterion met
 Total energy in the final basis set = -1510.26012495
   13   -1510.2643452415      7.97E-09 Convergence criterion met
 Total energy in the final basis set = -1510.26434524
   14   -1510.2670830249      3.76E-09 Convergence criterion met
 Total energy in the final basis set = -1510.26708302
   14   -1510.2642605825      7.17E-09 Convergence criterion met
 Total energy in the final basis set = -1510.26426058
   15   -1510.2721116361      3.91E-09 Convergence criterion met
 Total energy in the final basis set = -1510.27211164
   13   -1510.2777660945      4.94E-09 Convergence criterion met
 Total energy in the final basis set = -1510.27776609
   13   -1510.2819567784      7.92E-09 Convergence criterion met
   12   -1510.3051332352      6.65E-09 Convergence criterion met
 Total energy in the final basis set = -1510.30513324
   12   -1510.3051643296      3.51E-09 Convergence criterion met
 Total energy in the final basis set = -1510.30516433
   12   -1510.3051752125      2.98E-09 Convergence criterion met
 Total energy in the final basis set = -1510.30517521
   10   -1510.3051783646      6.86E-09 Convergence criterion met
 Total energy in the final basis set = -1510.30517836
   10   -1510.3051787328      6.34E-09 Convergence criterion met
 Total energy in the final basis set = -1510.30517873
   10   -1510.3051803655      4.62E-09 Convergence criterion met
 Total energy in the final basis set = -1510.30518037

             Standard Nuclear Orientation (Angstroms)
    I     Atom           X                Y                Z
 ----------------------------------------------------------------
    1      O       1.4764164596    -0.0886269499    -1.3034076739
    2      C       1.7804516298     0.9572237099    -0.6827944298
    3      C       3.0286446780     1.1530983867     0.2415514149
    4      C       3.6293974992    -0.2154971443     0.7602790569
    5      C       2.8202837911    -1.4944369998     0.3380153095
    6      O       1.6365899108    -1.5742217657     1.1629251011
    7      C       0.8482572585    -2.7823999053     0.8225055238
    8      C      -0.0789505533    -2.5658851224    -0.4326337618
    9      O      -1.4819479191    -2.3665935348     0.0158340346
   10      C      -2.0402779465    -1.1965759717    -0.5820923676
   11      C      -3.5153784198    -1.0056749695    -0.0885432752
   12      C      -3.7108960728     0.2871890302     0.8142809883
   13      C      -2.3740902243     1.0486880948     1.1279772955
   14      O      -2.1434891226     2.2707664234     1.0083638220
   15      O       1.0431413888     2.1729018484    -0.6955487451
   16      O      -1.4367958360     0.0756480135     1.5858354281
   17      O      -1.4406557773    -0.4923724622    -1.4273110742
   18      C      -0.1227382935     0.6842184439     1.9013644614
   19      C      -4.4647287848    -0.6428534286    -1.3105404696
   20      C      -5.9673117074    -0.7706659357    -0.8371585756
   21      C      -6.1339108197     0.5424863719     0.0156294056
   22      C      -4.6830509330     1.1532899586    -0.0874252479
   23      O      -4.2654683187     0.8153045312    -1.4684381656
   24      H      -3.8344810795    -1.9214326122     0.4384951578
   25      H      -4.1844216476     0.0163148901     1.7761625788
   26      H      -4.2193811432    -1.1699410954    -2.2529072350
   27      H      -6.6449249647    -0.7776471053    -1.7055059485
   28      H      -6.1384302518    -1.6854521516    -0.2473911131
   29      H      -6.8715330420     1.2250837959    -0.4355976033
   30      H      -6.4297356072     0.3403501279     1.0574984692
   31      H      -4.5994501628     2.2438563865     0.0867226123
   32      O       3.1727353396    -2.3925152150    -0.4533546381
   33      C      -0.1192295995     2.0950428440    -1.6195439952
   34      C       4.2581373739     1.7141940875    -0.6002004645
   35      C       5.3821318999     2.1886004856     0.4026305476
   36      C       5.9773496992     0.8084442151     0.8697023269
   37      C       5.0597938478    -0.2002638459     0.0759070336
   38      O       4.8213760711     0.4908199490    -1.2128549872
   39      H       2.7570235535     1.8320708528     1.0685490233
   40      H       3.7023852487    -0.2108066654     1.8628655522
   41      H      -0.6496206633     1.1161737918    -1.5402975919
   42      H       3.9786124174     2.4505406518    -1.3788826449
   43      H       6.1344863064     2.7970253344    -0.1238457574
   44      H       4.9710351573     2.7797459508     1.2365125311
   45      H       7.0286457254     0.6973489960     0.5600974379
   46      H       5.9118537686     0.6621570728     1.9596415206
   47      H       5.4847427253    -1.2072132517    -0.1011942205
   48      H       0.2142311382     2.2473233079    -2.6657533705
   49      H      -0.7929235652     2.9194796900    -1.3228608428
   50      H       0.0715402392     1.5623515355     1.2535063574
   51      H       0.6327330728    -0.1151570540     1.7155731045
   52      H      -0.0960310327     1.0036393378     2.9626536201
   53      H       0.2624250266    -1.6746736994    -1.0125212537
   54      H      -0.0490134129    -3.4654611436    -1.0823046440
   55      H       0.2248512767    -3.0000954905     1.7138105637
   56      H       1.5383665406    -3.6302385462     0.6285533147
 ----------------------------------------------------------------

    9   -1510.3051808316      6.77E-09 Convergence criterion met
 Total energy in the final basis set = -1510.30518083
 Final energy is   -1510.30518083162
 **  OPTIMIZATION CONVERGED  **

                    Orbital Energies (a.u.)
 --------------------------------------------------------------

 Alpha MOs
 -- Occupied --
-18.935 -18.935 -18.933 -18.929 -18.889 -18.887 -18.880 -18.877
-18.875 -18.874 -10.104 -10.103 -10.102 -10.097 -10.071 -10.062
-10.060 -10.059 -10.057 -10.057 -10.040 -10.038 -10.038 -10.037
-10.037 -10.037 -10.022 -10.021 -10.021 -10.019  -1.017  -1.012
 -1.007  -1.005  -0.971  -0.970  -0.940  -0.937  -0.934  -0.933
 -0.765  -0.763  -0.727  -0.723  -0.711  -0.706  -0.695  -0.654
 -0.650  -0.616  -0.597  -0.579  -0.547  -0.543  -0.539  -0.536
 -0.512  -0.509  -0.479  -0.472  -0.463  -0.460  -0.455  -0.451
 -0.435  -0.430  -0.427  -0.414  -0.411  -0.408  -0.404  -0.396
 -0.391  -0.374  -0.372  -0.365  -0.364  -0.359  -0.355  -0.345
 -0.343  -0.342  -0.337  -0.333  -0.330  -0.327  -0.319  -0.311
 -0.309  -0.306  -0.304  -0.299  -0.293  -0.288  -0.281  -0.275
 -0.269  -0.257  -0.252  -0.241  -0.236  -0.235  -0.233  -0.189
 -0.176  -0.170  -0.166  -0.160  -0.158  -0.152  -0.150  -0.145
 -0.143

          Ground-State Mulliken Net Atomic Charges

     Atom                 Charge (a.u.)
  ----------------------------------------
      1 O                    -0.210325
      2 C                     0.216939
      3 C                    -0.079220
      4 C                    -0.081354
      5 C                     0.218404
      6 O                    -0.179318
      7 C                    -0.050221
      8 C                    -0.064755
      9 O                    -0.170078
     10 C                     0.221464
     11 C                    -0.077946
     12 C                    -0.078631
     13 C                     0.210217
     14 O                    -0.212940
     15 O                    -0.170297
     16 O                    -0.175939
     17 O                    -0.219696
     18 C                    -0.155526
     19 C                     0.025655
     20 C                    -0.144217
     21 C                    -0.143660
     22 C                     0.023463
     23 O                    -0.187613
     24 H                     0.086703
     25 H                     0.084599
     26 H                     0.084086
     27 H                     0.078285
     28 H                     0.073436
     29 H                     0.078312
     30 H                     0.073053
     31 H                     0.090070
     32 O                    -0.208035
     33 C                    -0.148551
     34 C                     0.025739
     35 C                    -0.143831
     36 C                    -0.143956
     37 C                     0.025393
     38 O                    -0.187282
     39 H                     0.087074
     40 H                     0.084216
     41 H                     0.121583
     42 H                     0.085179
     43 H                     0.078925
     44 H                     0.074348
     45 H                     0.078736
     46 H                     0.073100
     47 H                     0.089828
     48 H                     0.080019
     49 H                     0.091188
     50 H                     0.094034
     51 H                     0.108041
     52 H                     0.074641
     53 H                     0.122711
     54 H                     0.084502
     55 H                     0.094802
     56 H                     0.094643
  ----------------------------------------
  Sum of atomic charges =     0.000000

                    Cartesian Multipole Moments
 -----------------------------------------------------------------
    Charge (ESU x 10^10)
                -0.0000
    Dipole Moment (Debye)
         X      -0.7815      Y      -0.5369      Z       3.0550
       Tot       3.1988
    Quadrupole Moments (Debye-Ang)
        XX    -144.1163     XY      10.6978     YY    -159.7501
        XZ       6.5845     YZ      -1.4042     ZZ    -161.6732

 Total job time:  192.45s(wall), 9187.56s(cpu)
        *  Thank you very much for using Q-Chem.  Have a nice day.  *
