 Q-Chem 5.0, Q-Chem, Inc., Pleasanton, CA (2017)
 Q-Chem 5.0.1 for Intel X86 EM64T Linux

User input:
--------------------------------------------------------------
$molecule
0  1
O -3.94934 -3.66094 2.70899
C -3.26408 -4.56952 2.26188
C -3.36658 -6.02376 2.66595
C -3.56126 -6.32558 4.16089
C -3.8097 -5.13648 5.06222
O -2.99229 -4.103 4.7028
C -3.69787 -3.00571 4.11342
C -2.82045 -2.31308 3.07586
O -1.9061 -1.41746 3.72755
C -1.26283 -0.54561 2.91194
C -0.16964 0.22205 3.61642
C 1.25644 -0.11138 3.15447
C 1.36715 -0.87022 1.84732
O 2.41153 -1.22327 1.31896
O -2.80264 -4.46122 0.97949
O 0.28055 -1.21081 1.10833
O -1.78589 -0.11084 1.889
C 0.30217 -1.87106 -0.10668
C -0.1887 1.74438 3.35439
C 0.52354 2.47229 4.49397
C 1.9613 2.06735 4.23459
C 1.79838 1.30565 2.91389
O 0.70678 1.93481 2.28551
H -0.29021 0.06078 4.71303
H 1.81248 -0.69957 3.91701
H -1.21281 2.15534 3.2176
H 0.4201 3.56259 4.2912
H 0.14729 2.25613 5.51698
H 2.56549 2.99069 4.09271
H 2.42193 1.42396 5.01548
H 2.75366 1.30203 2.34364
O -4.82594 -4.9749 5.7265
C -3.17015 -3.49648 0.06039
C -4.64004 -6.67879 2.0911
C -4.44775 -8.19073 1.9936
C -4.4913 -8.57454 3.45745
C -4.81613 -7.21662 4.09061
O -5.59421 -6.56325 3.11858
H -2.47133 -6.54431 2.2543
H -2.68253 -6.85666 4.58836
H -2.89466 -2.4792 0.39427
H -4.93698 -6.2675 1.10112
H -5.3534 -8.60236 1.49276
H -3.54213 -8.52206 1.44142
H -5.33116 -9.28884 3.60789
H -3.5498 -9.00246 3.86496
H -5.29321 -7.36597 5.08395
H -4.26561 -3.54273 -0.11614
H -2.64991 -3.69721 -0.89828
H -0.73309 -1.98392 -0.48011
H 0.75449 -2.87864 0.01205
H 0.87878 -1.28247 -0.8519
H -1.98885 -2.78632 2.4634
H -3.48599 -1.59966 2.48626
H -3.62178 -2.24021 4.91966
H -4.80251 -2.81851 4.40503
$end

$opt
CONSTRAINT
tors           1           2           3           4     -41.285
tors           3           4           5           6     -41.382
tors           4           5           6           7    +110.623
tors           5           6           7           8    -147.935
tors           6           7           8           9     -80.870
tors           7           8           9          10    -167.124
tors           8           9          10          11    -171.307
tors           9          10          11          12    +112.351
tors          11          12          13          14    +179.965
ENDCONSTRAINT
$end

$rem
JOBTYPE                   OPT
METHOD                    B3LYP
DFT_D                     d3_op
BASIS                     STO-3G
GEOM_OPT_MAX_CYCLES       100
GEOM_OPT_TOL_GRADIENT     300
GEOM_OPT_TOL_DISPLACEMENT 1200
GEOM_OPT_TOL_ENERGY       100
SYMMETRY                  False
THRESH                    12
SCF_CONVERGENCE           8
MAX_SUB_FILE_NUM          128
MEM_STATIC                400
MEM_TOTAL                 4000
$end
--------------------------------------------------------------

   17   -1509.8430608819      7.71E-09 Convergence criterion met
 Total energy in the final basis set = -1509.84306088
   14   -1509.9458727256      4.30E-09 Convergence criterion met
 Total energy in the final basis set = -1509.94587273
   13   -1510.0187082588      9.64E-09 Convergence criterion met
 Total energy in the final basis set = -1510.01870826
   14   -1510.0716637957      6.72E-09 Convergence criterion met
 Total energy in the final basis set = -1510.07166380
   13   -1510.1108697724      9.52E-09 Convergence criterion met
 Total energy in the final basis set = -1510.11086977
   13   -1510.1402861034      8.52E-09 Convergence criterion met
 Total energy in the final basis set = -1510.14028610
   13   -1510.1624788630      6.62E-09 Convergence criterion met
 Total energy in the final basis set = -1510.16247886
   13   -1510.1797191889      5.57E-09 Convergence criterion met
   12   -1510.2566877977      2.30E-09 Convergence criterion met
 Total energy in the final basis set = -1510.25668780
   10   -1510.2566913888      9.44E-09 Convergence criterion met
 Total energy in the final basis set = -1510.25669139
    9   -1510.2566944402      6.70E-09 Convergence criterion met
 Total energy in the final basis set = -1510.25669444
    9   -1510.2566961804      4.39E-09 Convergence criterion met
 Total energy in the final basis set = -1510.25669618
    9   -1510.2566977156      5.06E-09 Convergence criterion met
 Total energy in the final basis set = -1510.25669772
    9   -1510.2566994348      6.43E-09 Convergence criterion met
 Total energy in the final basis set = -1510.25669943

             Standard Nuclear Orientation (Angstroms)
    I     Atom           X                Y                Z
 ----------------------------------------------------------------
    1      O      -2.7883573233     0.0495704505     2.1101092290
    2      C      -2.6869269244     0.8622004993     1.1628461731
    3      C      -3.5477112772     0.9403777695    -0.1367375529
    4      C      -3.9398662037    -0.4101119073    -0.8687208714
    5      C      -3.1392848787    -1.7637041973    -0.6538483811
    6      O      -1.7035833990    -1.5864306082    -0.6106000844
    7      C      -1.1679965709    -1.8308857157     0.7529894741
    8      C       0.0634913102    -0.8907495061     0.9279025595
    9      O       1.2694036809    -1.4631633179     0.2920693071
   10      C       2.4117007662    -0.7146019372     0.7435139476
   11      C       3.6548357652    -1.1723771653    -0.0966918907
   12      C       4.2161028893    -0.0521337205    -1.0705841976
   13      C       3.3081404669     1.1883689690    -1.4039068599
   14      O       3.6296984130     2.1369102467    -2.1528627737
   15      O      -1.7299673545     1.9319579499     1.1219890314
   16      O       2.0055767199     1.0484604862    -0.8310186792
   17      O       2.3980606489     0.0709556581     1.7159373971
   18      C       1.1507615710     2.2112801680    -1.1636475857
   19      C       4.8967985777    -1.3325015888     0.8816862895
   20      C       6.1039245337    -1.9903719364     0.1011789197
   21      C       6.6462756630    -0.7640583045    -0.7228613854
   22      C       5.5809760130     0.3373256912    -0.3476807452
   23      O       5.3207484550     0.0735965863     1.0845822611
   24      H       3.4009631984    -2.0972931590    -0.6429972181
   25      H       4.4473923918    -0.5087840535    -2.0516430056
   26      H       4.6509321189    -1.8034822316     1.8529038848
   27      H       6.8592689060    -2.3732092353     0.8056686245
   28      H       5.7711646735    -2.8198701264    -0.5433966207
   29      H       7.6472019930    -0.4588794457    -0.3774996051
   30      H       6.6895458832    -0.9578602856    -1.8063525104
   31      H       5.9008429015     1.3856408832    -0.5055850737
   32      O      -3.6973750583    -2.8792733717    -0.5846619213
   33      C      -0.9693469113     2.0073559402     2.3951395756
   34      C      -5.0061833246     1.4254941635     0.3045244717
   35      C      -5.8580074964     1.8036804090    -0.9734665167
   36      C      -6.2893614827     0.3806464349    -1.4906450197
   37      C      -5.4819221857    -0.5434088373    -0.5010105832
   38      O      -5.6135385412     0.1680952551     0.7916983849
   39      H      -3.0612256414     1.6492256268    -0.8290441257
   40      H      -3.8548055249    -0.2124839603    -1.9558286535
   41      H       0.1114781075     1.8979047471     2.1781767172
   42      H      -5.0020665304     2.1911150236     1.1050843497
   43      H      -6.7278668201     2.4158213961    -0.6877806465
   44      H      -5.2612693404     2.3620090120    -1.7124743970
   45      H      -7.3727525671     0.2209666981    -1.3673001725
   46      H      -6.0225707819     0.2072583439    -2.5453390164
   47      H      -5.8290345834    -1.5918103594    -0.4150277562
   48      H      -1.3034476626     1.1953652640     3.0716610316
   49      H      -1.1545345450     2.9943971638     2.8618290967
   50      H       0.2212299792     2.0896966252    -0.5737473098
   51      H       0.9038822539     2.2320390414    -2.2450502527
   52      H       1.6427880579     3.1675166776    -0.8942720275
   53      H      -0.1695946699     0.0941547934     0.4709131299
   54      H       0.2546135607    -0.7259016817     2.0108496394
   55      H      -0.8645615604    -2.8953669720     0.8777539562
   56      H      -1.9161329031    -1.5638628365     1.5313950387
 ----------------------------------------------------------------

    9   -1510.2567000449      2.60E-09 Convergence criterion met
 Total energy in the final basis set = -1510.25670004
 Final energy is   -1510.25670004489
 **  OPTIMIZATION CONVERGED  **

                    Orbital Energies (a.u.)
 --------------------------------------------------------------

 Alpha MOs
 -- Occupied --
-18.946 -18.943 -18.921 -18.901 -18.899 -18.894 -18.890 -18.887
-18.876 -18.860 -10.112 -10.110 -10.103 -10.092 -10.068 -10.068
-10.064 -10.063 -10.062 -10.061 -10.060 -10.058 -10.048 -10.040
-10.039 -10.034 -10.026 -10.024 -10.020 -10.019  -1.023  -1.017
 -1.006  -0.999  -0.976  -0.969  -0.949  -0.939  -0.936  -0.924
 -0.768  -0.762  -0.729  -0.723  -0.712  -0.707  -0.697  -0.669
 -0.665  -0.611  -0.603  -0.576  -0.549  -0.544  -0.542  -0.536
 -0.518  -0.511  -0.486  -0.481  -0.468  -0.458  -0.457  -0.447
 -0.438  -0.431  -0.425  -0.421  -0.416  -0.414  -0.409  -0.404
 -0.390  -0.387  -0.377  -0.373  -0.365  -0.360  -0.357  -0.351
 -0.350  -0.343  -0.336  -0.331  -0.330  -0.329  -0.324  -0.319
 -0.313  -0.313  -0.308  -0.306  -0.297  -0.291  -0.283  -0.275
 -0.270  -0.260  -0.247  -0.243  -0.240  -0.235  -0.233  -0.187
 -0.183  -0.172  -0.165  -0.159  -0.158  -0.156  -0.148  -0.146
 -0.139

          Ground-State Mulliken Net Atomic Charges

     Atom                 Charge (a.u.)
  ----------------------------------------
      1 O                    -0.214828
      2 C                     0.213286
      3 C                    -0.078834
      4 C                    -0.082546
      5 C                     0.221768
      6 O                    -0.200050
      7 C                    -0.055491
      8 C                    -0.050093
      9 O                    -0.173947
     10 C                     0.218497
     11 C                    -0.079921
     12 C                    -0.079098
     13 C                     0.210563
     14 O                    -0.215000
     15 O                    -0.172353
     16 O                    -0.167362
     17 O                    -0.222185
     18 C                    -0.127340
     19 C                     0.026010
     20 C                    -0.145235
     21 C                    -0.142383
     22 C                     0.025373
     23 O                    -0.185912
     24 H                     0.086710
     25 H                     0.085452
     26 H                     0.083991
     27 H                     0.078029
     28 H                     0.073734
     29 H                     0.078250
     30 H                     0.073944
     31 H                     0.086670
     32 O                    -0.183665
     33 C                    -0.140413
     34 C                     0.026537
     35 C                    -0.144958
     36 C                    -0.142288
     37 C                     0.022896
     38 O                    -0.187286
     39 H                     0.087956
     40 H                     0.084177
     41 H                     0.096934
     42 H                     0.082403
     43 H                     0.079577
     44 H                     0.074200
     45 H                     0.079323
     46 H                     0.074350
     47 H                     0.092973
     48 H                     0.102321
     49 H                     0.087554
     50 H                     0.095325
     51 H                     0.089065
     52 H                     0.092847
     53 H                     0.084616
     54 H                     0.089338
     55 H                     0.083790
     56 H                     0.102732
  ----------------------------------------
  Sum of atomic charges =     0.000000

                    Cartesian Multipole Moments
 -----------------------------------------------------------------
    Charge (ESU x 10^10)
                -0.0000
    Dipole Moment (Debye)
         X      -0.4056      Y       1.3050      Z      -1.5902
       Tot       2.0967
    Quadrupole Moments (Debye-Ang)
        XX    -156.7854     XY     -19.8390     YY    -160.7678
        XZ       3.7529     YZ       1.0674     ZZ    -162.2091

 Total job time:  179.02s(wall), 8534.97s(cpu)
        *  Thank you very much for using Q-Chem.  Have a nice day.  *
