 Q-Chem 5.0, Q-Chem, Inc., Pleasanton, CA (2017)
 Q-Chem 5.0.1 for Intel X86 EM64T Linux

User input:
--------------------------------------------------------------
$molecule
0  1
O -3.94934 -3.66094 2.70899
C -3.26408 -4.56952 2.26188
C -3.36658 -6.02376 2.66595
C -4.21872 -6.35085 3.90317
C -5.01703 -5.2095 4.49317
O -4.20921 -4.43349 5.27462
C -4.89584 -3.32778 5.87062
C -3.91841 -2.46961 6.66706
O -3.95059 -2.84857 8.05207
C -3.1573 -2.11864 8.8749
C -3.07215 -2.69068 10.26996
C -2.80186 -4.20098 10.33491
C -2.30937 -4.83989 9.05197
O -1.662 -5.87433 8.97836
O -2.40777 -4.29931 1.24188
O -2.02591 -4.12235 7.92603
O -2.4474 -1.19727 8.48808
C -1.32467 -4.57916 6.81172
C -1.91679 -2.14493 11.13036
C -2.25075 -2.32291 12.61055
C -2.12589 -3.82605 12.75037
C -1.636 -4.19444 11.34543
O -0.88047 -3.07622 10.94334
H -4.04542 -2.44713 10.75249
H -3.6773 -4.79228 10.68147
H -1.66815 -1.08183 10.92194
H -1.42996 -1.84338 13.1909
H -3.22466 -1.89569 12.93287
H -1.34021 -4.04289 13.50795
H -3.06526 -4.36012 13.01103
H -1.09049 -5.16314 11.37576
O -6.2346 -5.08398 4.408
C -2.21021 -3.04437 0.7052
C -4.05852 -6.86504 1.58395
C -3.6722 -8.33503 1.73983
C -4.46106 -8.70154 2.97813
C -5.17929 -7.37683 3.25485
O -5.40919 -6.85039 1.97017
H -2.3187 -6.36255 2.829
H -3.65652 -6.83985 4.73056
H -1.83137 -2.35012 1.48557
H -3.83922 -6.51616 0.55093
H -4.09268 -8.89404 0.87354
H -2.57742 -8.51587 1.80214
H -5.20891 -9.4774 2.69936
H -3.85747 -9.05362 3.84236
H -6.08395 -7.56726 3.87361
H -3.16131 -2.65381 0.2842
H -1.45986 -3.11093 -0.10905
H -1.21449 -3.77259 6.06253
H -1.86125 -5.43334 6.3462
H -0.30069 -4.89582 7.10412
H -2.91677 -2.41667 6.20135
H -4.32843 -1.43377 6.6349
H -5.77157 -3.62412 6.49163
H -5.26112 -2.69255 5.0301
$end

$opt
CONSTRAINT
tors           1           2           3           4     -11.340
tors           3           4           5           6     -80.445
tors           4           5           6           7    -180.000
tors           5           6           7           8    -177.097
tors           6           7           8           9     -95.918
tors           7           8           9          10    -177.578
tors           8           9          10          11    -171.307
tors           9          10          11          12     +47.434
tors          11          12          13          14    +156.034
ENDCONSTRAINT
$end

$rem
JOBTYPE                   OPT
METHOD                    B3LYP
DFT_D                     d3_op
BASIS                     STO-3G
GEOM_OPT_MAX_CYCLES       100
GEOM_OPT_TOL_GRADIENT     300
GEOM_OPT_TOL_DISPLACEMENT 1200
GEOM_OPT_TOL_ENERGY       100
SYMMETRY                  False
THRESH                    12
SCF_CONVERGENCE           8
MAX_SUB_FILE_NUM          128
MEM_STATIC                400
MEM_TOTAL                 4000
$end
--------------------------------------------------------------

   15   -1510.1226223748      8.20E-09 Convergence criterion met
 Total energy in the final basis set = -1510.12262237
   13   -1510.1979182870      8.17E-09 Convergence criterion met
 Total energy in the final basis set = -1510.19791829
   13   -1510.2358219095      7.84E-09 Convergence criterion met
 Total energy in the final basis set = -1510.23582191
   14   -1510.2584461973      8.09E-09 Convergence criterion met
 Total energy in the final basis set = -1510.25844620
   13   -1510.2677752188      9.23E-09 Convergence criterion met
 Total energy in the final basis set = -1510.26777522
   13   -1510.2722807877      4.15E-09 Convergence criterion met
 Total energy in the final basis set = -1510.27228079
   13   -1510.2746718554      4.35E-09 Convergence criterion met
 Total energy in the final basis set = -1510.27467186
   13   -1510.2757220919      2.73E-09 Convergence criterion met
   11   -1510.2764455589      7.67E-09 Convergence criterion met
 Total energy in the final basis set = -1510.27644556
    9   -1510.2764648985      9.88E-09 Convergence criterion met
 Total energy in the final basis set = -1510.27646490
   10   -1510.2764607360      6.45E-09 Convergence criterion met
 Total energy in the final basis set = -1510.27646074
   10   -1510.2764729607      8.90E-09 Convergence criterion met
 Total energy in the final basis set = -1510.27647296
    9   -1510.2764627119      4.96E-09 Convergence criterion met
 Total energy in the final basis set = -1510.27646271
    9   -1510.2764737462      6.67E-09 Convergence criterion met
 Total energy in the final basis set = -1510.27647375

             Standard Nuclear Orientation (Angstroms)
    I     Atom           X                Y                Z
 ----------------------------------------------------------------
    1      O      -3.4581532233     1.9405242534     0.7019171625
    2      C      -3.9188719554     1.4111633031    -0.3349168964
    3      C      -3.9467205874    -0.1121283875    -0.6896863595
    4      C      -3.0601898143    -0.9897552206     0.2843979817
    5      C      -2.3070245751    -0.1664056936     1.3964326433
    6      O      -1.1392768614     0.3944272524     0.7815350475
    7      C      -0.3647035041     1.1914178150     1.7625546685
    8      C       0.8318880500     1.8091222611     0.9678891423
    9      O       1.9937914304     0.9127548225     1.1709901033
   10      C       3.1497164918     1.4452712323     0.5154233465
   11      C       4.2809716650     0.3612944805     0.5694094770
   12      C       3.9057247393    -1.1222399781     0.1656354313
   13      C       2.7601584165    -1.3473233444    -0.9027054010
   14      O       2.6543835882    -2.3723196972    -1.6133303571
   15      O      -4.5452383004     2.1356189431    -1.3947110746
   16      O       1.9297870555    -0.1989273853    -1.0729105759
   17      O       3.2142480259     2.5824684733     0.0017873425
   18      C       0.9048108116    -0.4602506634    -2.1093343907
   19      C       5.5400098046     0.6400515959    -0.3587375459
   20      C       6.8008076831     0.0762281943     0.4004227760
   21      C       6.4957738489    -1.4681384911     0.3447463132
   22      C       5.2385161045    -1.5086783943    -0.6121723833
   23      O       5.3972242726    -0.3153749460    -1.4833131351
   24      H       4.6139477478     0.3369818742     1.6248387743
   25      H       3.7070522918    -1.7545662845     1.0502760656
   26      H       5.6105766952     1.6812664929    -0.7299512152
   27      H       7.7216258608     0.3217604723    -0.1530408335
   28      H       6.8899246476     0.4623320332     1.4283780286
   29      H       7.3332229269    -2.0356615300    -0.0905866405
   30      H       6.2659629821    -1.8883607919     1.3373641189
   31      H       5.1332527994    -2.4254718034    -1.2247484655
   32      O      -2.5667326738    -0.1100158123     2.6163859712
   33      C      -4.5712561178     3.5825702161    -1.0758150232
   34      C      -5.3847336833    -0.7484136336    -0.4392508186
   35      C      -5.4254241007    -2.1589708731    -1.1509068398
   36      C      -4.5566817988    -3.0240020901    -0.1635087885
   37      C      -4.1589424936    -1.9430208295     0.9162377737
   38      O      -5.3605175545    -1.0792837766     1.0012738909
   39      H      -3.6416259021    -0.2307407279    -1.7448887812
   40      H      -2.3035368001    -1.5573337341    -0.2862958175
   41      H      -3.5472543318     3.9896151959    -0.9500134234
   42      H      -6.2308120419    -0.0737492395    -0.6748880635
   43      H      -6.4610522191    -2.5300546899    -1.2103239759
   44      H      -5.0040549821    -2.1202038774    -2.1680826137
   45      H      -5.1506822262    -3.8299370731     0.2959883791
   46      H      -3.6739358991    -3.4683979988    -0.6503952782
   47      H      -3.8961592095    -2.3337624671     1.9182863914
   48      H      -5.1475548011     3.7851724130    -0.1500188375
   49      H      -5.0631517652     4.0749223188    -1.9347856959
   50      H       0.4033480259     0.5079468074    -2.2913491308
   51      H       0.1567700675    -1.1993938945    -1.7557358499
   52      H       1.3585841566    -0.8344989708    -3.0492631220
   53      H       0.5710050980     1.8764637137    -0.1104434834
   54      H       1.0604791211     2.8340373445     1.3344964044
   55      H       0.0144815200     0.5560412765     2.5930453566
   56      H      -1.0050522808     1.9902446152     2.1967438188
 ----------------------------------------------------------------

    8   -1510.2764743927      6.81E-09 Convergence criterion met
 Total energy in the final basis set = -1510.27647439
 Final energy is   -1510.27647439268
 **  OPTIMIZATION CONVERGED  **

                    Orbital Energies (a.u.)
 --------------------------------------------------------------

 Alpha MOs
 -- Occupied --
-18.944 -18.938 -18.926 -18.920 -18.889 -18.886 -18.883 -18.870
-18.869 -18.863 -10.107 -10.098 -10.098 -10.092 -10.071 -10.070
-10.068 -10.065 -10.063 -10.058 -10.056 -10.056 -10.041 -10.039
-10.034 -10.034 -10.022 -10.020 -10.020 -10.018  -1.020  -1.014
 -1.005  -0.999  -0.971  -0.968  -0.944  -0.936  -0.932  -0.925
 -0.765  -0.761  -0.726  -0.722  -0.712  -0.704  -0.695  -0.668
 -0.663  -0.612  -0.598  -0.578  -0.547  -0.542  -0.538  -0.536
 -0.514  -0.509  -0.484  -0.481  -0.464  -0.461  -0.454  -0.445
 -0.433  -0.430  -0.418  -0.416  -0.415  -0.410  -0.405  -0.403
 -0.394  -0.382  -0.377  -0.375  -0.362  -0.357  -0.351  -0.349
 -0.341  -0.338  -0.335  -0.329  -0.328  -0.325  -0.318  -0.313
 -0.309  -0.307  -0.305  -0.302  -0.296  -0.290  -0.278  -0.275
 -0.268  -0.260  -0.249  -0.246  -0.244  -0.235  -0.232  -0.187
 -0.181  -0.168  -0.164  -0.161  -0.154  -0.146  -0.146  -0.143
 -0.142

          Ground-State Mulliken Net Atomic Charges

     Atom                 Charge (a.u.)
  ----------------------------------------
      1 O                    -0.207285
      2 C                     0.213622
      3 C                    -0.078746
      4 C                    -0.081138
      5 C                     0.215562
      6 O                    -0.180717
      7 C                    -0.046120
      8 C                    -0.043737
      9 O                    -0.172498
     10 C                     0.216861
     11 C                    -0.081277
     12 C                    -0.074203
     13 C                     0.212713
     14 O                    -0.218836
     15 O                    -0.168959
     16 O                    -0.165347
     17 O                    -0.216760
     18 C                    -0.125225
     19 C                     0.022415
     20 C                    -0.141447
     21 C                    -0.146126
     22 C                     0.023030
     23 O                    -0.193285
     24 H                     0.082065
     25 H                     0.085957
     26 H                     0.090126
     27 H                     0.077800
     28 H                     0.072935
     29 H                     0.078429
     30 H                     0.073143
     31 H                     0.088996
     32 O                    -0.215179
     33 C                    -0.128349
     34 C                     0.025578
     35 C                    -0.143504
     36 C                    -0.144137
     37 C                     0.025150
     38 O                    -0.188103
     39 H                     0.085708
     40 H                     0.081788
     41 H                     0.090234
     42 H                     0.084601
     43 H                     0.078484
     44 H                     0.073560
     45 H                     0.078497
     46 H                     0.073409
     47 H                     0.089436
     48 H                     0.091757
     49 H                     0.092425
     50 H                     0.090106
     51 H                     0.086679
     52 H                     0.093695
     53 H                     0.093163
     54 H                     0.087525
     55 H                     0.092208
     56 H                     0.093326
  ----------------------------------------
  Sum of atomic charges =     0.000000

                    Cartesian Multipole Moments
 -----------------------------------------------------------------
    Charge (ESU x 10^10)
                 0.0000
    Dipole Moment (Debye)
         X      -0.3554      Y      -0.0932      Z      -0.9425
       Tot       1.0116
    Quadrupole Moments (Debye-Ang)
        XX    -154.5177     XY      -4.7516     YY    -155.5898
        XZ      22.4635     YZ      -2.0504     ZZ    -165.3901

 Total job time:  86.02s(wall), 4098.29s(cpu)
        *  Thank you very much for using Q-Chem.  Have a nice day.  *
