 Q-Chem 5.0, Q-Chem, Inc., Pleasanton, CA (2017)
 Q-Chem 5.0.1 for Intel X86 EM64T Linux

User input:
--------------------------------------------------------------
$molecule
0  1
O -3.4581532233 1.9405242534 0.7019171625
C -3.9188719554 1.4111633031 -0.3349168964
C -3.9467205874 -0.1121283875 -0.6896863595
C -3.0601898143 -0.9897552206 0.2843979817
C -2.3070245751 -0.1664056936 1.3964326433
O -1.1392768614 0.3944272524 0.7815350475
C -0.3647035041 1.191417815 1.7625546685
C 0.83188805 1.8091222611 0.9678891423
O 1.9937914304 0.9127548225 1.1709901033
C 3.1497164918 1.4452712323 0.5154233465
C 4.280971665 0.3612944805 0.569409477
C 3.9057247393 -1.1222399781 0.1656354313
C 2.7601584165 -1.3473233444 -0.902705401
O 2.6543835882 -2.3723196972 -1.6133303571
O -4.5452383004 2.1356189431 -1.3947110746
O 1.9297870555 -0.1989273853 -1.0729105759
O 3.2142480259 2.5824684733 0.0017873425
C 0.9048108116 -0.4602506634 -2.1093343907
C 5.5400098046 0.6400515959 -0.3587375459
C 6.8008076831 0.0762281943 0.400422776
C 6.4957738489 -1.4681384911 0.3447463132
C 5.2385161045 -1.5086783943 -0.6121723833
O 5.3972242726 -0.315374946 -1.4833131351
H 4.6139477478 0.3369818742 1.6248387743
H 3.7070522918 -1.7545662845 1.0502760656
H 5.6105766952 1.6812664929 -0.7299512152
H 7.7216258608 0.3217604723 -0.1530408335
H 6.8899246476 0.4623320332 1.4283780286
H 7.3332229269 -2.03566153 -0.0905866405
H 6.2659629821 -1.8883607919 1.3373641189
H 5.1332527994 -2.4254718034 -1.2247484655
O -2.5667326738 -0.1100158123 2.6163859712
C -4.5712561178 3.5825702161 -1.0758150232
C -5.3847336833 -0.7484136336 -0.4392508186
C -5.4254241007 -2.1589708731 -1.1509068398
C -4.5566817988 -3.0240020901 -0.1635087885
C -4.1589424936 -1.9430208295 0.9162377737
O -5.3605175545 -1.0792837766 1.0012738909
H -3.6416259021 -0.2307407279 -1.7448887812
H -2.3035368001 -1.5573337341 -0.2862958175
H -3.5472543318 3.9896151959 -0.9500134234
H -6.2308120419 -0.0737492395 -0.6748880635
H -6.4610522191 -2.5300546899 -1.2103239759
H -5.0040549821 -2.1202038774 -2.1680826137
H -5.1506822262 -3.8299370731 0.2959883791
H -3.6739358991 -3.4683979988 -0.6503952782
H -3.8961592095 -2.3337624671 1.9182863914
H -5.1475548011 3.785172413 -0.1500188375
H -5.0631517652 4.0749223188 -1.9347856959
H 0.4033480259 0.5079468074 -2.2913491308
H 0.1567700675 -1.1993938945 -1.7557358499
H 1.3585841566 -0.8344989708 -3.049263122
H 0.571005098 1.8764637137 -0.1104434834
H 1.0604791211 2.8340373445 1.3344964044
H 0.01448152 0.5560412765 2.5930453566
H -1.0050522808 1.9902446152 2.1967438188
$end

$rem
JOBTYPE                   OPT
METHOD                    B3LYP
DFT_D                     d3_op
BASIS                     STO-3G
GEOM_OPT_MAX_CYCLES       100
GEOM_OPT_TOL_GRADIENT     300
GEOM_OPT_TOL_DISPLACEMENT 1200
GEOM_OPT_TOL_ENERGY       100
SYMMETRY                  False
THRESH                    12
SCF_CONVERGENCE           8
MAX_SUB_FILE_NUM          128
MEM_STATIC                400
MEM_TOTAL                 4000
$end
--------------------------------------------------------------

   16   -1510.2761561453      6.06E-09 Convergence criterion met
 Total energy in the final basis set = -1510.27615615
   13   -1510.2782420196      3.17E-09 Convergence criterion met
 Total energy in the final basis set = -1510.27824202
   13   -1510.2802839894      3.81E-09 Convergence criterion met
 Total energy in the final basis set = -1510.28028399
   13   -1510.2819205794      6.55E-09 Convergence criterion met
 Total energy in the final basis set = -1510.28192058
   13   -1510.2827842750      7.43E-09 Convergence criterion met
 Total energy in the final basis set = -1510.28278428
   13   -1510.2845875042      2.81E-09 Convergence criterion met
 Total energy in the final basis set = -1510.28458750
   13   -1510.2862247766      4.26E-09 Convergence criterion met
 Total energy in the final basis set = -1510.28622478
   13   -1510.2878820149      3.81E-09 Convergence criterion met
   12   -1510.3020420486      4.62E-09 Convergence criterion met
 Total energy in the final basis set = -1510.30204205
   11   -1510.3020560881      9.86E-09 Convergence criterion met
 Total energy in the final basis set = -1510.30205609
   10   -1510.3020619302      9.76E-09 Convergence criterion met
 Total energy in the final basis set = -1510.30206193
   10   -1510.3020598082      3.89E-09 Convergence criterion met
 Total energy in the final basis set = -1510.30205981
   10   -1510.3020641175      2.68E-09 Convergence criterion met
 Total energy in the final basis set = -1510.30206412
    9   -1510.3020652449      1.93E-09 Convergence criterion met
 Total energy in the final basis set = -1510.30206524

             Standard Nuclear Orientation (Angstroms)
    I     Atom           X                Y                Z
 ----------------------------------------------------------------
    1      O      -3.7584066056     1.7941987203     0.3486424404
    2      C      -3.8290959415     1.0468398140    -0.6538869956
    3      C      -3.1335136219    -0.3428441293    -0.8339165175
    4      C      -2.1040843523    -0.6359643073     0.3248693468
    5      C      -1.7669830347     0.5873329280     1.2378457295
    6      O      -1.0462811105     1.5538184737     0.4323386251
    7      C      -0.5049566747     2.6347812542     1.2816303863
    8      C       1.0180113885     2.8088275914     0.9788048369
    9      O       1.6855432088     1.5090229072     1.2441416725
   10      C       2.9690119617     1.4889713650     0.6005722722
   11      C       3.6700605762     0.1112701378     0.8904558076
   12      C       2.9432281825    -1.1604969818     0.2786661885
   13      C       1.6033225415    -0.8566916290    -0.4645672042
   14      O       0.5523367761    -1.5393906159    -0.3848722721
   15      O      -4.6057790100     1.3352696898    -1.8170573664
   16      O       1.7733076687     0.2821420201    -1.2959839577
   17      O       3.4554226991     2.4574045050    -0.0208335300
   18      C       0.4787256401     0.6907468649    -1.9013102833
   19      C       5.0663293610     0.0497098729     0.1445699242
   20      C       5.9197153934    -1.1274880182     0.7587880818
   21      C       5.1997953914    -2.3811538586     0.1361517891
   22      C       4.0681123296    -1.6872555780    -0.7215228951
   23      O       4.7071849424    -0.4459837897    -1.2051390913
   24      H       3.7794575914     0.0019386701     1.9851267656
   25      H       2.7219876859    -1.9105389667     1.0578581703
   26      H       5.5738011399     1.0308518619     0.0692390406
   27      H       6.9680497087    -1.0578532810     0.4277725870
   28      H       5.8956016771    -1.1270354512     1.8602204765
   29      H       5.8774411680    -2.9548152644    -0.5161014907
   30      H       4.7849714176    -3.0589516464     0.8992091677
   31      H       3.6851762941    -2.2863457732    -1.5705168307
   32      O      -1.9053911251     0.6945435449     2.4737366661
   33      C      -5.3139765130     2.6259300453    -1.6479985757
   34      C      -4.1832375022    -1.5117185370    -0.5870790355
   35      C      -3.5031787380    -2.8907656106    -0.9556567027
   36      C      -2.5886285123    -3.1326039460     0.3027254398
   37      C      -2.8401886734    -1.8001200234     1.1090169620
   38      O      -4.2842472710    -1.5410568564     0.8886533629
   39      H      -2.6783441446    -0.3994598399    -1.8387730004
   40      H      -1.1314947713    -0.9956334086    -0.0869007270
   41      H      -4.6028857122     3.4646585982    -1.5028378287
   42      H      -5.1754277792    -1.3359670831    -1.0469861935
   43      H      -4.2646531982    -3.6794419180    -1.0637994825
   44      H      -2.9262473774    -2.8259475040    -1.8921469283
   45      H      -2.9252396152    -4.0070914942     0.8820417595
   46      H      -1.5259602883    -3.2611364748     0.0408172991
   47      H      -2.6133809610    -1.8345725429     2.1922182254
   48      H      -6.0086252293     2.5992370323    -0.7837482748
   49      H      -5.8874455168     2.7831972619    -2.5800395505
   50      H       0.7254973263     1.5003587649    -2.6113450242
   51      H      -0.2092487334     1.0629428156    -1.0999604491
   52      H       0.0090299171    -0.1521639290    -2.4459821355
   53      H       1.1801199771     3.1149624321    -0.0767218955
   54      H       1.4385892914     3.6051629023     1.6329507768
   55      H      -0.6855341210     2.3572253453     2.3436352169
   56      H      -1.0382864583     3.5840334201     1.0573112961
 ----------------------------------------------------------------

    9   -1510.3020650514      2.05E-09 Convergence criterion met
 Total energy in the final basis set = -1510.30206505
 Final energy is   -1510.30206505144
 **  OPTIMIZATION CONVERGED  **

                    Orbital Energies (a.u.)
 --------------------------------------------------------------

 Alpha MOs
 -- Occupied --
-18.944 -18.941 -18.929 -18.926 -18.890 -18.883 -18.882 -18.879
-18.872 -18.870 -10.109 -10.102 -10.099 -10.095 -10.072 -10.068
-10.067 -10.063 -10.058 -10.056 -10.048 -10.047 -10.041 -10.039
-10.034 -10.022 -10.021 -10.015 -10.014 -10.009  -1.020  -1.017
 -1.008  -1.002  -0.972  -0.963  -0.942  -0.940  -0.937  -0.928
 -0.765  -0.757  -0.727  -0.719  -0.712  -0.704  -0.694  -0.664
 -0.658  -0.613  -0.597  -0.575  -0.548  -0.541  -0.537  -0.530
 -0.514  -0.506  -0.485  -0.482  -0.468  -0.460  -0.452  -0.444
 -0.433  -0.426  -0.420  -0.416  -0.412  -0.410  -0.408  -0.403
 -0.398  -0.377  -0.374  -0.366  -0.362  -0.359  -0.358  -0.349
 -0.345  -0.338  -0.335  -0.334  -0.327  -0.325  -0.319  -0.310
 -0.306  -0.306  -0.301  -0.299  -0.293  -0.289  -0.281  -0.270
 -0.267  -0.255  -0.251  -0.250  -0.240  -0.236  -0.227  -0.184
 -0.180  -0.175  -0.168  -0.162  -0.157  -0.151  -0.150  -0.146
 -0.137

          Ground-State Mulliken Net Atomic Charges

     Atom                 Charge (a.u.)
  ----------------------------------------
      1 O                    -0.207591
      2 C                     0.214207
      3 C                    -0.078586
      4 C                    -0.099626
      5 C                     0.223351
      6 O                    -0.184286
      7 C                    -0.052361
      8 C                    -0.049313
      9 O                    -0.178627
     10 C                     0.216086
     11 C                    -0.078430
     12 C                    -0.079144
     13 C                     0.219805
     14 O                    -0.221635
     15 O                    -0.168952
     16 O                    -0.162902
     17 O                    -0.213609
     18 C                    -0.148850
     19 C                     0.025194
     20 C                    -0.144419
     21 C                    -0.143439
     22 C                     0.026115
     23 O                    -0.185927
     24 H                     0.084832
     25 H                     0.086247
     26 H                     0.091186
     27 H                     0.078633
     28 H                     0.073617
     29 H                     0.078419
     30 H                     0.074052
     31 H                     0.082583
     32 O                    -0.212937
     33 C                    -0.128180
     34 C                     0.024935
     35 C                    -0.143926
     36 C                    -0.144115
     37 C                     0.023854
     38 O                    -0.192932
     39 H                     0.084424
     40 H                     0.113689
     41 H                     0.089534
     42 H                     0.082170
     43 H                     0.076062
     44 H                     0.072960
     45 H                     0.074797
     46 H                     0.081299
     47 H                     0.087950
     48 H                     0.091494
     49 H                     0.091563
     50 H                     0.086346
     51 H                     0.114462
     52 H                     0.080452
     53 H                     0.093602
     54 H                     0.084937
     55 H                     0.105447
     56 H                     0.085482
  ----------------------------------------
  Sum of atomic charges =     0.000000

                    Cartesian Multipole Moments
 -----------------------------------------------------------------
    Charge (ESU x 10^10)
                 0.0000
    Dipole Moment (Debye)
         X       0.6877      Y      -0.3946      Z      -1.1230
       Tot       1.3747
    Quadrupole Moments (Debye-Ang)
        XX    -158.3915     XY     -11.4060     YY    -151.3210
        XZ      19.0861     YZ       0.1690     ZZ    -162.8327

 Total job time:  106.17s(wall), 5064.91s(cpu)
        *  Thank you very much for using Q-Chem.  Have a nice day.  *
