 Q-Chem 5.0, Q-Chem, Inc., Pleasanton, CA (2017)
 Q-Chem 5.0.1 for Intel X86 EM64T Linux

User input:
--------------------------------------------------------------
$molecule
0  1
O -3.94934 -3.66094 2.70899
C -3.26408 -4.56952 2.26188
C -3.36658 -6.02376 2.66595
C -3.09925 -6.36357 4.14139
C -2.93405 -5.19214 5.08402
O -1.89661 -4.40616 4.67004
C -1.67714 -3.272 5.51547
C -1.46244 -2.02042 4.67073
O -0.52692 -1.14574 5.32082
C -0.38172 0.07771 4.75405
C 0.7574 0.87052 5.34945
C 2.14798 0.51625 4.80259
C 2.16769 -0.29399 3.52203
O 3.17289 -0.66975 2.93642
O -2.37495 -4.2853 1.27533
O 1.0255 -0.51071 2.81753
O -1.19879 0.56024 3.97713
C 0.94909 -1.13861 1.58961
C 0.7296 2.37957 4.99549
C 1.50753 3.16786 6.04905
C 2.92568 2.7368 5.73473
C 2.68423 1.91321 4.46454
O 1.56043 2.51245 3.86804
H 0.67085 0.79486 6.45738
H 2.74424 -0.05095 5.55013
H -0.29686 2.79569 4.89874
H 1.39785 4.24455 5.78505
H 1.18968 3.02023 7.10352
H 3.52972 3.64594 5.51957
H 3.42032 2.12343 6.51901
H 3.60463 1.87397 3.84072
O -3.67225 -4.95763 6.03501
C -2.26481 -3.04925 0.67537
C -4.80184 -6.56106 2.51178
C -4.77611 -8.08039 2.35484
C -4.40175 -8.50265 3.76017
C -4.38949 -7.14201 4.46636
O -5.3733 -6.39926 3.78777
H -2.68566 -6.59853 1.99694
H -2.18821 -6.99126 4.26132
H -2.0502 -2.27405 1.43833
H -5.35311 -6.09637 1.66473
H -5.82165 -8.40717 2.15389
H -4.11177 -8.46281 1.55031
H -5.21833 -9.1423 4.16312
H -3.42634 -9.02708 3.85534
H -4.5438 -7.28104 5.55884
H -3.21217 -2.79484 0.15389
H -1.44168 -3.0744 -0.06777
H -0.09982 -1.12399 1.24278
H 1.29405 -2.19115 1.67438
H 1.56569 -0.59573 0.84176
H -0.99847 -2.31525 3.70345
H -2.45086 -1.55081 4.46821
H -0.69757 -3.48644 5.99571
H -2.38712 -3.07447 6.3491
$end

$opt
CONSTRAINT
tors           1           2           3           4     -60.819
tors           3           4           5           6     -58.693
tors           4           5           6           7    -180.000
tors           5           6           7           8    -135.113
tors           6           7           8           9    -146.064
tors           7           8           9          10    -171.906
tors           8           9          10          11    -171.307
tors           9          10          11          12     +81.283
tors          11          12          13          14    +179.965
ENDCONSTRAINT
$end

$rem
JOBTYPE                   OPT
METHOD                    B3LYP
DFT_D                     d3_op
BASIS                     STO-3G
GEOM_OPT_MAX_CYCLES       100
GEOM_OPT_TOL_GRADIENT     300
GEOM_OPT_TOL_DISPLACEMENT 1200
GEOM_OPT_TOL_ENERGY       100
SYMMETRY                  False
THRESH                    12
SCF_CONVERGENCE           8
MAX_SUB_FILE_NUM          128
MEM_STATIC                400
MEM_TOTAL                 4000
$end
--------------------------------------------------------------

   15   -1510.1454947510      8.70E-09 Convergence criterion met
 Total energy in the final basis set = -1510.14549475
   13   -1510.2169770051      7.45E-09 Convergence criterion met
 Total energy in the final basis set = -1510.21697701
   14   -1510.2555710409      3.14E-09 Convergence criterion met
 Total energy in the final basis set = -1510.25557104
   14   -1510.2726104550      5.20E-09 Convergence criterion met
 Total energy in the final basis set = -1510.27261045
   14   -1510.2775443617      2.63E-09 Convergence criterion met
 Total energy in the final basis set = -1510.27754436
   14   -1510.2791470065      4.53E-09 Convergence criterion met
 Total energy in the final basis set = -1510.27914701
   13   -1510.2801412726      3.44E-09 Convergence criterion met
 Total energy in the final basis set = -1510.28014127
   13   -1510.2801264356      5.50E-09 Convergence criterion met
   11   -1510.2815343254      6.91E-09 Convergence criterion met
 Total energy in the final basis set = -1510.28153433
   11   -1510.2815818429      3.40E-09 Convergence criterion met
 Total energy in the final basis set = -1510.28158184
   10   -1510.2816004233      5.26E-09 Convergence criterion met
 Total energy in the final basis set = -1510.28160042
    9   -1510.2816121650      7.64E-09 Convergence criterion met
 Total energy in the final basis set = -1510.28161216
    9   -1510.2816169873      6.35E-09 Convergence criterion met
 Total energy in the final basis set = -1510.28161699
    9   -1510.2816211771      4.24E-09 Convergence criterion met
 Total energy in the final basis set = -1510.28162118

             Standard Nuclear Orientation (Angstroms)
    I     Atom           X                Y                Z
 ----------------------------------------------------------------
    1      O      -2.8432994306     0.2125104667     1.8866276849
    2      C      -3.1027755820     0.9448999869     0.9075195628
    3      C      -4.2895093059     0.8077173879    -0.1087023542
    4      C      -4.2940636819    -0.5546040533    -0.9244579219
    5      C      -3.1129453740    -1.5171220179    -0.5574995736
    6      O      -1.8846928194    -0.8225413478    -0.8090828715
    7      C      -0.7210560332    -1.6819582031    -0.4807387496
    8      C       0.3025052853    -0.8132762984     0.3243167155
    9      O       1.6592381210    -1.2773696264    -0.0452669545
   10      C       2.6391000808    -0.6498969510     0.7985179030
   11      C       4.0536639934    -1.0040866531     0.2157561848
   12      C       4.5631967600    -0.1318733024    -1.0100830535
   13      C       3.6981919527     1.0876645592    -1.4918331919
   14      O       3.9933663293     1.8463351440    -2.4414704239
   15      O      -2.3809232103     2.1433623384     0.5906132012
   16      O       2.5415900081     1.2697813393    -0.6745831238
   17      O       2.3777578159    -0.0298116398     1.8505332773
   18      C       1.7656314628     2.4462673444    -1.1281121840
   19      C       5.2008956236    -0.7357684162     1.2794220320
   20      C       6.4610810808    -1.5949491735     0.8737902256
   21      C       6.9734218131    -0.7986378658    -0.3824191780
   22      C       5.9472869708     0.4021677635    -0.4256715876
   23      O       5.6293264373     0.6542642728     0.9965117230
   24      H       4.0253298703    -2.0678054376    -0.0817801514
   25      H       4.7369367307    -0.7707509363    -1.8954559782
   26      H       4.8690279858    -0.8288779887     2.3316440884
   27      H       7.2068823900    -1.5927752217     1.6848633922
   28      H       6.1969459263    -2.6385060817     0.6393232920
   29      H       7.9994027565    -0.4249805360    -0.2376593318
   30      H       6.9421917902    -1.3969601126    -1.3067904954
   31      H       6.3171423161     1.3230607081    -0.9173782494
   32      O      -3.1889355793    -2.6907549866    -0.1361209438
   33      C      -1.3466231865     2.4016677227     1.6199914342
   34      C      -5.6876347646     0.6964367822     0.6443235115
   35      C      -6.8387163491     0.9651126454    -0.4043158398
   36      C      -6.8377845260    -0.3858404257    -1.2121599625
   37      C      -5.6825643926    -1.1748954245    -0.4822036811
   38      O      -5.8081733206    -0.7496547149     0.9320414761
   39      H      -4.2577334234     1.6780688309    -0.7870659637
   40      H      -4.2554491160    -0.3571219180    -2.0116409387
   41      H      -0.6026404988     1.5821718497     1.6795971921
   42      H      -5.7539684443     1.2850742882     1.5797060570
   43      H      -7.7979162476     1.1264903063     0.1129349290
   44      H      -6.6279862205     1.8409396405    -1.0388995914
   45      H      -7.7956426208    -0.9200687216    -1.1085231320
   46      H      -6.6284039541    -0.2401213946    -2.2839485214
   47      H      -5.7244895460    -2.2788582359    -0.5579121218
   48      H      -1.7980845893     2.5348327521     2.6242062454
   49      H      -0.8420505264     3.3376589454     1.3175290659
   50      H       0.9549732636     2.5796056781    -0.3888159798
   51      H       1.3269436611     2.2780809505    -2.1330371947
   52      H       2.3945113706     3.3586076357    -1.1636493447
   53      H       0.1769665639     0.2520631909     0.0319512014
   54      H       0.1305088319    -0.8930791151     1.4192121334
   55      H      -0.2454470265    -2.0197639874    -1.4276675165
   56      H      -1.0685627899    -2.5712080628     0.0860986831
 ----------------------------------------------------------------

    9   -1510.2816216833      4.17E-09 Convergence criterion met
 Total energy in the final basis set = -1510.28162168
 Final energy is   -1510.28162168329
 **  OPTIMIZATION CONVERGED  **

                    Orbital Energies (a.u.)
 --------------------------------------------------------------

 Alpha MOs
 -- Occupied --
-18.946 -18.935 -18.934 -18.925 -18.888 -18.888 -18.882 -18.877
-18.872 -18.868 -10.105 -10.103 -10.098 -10.098 -10.071 -10.070
-10.069 -10.064 -10.062 -10.061 -10.059 -10.058 -10.041 -10.041
-10.038 -10.036 -10.022 -10.021 -10.021 -10.020  -1.019  -1.017
 -1.009  -1.004  -0.971  -0.971  -0.942  -0.941  -0.935  -0.931
 -0.765  -0.763  -0.728  -0.723  -0.712  -0.706  -0.697  -0.668
 -0.664  -0.615  -0.599  -0.582  -0.547  -0.545  -0.539  -0.538
 -0.514  -0.512  -0.488  -0.480  -0.466  -0.460  -0.453  -0.448
 -0.435  -0.431  -0.424  -0.419  -0.416  -0.411  -0.410  -0.400
 -0.392  -0.387  -0.377  -0.371  -0.364  -0.361  -0.354  -0.350
 -0.342  -0.338  -0.337  -0.333  -0.332  -0.328  -0.324  -0.312
 -0.311  -0.308  -0.306  -0.301  -0.296  -0.295  -0.287  -0.274
 -0.270  -0.255  -0.253  -0.250  -0.244  -0.235  -0.235  -0.185
 -0.180  -0.176  -0.171  -0.162  -0.158  -0.150  -0.147  -0.145
 -0.145

          Ground-State Mulliken Net Atomic Charges

     Atom                 Charge (a.u.)
  ----------------------------------------
      1 O                    -0.214219
      2 C                     0.208671
      3 C                    -0.078970
      4 C                    -0.078214
      5 C                     0.214571
      6 O                    -0.176595
      7 C                    -0.053423
      8 C                    -0.048598
      9 O                    -0.178240
     10 C                     0.220808
     11 C                    -0.081110
     12 C                    -0.077811
     13 C                     0.211435
     14 O                    -0.215357
     15 O                    -0.171236
     16 O                    -0.167104
     17 O                    -0.216192
     18 C                    -0.126230
     19 C                     0.024866
     20 C                    -0.143767
     21 C                    -0.144154
     22 C                     0.025180
     23 O                    -0.189239
     24 H                     0.084201
     25 H                     0.086189
     26 H                     0.088970
     27 H                     0.078328
     28 H                     0.073387
     29 H                     0.078575
     30 H                     0.073704
     31 H                     0.085974
     32 O                    -0.207052
     33 C                    -0.131450
     34 C                     0.025958
     35 C                    -0.143742
     36 C                    -0.144105
     37 C                     0.024588
     38 O                    -0.185596
     39 H                     0.086106
     40 H                     0.085352
     41 H                     0.092212
     42 H                     0.083634
     43 H                     0.078527
     44 H                     0.073615
     45 H                     0.078684
     46 H                     0.072976
     47 H                     0.090785
     48 H                     0.089741
     49 H                     0.087614
     50 H                     0.091970
     51 H                     0.090496
     52 H                     0.094434
     53 H                     0.086131
     54 H                     0.093682
     55 H                     0.087908
     56 H                     0.103132
  ----------------------------------------
  Sum of atomic charges =     0.000000

                    Cartesian Multipole Moments
 -----------------------------------------------------------------
    Charge (ESU x 10^10)
                 0.0000
    Dipole Moment (Debye)
         X      -0.1374      Y       0.6634      Z      -2.5528
       Tot       2.6412
    Quadrupole Moments (Debye-Ang)
        XX    -149.7592     XY     -18.7310     YY    -158.9545
        XZ       7.7978     YZ       4.7828     ZZ    -165.8714

 Total job time:  52.35s(wall), 2491.55s(cpu)
        *  Thank you very much for using Q-Chem.  Have a nice day.  *
