 Q-Chem 5.0, Q-Chem, Inc., Pleasanton, CA (2017)
 Q-Chem 5.0.1 for Intel X86 EM64T Linux

User input:
--------------------------------------------------------------
$molecule
0  1
O -2.8432994306 0.2125104667 1.8866276849
C -3.102775582 0.9448999869 0.9075195628
C -4.2895093059 0.8077173879 -0.1087023542
C -4.2940636819 -0.5546040533 -0.9244579219
C -3.112945374 -1.5171220179 -0.5574995736
O -1.8846928194 -0.8225413478 -0.8090828715
C -0.7210560332 -1.6819582031 -0.4807387496
C 0.3025052853 -0.8132762984 0.3243167155
O 1.659238121 -1.2773696264 -0.0452669545
C 2.6391000808 -0.649896951 0.798517903
C 4.0536639934 -1.0040866531 0.2157561848
C 4.56319676 -0.1318733024 -1.0100830535
C 3.6981919527 1.0876645592 -1.4918331919
O 3.9933663293 1.846335144 -2.4414704239
O -2.3809232103 2.1433623384 0.5906132012
O 2.5415900081 1.2697813393 -0.6745831238
O 2.3777578159 -0.0298116398 1.8505332773
C 1.7656314628 2.4462673444 -1.128112184
C 5.2008956236 -0.7357684162 1.279422032
C 6.4610810808 -1.5949491735 0.8737902256
C 6.9734218131 -0.7986378658 -0.382419178
C 5.9472869708 0.4021677635 -0.4256715876
O 5.6293264373 0.6542642728 0.996511723
H 4.0253298703 -2.0678054376 -0.0817801514
H 4.7369367307 -0.7707509363 -1.8954559782
H 4.8690279858 -0.8288779887 2.3316440884
H 7.20688239 -1.5927752217 1.6848633922
H 6.1969459263 -2.6385060817 0.639323292
H 7.9994027565 -0.424980536 -0.2376593318
H 6.9421917902 -1.3969601126 -1.3067904954
H 6.3171423161 1.3230607081 -0.9173782494
O -3.1889355793 -2.6907549866 -0.1361209438
C -1.3466231865 2.4016677227 1.6199914342
C -5.6876347646 0.6964367822 0.6443235115
C -6.8387163491 0.9651126454 -0.4043158398
C -6.837784526 -0.3858404257 -1.2121599625
C -5.6825643926 -1.1748954245 -0.4822036811
O -5.8081733206 -0.7496547149 0.9320414761
H -4.2577334234 1.6780688309 -0.7870659637
H -4.255449116 -0.357121918 -2.0116409387
H -0.6026404988 1.5821718497 1.6795971921
H -5.7539684443 1.2850742882 1.579706057
H -7.7979162476 1.1264903063 0.112934929
H -6.6279862205 1.8409396405 -1.0388995914
H -7.7956426208 -0.9200687216 -1.108523132
H -6.6284039541 -0.2401213946 -2.2839485214
H -5.724489546 -2.2788582359 -0.5579121218
H -1.7980845893 2.5348327521 2.6242062454
H -0.8420505264 3.3376589454 1.3175290659
H 0.9549732636 2.5796056781 -0.3888159798
H 1.3269436611 2.2780809505 -2.1330371947
H 2.3945113706 3.3586076357 -1.1636493447
H 0.1769665639 0.2520631909 0.0319512014
H 0.1305088319 -0.8930791151 1.4192121334
H -0.2454470265 -2.0197639874 -1.4276675165
H -1.0685627899 -2.5712080628 0.0860986831
$end

$rem
JOBTYPE                   OPT
METHOD                    B3LYP
DFT_D                     d3_op
BASIS                     STO-3G
GEOM_OPT_MAX_CYCLES       100
GEOM_OPT_TOL_GRADIENT     300
GEOM_OPT_TOL_DISPLACEMENT 1200
GEOM_OPT_TOL_ENERGY       100
SYMMETRY                  False
THRESH                    12
SCF_CONVERGENCE           8
MAX_SUB_FILE_NUM          128
MEM_STATIC                400
MEM_TOTAL                 4000
$end
--------------------------------------------------------------

   16   -1510.2815990244      6.15E-09 Convergence criterion met
 Total energy in the final basis set = -1510.28159902
   14   -1510.2821070037      9.22E-09 Convergence criterion met
 Total energy in the final basis set = -1510.28210700
   14   -1510.2828197333      7.23E-09 Convergence criterion met
 Total energy in the final basis set = -1510.28281973
   13   -1510.2835395168      7.60E-09 Convergence criterion met
 Total energy in the final basis set = -1510.28353952
   13   -1510.2844127758      6.15E-09 Convergence criterion met
 Total energy in the final basis set = -1510.28441278
   13   -1510.2853747367      7.44E-09 Convergence criterion met
 Total energy in the final basis set = -1510.28537474
   14   -1510.2868212138      3.77E-09 Convergence criterion met
 Total energy in the final basis set = -1510.28682121
   15   -1510.2528764680      5.16E-09 Convergence criterion met
   12   -1510.2937827739      5.63E-09 Convergence criterion met
 Total energy in the final basis set = -1510.29378277
   12   -1510.2938129572      6.89E-09 Convergence criterion met
 Total energy in the final basis set = -1510.29381296
   12   -1510.2938540029      5.21E-09 Convergence criterion met
 Total energy in the final basis set = -1510.29385400
   12   -1510.2938451294      3.74E-09 Convergence criterion met
 Total energy in the final basis set = -1510.29384513
   11   -1510.2938553225      9.89E-09 Convergence criterion met
 Total energy in the final basis set = -1510.29385532
   11   -1510.2938653579      7.34E-09 Convergence criterion met
 Total energy in the final basis set = -1510.29386536

             Standard Nuclear Orientation (Angstroms)
    I     Atom           X                Y                Z
 ----------------------------------------------------------------
    1      O      -2.1283501294    -0.7115451470     1.1471536742
    2      C      -2.6958370894     0.4054942788     1.0725036005
    3      C      -4.0223408351     0.7277655964     0.3041507310
    4      C      -4.2033023653    -0.1137119516    -1.0319847773
    5      C      -2.9504615090    -0.9870248916    -1.3960081612
    6      O      -1.9404594185    -0.0820943241    -1.8759927210
    7      C      -0.6169606931    -0.7524429621    -1.9333417567
    8      C       0.1249446949    -0.3292767491    -0.6229625548
    9      O       1.5029934949    -0.8725255478    -0.6197927332
   10      C       2.1962349676    -0.3725940823     0.5268401679
   11      C       3.6687413688    -0.9084385975     0.4819102648
   12      C       4.4260651482    -0.5638061095    -0.8693054624
   13      C       3.5667842011     0.2654635725    -1.8825452664
   14      O       3.3705559086     0.0200421133    -3.0919114155
   15      O      -2.2255423601     1.5855074916     1.7139414261
   16      O       3.0463388630     1.4165751374    -1.2015644833
   17      O       1.6758734176     0.3411372937     1.4142487983
   18      C       2.2389511591     2.2347367887    -2.1339910000
   19      C       4.5812448224    -0.1745519235     1.5472900821
   20      C       5.8980536804    -1.0223222474     1.7410322987
   21      C       6.6595326930    -0.7070610302     0.3999456155
   22      C       5.6489126007     0.2835797809    -0.3024340648
   23      O       5.0508822766     1.0320458653     0.8247468264
   24      H       3.6436471087    -2.0016433053     0.6458471874
   25      H       4.7657193869    -1.4767443882    -1.3886340732
   26      H       4.0443787729     0.1131974168     2.4721169819
   27      H       6.4604626590    -0.6640869042     2.6177950744
   28      H       5.6873474790    -2.0960677635     1.8696871616
   29      H       7.6206607637    -0.2030247124     0.5893617552
   30      H       6.8477240219    -1.6079474087    -0.2061586209
   31      H       6.1037248669     0.9794720455    -1.0338109694
   32      O      -2.8304445901    -2.2286075742    -1.3503314787
   33      C      -1.0271280164     1.2908315381     2.5452746322
   34      C      -5.2777843641     0.2109895321     1.1369947928
   35      C      -6.5907979779     0.8167000862     0.4973124490
   36      C      -6.7518813195    -0.0828731562    -0.7839160218
   37      C      -5.4704549738    -0.9961407235    -0.6726012478
   38      O      -5.3389879727    -1.2245349768     0.7858729874
   39      H      -4.0703086067     1.8152657344     0.1200613733
   40      H      -4.4051996482     0.5633471886    -1.8815761577
   41      H      -0.1398022499     0.9787065045     1.9449683881
   42      H      -5.1849903715     0.3410656476     2.2328605753
   43      H      -7.4432449734     0.6989425204     1.1848171789
   44      H      -6.4768576912     1.8854217550     0.2548748907
   45      H      -7.6661950792    -0.6953248015    -0.7332590244
   46      H      -6.7690859224     0.5018246187    -1.7174202476
   47      H      -5.5162226289    -1.9628266606    -1.2104070999
   48      H      -1.2491914780     0.4981232449     3.2874359943
   49      H      -0.7991959314     2.2342211602     3.0739388374
   50      H       1.8004401997     3.0472706683    -1.5260969050
   51      H       1.4291062128     1.6418547583    -2.6052463307
   52      H       2.8658961762     2.6714323814    -2.9381507754
   53      H       0.1517952684     0.7801634450    -0.5647597755
   54      H      -0.4678448310    -0.6973894738     0.2487709618
   55      H      -0.0882869006    -0.3888283412    -2.8380244991
   56      H      -0.7477809486    -1.8541720532    -1.9837187384
 ----------------------------------------------------------------

    9   -1510.2938647473      9.26E-09 Convergence criterion met
 Total energy in the final basis set = -1510.29386475
 Final energy is   -1510.29386474733
 **  OPTIMIZATION CONVERGED  **

                    Orbital Energies (a.u.)
 --------------------------------------------------------------

 Alpha MOs
 -- Occupied --
-18.939 -18.936 -18.934 -18.926 -18.889 -18.888 -18.881 -18.878
-18.878 -18.874 -10.106 -10.103 -10.099 -10.099 -10.067 -10.064
-10.063 -10.061 -10.059 -10.058 -10.058 -10.050 -10.040 -10.040
-10.038 -10.038 -10.022 -10.021 -10.020 -10.020  -1.019  -1.015
 -1.007  -1.006  -0.971  -0.970  -0.941  -0.938  -0.935  -0.935
 -0.766  -0.764  -0.728  -0.724  -0.711  -0.707  -0.696  -0.661
 -0.659  -0.614  -0.598  -0.581  -0.547  -0.545  -0.538  -0.538
 -0.515  -0.510  -0.484  -0.478  -0.465  -0.461  -0.454  -0.443
 -0.437  -0.432  -0.428  -0.416  -0.413  -0.410  -0.407  -0.399
 -0.391  -0.381  -0.371  -0.369  -0.361  -0.358  -0.356  -0.351
 -0.345  -0.337  -0.335  -0.333  -0.332  -0.329  -0.325  -0.311
 -0.310  -0.307  -0.305  -0.300  -0.294  -0.293  -0.283  -0.278
 -0.270  -0.260  -0.251  -0.248  -0.246  -0.235  -0.235  -0.186
 -0.177  -0.174  -0.173  -0.160  -0.158  -0.152  -0.150  -0.145
 -0.144

          Ground-State Mulliken Net Atomic Charges

     Atom                 Charge (a.u.)
  ----------------------------------------
      1 O                    -0.216777
      2 C                     0.212641
      3 C                    -0.078060
      4 C                    -0.079126
      5 C                     0.214516
      6 O                    -0.180908
      7 C                    -0.053246
      8 C                    -0.062855
      9 O                    -0.174408
     10 C                     0.222346
     11 C                    -0.077950
     12 C                    -0.078776
     13 C                     0.211783
     14 O                    -0.213939
     15 O                    -0.167654
     16 O                    -0.169153
     17 O                    -0.215029
     18 C                    -0.128409
     19 C                     0.024550
     20 C                    -0.143866
     21 C                    -0.143836
     22 C                     0.025937
     23 O                    -0.186069
     24 H                     0.086529
     25 H                     0.086009
     26 H                     0.090239
     27 H                     0.078380
     28 H                     0.073718
     29 H                     0.078152
     30 H                     0.074162
     31 H                     0.082613
     32 O                    -0.204613
     33 C                    -0.142273
     34 C                     0.025779
     35 C                    -0.143927
     36 C                    -0.143698
     37 C                     0.025134
     38 O                    -0.186210
     39 H                     0.087592
     40 H                     0.085420
     41 H                     0.111155
     42 H                     0.083239
     43 H                     0.078624
     44 H                     0.074098
     45 H                     0.078632
     46 H                     0.073501
     47 H                     0.089856
     48 H                     0.085159
     49 H                     0.087515
     50 H                     0.091836
     51 H                     0.087523
     52 H                     0.087982
     53 H                     0.081095
     54 H                     0.106104
     55 H                     0.086913
     56 H                     0.102051
  ----------------------------------------
  Sum of atomic charges =     0.000000

                    Cartesian Multipole Moments
 -----------------------------------------------------------------
    Charge (ESU x 10^10)
                 0.0000
    Dipole Moment (Debye)
         X       0.0892      Y       1.6389      Z      -0.1281
       Tot       1.6463
    Quadrupole Moments (Debye-Ang)
        XX    -140.9906     XY     -15.5714     YY    -164.1233
        XZ       5.1819     YZ      -3.7033     ZZ    -160.7642

 Total job time:  96.78s(wall), 4611.98s(cpu)
        *  Thank you very much for using Q-Chem.  Have a nice day.  *
