 Q-Chem 5.0, Q-Chem, Inc., Pleasanton, CA (2017)
 Q-Chem 5.0.1 for Intel X86 EM64T Linux

User input:
--------------------------------------------------------------
$molecule
0  1
O -2.4267544554 1.2636480246 0.3557881088
C -3.4455682232 1.3424998128 -0.3685396647
C -4.5068234146 0.2240144153 -0.6324772287
C -4.0989815033 -1.1768071254 -0.0164819055
C -2.8503382414 -1.098347315 0.9394499625
O -1.7028632489 -1.5233683912 0.1817465058
C -0.471173371 -1.3698308786 0.9901818292
C 0.3877319927 -0.2226042768 0.3526961237
O 1.8029186285 -0.4540660599 0.724868283
C 2.5734542665 0.7354802189 0.4979402633
C 4.0674038091 0.4195287835 0.8587702308
C 4.6663162941 -0.9117092566 0.2545843017
C 3.9842322043 -1.4407533653 -1.0625843509
O 4.3086442737 -2.4705227804 -1.6936408336
O -3.8206838962 2.5134855016 -1.0928849002
O 3.0736956462 -0.4633049379 -1.5759925537
O 2.100156011 1.8341356971 0.1391944999
C 2.50486043 -0.9104688779 -2.8660354265
C 5.1157100344 1.5026091186 0.3616655039
C 6.3154587882 1.4827021074 1.3843101193
C 6.9423577381 0.0745761092 1.0620873823
C 6.0954882561 -0.3679555978 -0.1978174483
O 5.7227654735 0.9087711484 -0.8539922099
H 4.1070004093 0.3503742657 1.962574684
H 4.7265215176 -1.7309948718 0.9925903192
H 4.6739972247 2.4931434223 0.1369759923
H 7.023806866 2.2969681759 1.1620692376
H 5.9829314567 1.5763944066 2.4303328934
H 8.0090149098 0.1543513668 0.7995116778
H 6.8375444908 -0.6374618066 1.8963928838
H 6.6230287086 -1.0341653288 -0.9082240276
O -2.844944139 -0.8792587751 2.1696957431
C -2.8366904005 3.5958971846 -0.85011779
C -5.9069276193 0.4846512216 0.0818055813
C -6.9869053845 -0.3955097159 -0.6602023611
C -6.5870319895 -1.835107595 -0.165673349
C -5.4016519977 -1.5057518572 0.8265585539
O -5.765873009 -0.1846209352 1.3930779979
H -4.64961634 0.1507188623 -1.7259827558
H -3.8945614355 -1.9214956819 -0.8052250547
H -1.8189023498 3.3017850027 -1.1785820707
H -6.1669041203 1.5534895931 0.2087155197
H -7.9995335312 -0.1205257428 -0.3239495118
H -6.9357527597 -0.2876023137 -1.7555026572
H -7.4159890978 -2.3244424632 0.3696533475
H -6.2619271486 -2.4906904576 -0.9892663662
H -5.2440294203 -2.2405719384 1.639188677
H -2.7945970425 3.8733697985 0.2228203257
H -3.1837786195 4.4609299102 -1.4443240867
H 1.8640806016 -0.0812111865 -3.2181055676
H 1.8926026929 -1.8277044903 -2.7445248654
H 3.3000898703 -1.1122738934 -3.6122345685
H 0.2804360215 -0.2642937088 -0.7543744934
H 0.0318229069 0.7743676627 0.6898471635
H 0.0920543077 -2.325904245 0.9440705518
H -0.7485709615 -1.1434699833 2.0416529775
$end

$rem
JOBTYPE                   OPT
METHOD                    B3LYP
DFT_D                     d3_op
BASIS                     STO-3G
GEOM_OPT_MAX_CYCLES       100
GEOM_OPT_TOL_GRADIENT     300
GEOM_OPT_TOL_DISPLACEMENT 1200
GEOM_OPT_TOL_ENERGY       100
SYMMETRY                  False
THRESH                    12
SCF_CONVERGENCE           8
MAX_SUB_FILE_NUM          128
MEM_STATIC                400
MEM_TOTAL                 4000
$end
--------------------------------------------------------------

   16   -1510.2812121578      6.96E-09 Convergence criterion met
 Total energy in the final basis set = -1510.28121216
   13   -1510.2827302320      8.16E-09 Convergence criterion met
 Total energy in the final basis set = -1510.28273023
   13   -1510.2841198628      2.21E-09 Convergence criterion met
 Total energy in the final basis set = -1510.28411986
   12   -1510.2854017549      7.47E-09 Convergence criterion met
 Total energy in the final basis set = -1510.28540175
   12   -1510.2865548742      8.10E-09 Convergence criterion met
 Total energy in the final basis set = -1510.28655487
   13   -1510.2876139055      3.51E-09 Convergence criterion met
 Total energy in the final basis set = -1510.28761391
   13   -1510.2883761528      2.92E-09 Convergence criterion met
 Total energy in the final basis set = -1510.28837615
   13   -1510.2893078887      4.63E-09 Convergence criterion met
   12   -1510.2935097948      6.62E-09 Convergence criterion met
 Total energy in the final basis set = -1510.29350979
   11   -1510.2935357317      8.96E-09 Convergence criterion met
 Total energy in the final basis set = -1510.29353573
   12   -1510.2935686813      3.72E-09 Convergence criterion met
 Total energy in the final basis set = -1510.29356868
   10   -1510.2935853762      8.92E-09 Convergence criterion met
 Total energy in the final basis set = -1510.29358538
   11   -1510.2935942966      7.40E-09 Convergence criterion met
 Total energy in the final basis set = -1510.29359430
    9   -1510.2935986766      7.87E-09 Convergence criterion met
 Total energy in the final basis set = -1510.29359868

             Standard Nuclear Orientation (Angstroms)
    I     Atom           X                Y                Z
 ----------------------------------------------------------------
    1      O      -2.2691597730     0.9217389983     0.9772803897
    2      C      -2.7977999150     1.0437516669    -0.1541428238
    3      C      -4.0474807092     0.2632514384    -0.6885430155
    4      C      -4.1261483626    -1.2362037945    -0.1678404497
    5      C      -2.8672155175    -1.6808254816     0.6576732090
    6      O      -1.7986344439    -1.8746549191    -0.2854730024
    7      C      -0.4922848846    -1.9718187841     0.4122330231
    8      C       0.1427523191    -0.5457450136     0.3141183507
    9      O       1.5220830888    -0.5683877876     0.8526795252
   10      C       2.1458087863     0.6921579358     0.5941911115
   11      C       3.6338350706     0.6031293581     1.0794088012
   12      C       4.4311031073    -0.6031913552     0.4239514957
   13      C       3.5816047036    -1.4634779223    -0.5708615827
   14      O       3.4313395046    -2.7039815622    -0.5655345914
   15      O      -2.3504459041     1.9549244467    -1.1519091010
   16      O       3.0107175460    -0.5885122571    -1.5554462560
   17      O       1.5664204452     1.6787236407     0.0860141717
   18      C       2.2258351606    -1.3705301428    -2.5368184418
   19      C       4.4783127568     1.8443426477     0.5782160159
   20      C       5.8222131476     1.8996777123     1.4037234888
   21      C       6.6169177371     0.6983676589     0.7682132575
   22      C       5.5898192972     0.1939743735    -0.3226650725
   23      O       4.9194008440     1.4324606013    -0.7751765402
   24      H       3.6357488660     0.5195579999     2.1819156699
   25      H       4.8360744130    -1.2847571379     1.1921227287
   26      H       3.9000210340     2.7872525127     0.5257352905
   27      H       6.3382383502     2.8586499494     1.2371411896
   28      H       5.6517285816     1.7729413254     2.4848541696
   29      H       7.5514663751     1.0360989553     0.2928588922
   30      H       6.8559592288    -0.0880265729     1.5015578944
   31      H       6.0376348553    -0.3418368306    -1.1820936403
   32      O      -2.7812955458    -1.8947587903     1.8843941466
   33      C      -1.2289365727     2.7875312940    -0.6387696232
   34      C      -5.3812177672     0.8560139834    -0.0485714004
   35      C      -6.6234516976     0.2635817991    -0.8262587119
   36      C      -6.6855852797    -1.1961438701    -0.2403709955
   37      C      -5.4355706193    -1.1865964433     0.7224617240
   38      O      -5.4365001176     0.1903203425     1.2709266639
   39      H      -4.0596466535     0.3215746196    -1.7909096186
   40      H      -4.2356047381    -1.9293852797    -1.0215253986
   41      H      -0.2973368981     2.2024773047    -0.4523329657
   42      H      -5.3817724981     1.9571895618     0.0691167379
   43      H      -7.5338785787     0.8360809456    -0.5876194597
   44      H      -6.4734771414     0.2785514111    -1.9178109993
   45      H      -7.6119265575    -1.3607454529     0.3328557819
   46      H      -6.6079736190    -1.9717566356    -1.0190029680
   47      H      -5.4518105422    -1.9271519477     1.5455435414
   48      H      -1.5173451664     3.3022233503     0.2994539099
   49      H      -1.0377614685     3.5389864994    -1.4262303005
   50      H       1.6788476101    -0.6320252045    -3.1512866677
   51      H       1.5069391307    -2.0512681764    -2.0384875457
   52      H       2.8858198109    -1.9770472634    -3.1907754381
   53      H       0.1549832971    -0.2314312799    -0.7518025721
   54      H      -0.5096417726     0.1712655240     0.8674012583
   55      H       0.1231304365    -2.7275111460    -0.1174253356
   56      H      -0.6434511002    -2.2753467000     1.4696814682
 ----------------------------------------------------------------

    9   -1510.2935985076      5.43E-09 Convergence criterion met
 Total energy in the final basis set = -1510.29359851
 Final energy is   -1510.29359850763
 **  OPTIMIZATION CONVERGED  **

                    Orbital Energies (a.u.)
 --------------------------------------------------------------

 Alpha MOs
 -- Occupied --
-18.939 -18.937 -18.933 -18.926 -18.889 -18.889 -18.882 -18.878
-18.877 -18.874 -10.106 -10.103 -10.099 -10.099 -10.068 -10.064
-10.062 -10.062 -10.060 -10.059 -10.058 -10.050 -10.040 -10.040
-10.038 -10.038 -10.022 -10.021 -10.020 -10.020  -1.019  -1.015
 -1.008  -1.006  -0.971  -0.971  -0.942  -0.938  -0.935  -0.935
 -0.766  -0.764  -0.728  -0.724  -0.711  -0.707  -0.696  -0.661
 -0.659  -0.614  -0.598  -0.581  -0.548  -0.545  -0.538  -0.538
 -0.515  -0.510  -0.484  -0.478  -0.466  -0.461  -0.454  -0.443
 -0.437  -0.432  -0.429  -0.416  -0.413  -0.410  -0.407  -0.399
 -0.391  -0.382  -0.371  -0.369  -0.361  -0.358  -0.356  -0.351
 -0.346  -0.337  -0.335  -0.333  -0.332  -0.329  -0.325  -0.311
 -0.310  -0.307  -0.305  -0.299  -0.294  -0.292  -0.283  -0.278
 -0.270  -0.260  -0.251  -0.248  -0.247  -0.235  -0.235  -0.186
 -0.177  -0.175  -0.173  -0.160  -0.158  -0.152  -0.150  -0.145
 -0.144

          Ground-State Mulliken Net Atomic Charges

     Atom                 Charge (a.u.)
  ----------------------------------------
      1 O                    -0.216895
      2 C                     0.211955
      3 C                    -0.078036
      4 C                    -0.079176
      5 C                     0.214469
      6 O                    -0.180916
      7 C                    -0.053119
      8 C                    -0.061920
      9 O                    -0.174336
     10 C                     0.222104
     11 C                    -0.077786
     12 C                    -0.078822
     13 C                     0.211545
     14 O                    -0.214358
     15 O                    -0.167897
     16 O                    -0.169730
     17 O                    -0.214068
     18 C                    -0.128852
     19 C                     0.024783
     20 C                    -0.143925
     21 C                    -0.143808
     22 C                     0.025968
     23 O                    -0.185962
     24 H                     0.086696
     25 H                     0.085851
     26 H                     0.090066
     27 H                     0.078450
     28 H                     0.073696
     29 H                     0.078135
     30 H                     0.074114
     31 H                     0.082731
     32 O                    -0.204602
     33 C                    -0.141989
     34 C                     0.025798
     35 C                    -0.143895
     36 C                    -0.143614
     37 C                     0.025131
     38 O                    -0.186235
     39 H                     0.087404
     40 H                     0.085360
     41 H                     0.110210
     42 H                     0.083189
     43 H                     0.078590
     44 H                     0.074026
     45 H                     0.078588
     46 H                     0.073425
     47 H                     0.089861
     48 H                     0.085617
     49 H                     0.087603
     50 H                     0.091610
     51 H                     0.088771
     52 H                     0.087007
     53 H                     0.082041
     54 H                     0.105572
     55 H                     0.087486
     56 H                     0.102091
  ----------------------------------------
  Sum of atomic charges =     0.000000

                    Cartesian Multipole Moments
 -----------------------------------------------------------------
    Charge (ESU x 10^10)
                 0.0000
    Dipole Moment (Debye)
         X       0.2476      Y       0.1973      Z      -1.6698
       Tot       1.6995
    Quadrupole Moments (Debye-Ang)
        XX    -141.7070     XY       2.8633     YY    -162.1119
        XZ      16.5851     YZ       5.2019     ZZ    -162.2386

 Total job time:  91.93s(wall), 4378.21s(cpu)
        *  Thank you very much for using Q-Chem.  Have a nice day.  *
