 Q-Chem 5.0, Q-Chem, Inc., Pleasanton, CA (2017)
 Q-Chem 5.0.1 for Intel X86 EM64T Linux

User input:
--------------------------------------------------------------
$molecule
0  1
O -3.94934 -3.66094 2.70899
C -3.26408 -4.56952 2.26188
C -3.36658 -6.02376 2.66595
C -4.29595 -6.3621 3.84309
C -5.15479 -5.23397 4.37015
O -4.58397 -4.70069 5.49051
C -5.28577 -3.55752 5.99042
C -4.44278 -2.30025 5.80393
O -4.82536 -1.30701 6.76829
C -4.40518 -0.04504 6.50367
C -4.79757 0.94283 7.57643
C -4.4951 0.49244 9.01308
C -3.54519 -0.68021 9.15179
O -3.18493 -1.17947 10.20796
O -2.3864 -4.294 1.26178
O -2.69683 -0.95107 8.1191
O -3.65306 0.23907 5.57843
C -1.66469 -1.86975 8.14556
C -4.05137 2.29096 7.53518
C -4.88387 3.36036 8.24162
C -4.74847 2.91922 9.68543
C -3.77113 1.74947 9.5265
O -2.97498 2.11807 8.42433
H -5.889 1.11595 7.44107
H -5.41556 0.23545 9.58196
H -3.79322 2.6265 6.50749
H -4.34698 4.32795 8.11535
H -5.92707 3.47085 7.875
H -4.2786 3.74664 10.26219
H -5.69342 2.60006 10.17627
H -3.22789 1.56471 10.47963
O -6.10624 -4.75611 3.75899
C -2.18065 -3.03671 0.73368
C -3.98799 -6.89032 1.55677
C -3.58242 -8.35177 1.74749
C -4.4246 -8.72467 2.95049
C -5.19276 -7.41781 3.17066
O -5.35999 -6.90817 1.8686
H -2.3253 -6.35178 2.88475
H -3.72876 -6.79608 4.69865
H -1.82069 -2.34393 1.52422
H -3.72199 -6.54754 0.53285
H -3.95293 -8.92332 0.86661
H -2.48943 -8.51702 1.8617
H -5.13167 -9.52916 2.64808
H -3.85537 -9.04098 3.85118
H -6.12541 -7.6089 3.74639
H -3.12364 -2.64736 0.29367
H -1.41289 -3.09855 -0.06456
H -1.15576 -1.87279 7.16001
H -2.0654 -2.88668 8.34493
H -0.92449 -1.5953 8.92697
H -3.37309 -2.54346 5.97841
H -4.56803 -1.95685 4.75249
H -5.39039 -3.73998 7.08148
H -6.32075 -3.38753 5.61677
$end

$opt
CONSTRAINT
tors           1           2           3           4      -7.213
tors           3           4           5           6     -99.436
tors           4           5           6           7    +175.441
tors           5           6           7           8    -111.549
tors           6           7           8           9    -155.000
tors           7           8           9          10    -163.944
tors           8           9          10          11    -178.016
tors           9          10          11          12     +48.017
tors          11          12          13          14    +179.965
ENDCONSTRAINT
$end

$rem
JOBTYPE                   OPT
METHOD                    B3LYP
DFT_D                     d3_op
BASIS                     STO-3G
GEOM_OPT_MAX_CYCLES       100
GEOM_OPT_TOL_GRADIENT     300
GEOM_OPT_TOL_DISPLACEMENT 1200
GEOM_OPT_TOL_ENERGY       100
SYMMETRY                  False
THRESH                    12
SCF_CONVERGENCE           8
MAX_SUB_FILE_NUM          128
MEM_STATIC                400
MEM_TOTAL                 4000
$end
--------------------------------------------------------------

   15   -1510.1451527222      6.28E-09 Convergence criterion met
 Total energy in the final basis set = -1510.14515272
   13   -1510.2161978081      7.06E-09 Convergence criterion met
 Total energy in the final basis set = -1510.21619781
   13   -1510.2546778081      7.49E-09 Convergence criterion met
 Total energy in the final basis set = -1510.25467781
   14   -1510.2717401433      6.47E-09 Convergence criterion met
 Total energy in the final basis set = -1510.27174014
    2   -1510.2717401433      1.96E-09 Convergence criterion met
 Total energy in the final basis set = -1510.27174014
   13   -1510.2777600712      7.97E-09 Convergence criterion met
 Total energy in the final basis set = -1510.27776007
   13   -1510.2798702460      3.41E-09 Convergence criterion met
 Total energy in the final basis set = -1510.27987025
   13   -1510.2803325021      5.00E-09 Convergence criterion met
   12   -1510.2809250991      2.93E-09 Convergence criterion met
 Total energy in the final basis set = -1510.28092510
   11   -1510.2810279088      6.80E-09 Convergence criterion met
 Total energy in the final basis set = -1510.28102791
   12   -1510.2810935754      2.48E-09 Convergence criterion met
 Total energy in the final basis set = -1510.28109358
   11   -1510.2811438639      8.13E-09 Convergence criterion met
 Total energy in the final basis set = -1510.28114386
   11   -1510.2811612765      4.58E-09 Convergence criterion met
 Total energy in the final basis set = -1510.28116128
    9   -1510.2811648507      9.15E-09 Convergence criterion met
 Total energy in the final basis set = -1510.28116485

             Standard Nuclear Orientation (Angstroms)
    I     Atom           X                Y                Z
 ----------------------------------------------------------------
    1      O      -2.4267544554     1.2636480246     0.3557881088
    2      C      -3.4455682232     1.3424998128    -0.3685396647
    3      C      -4.5068234146     0.2240144153    -0.6324772287
    4      C      -4.0989815033    -1.1768071254    -0.0164819055
    5      C      -2.8503382414    -1.0983473150     0.9394499625
    6      O      -1.7028632489    -1.5233683912     0.1817465058
    7      C      -0.4711733710    -1.3698308786     0.9901818292
    8      C       0.3877319927    -0.2226042768     0.3526961237
    9      O       1.8029186285    -0.4540660599     0.7248682830
   10      C       2.5734542665     0.7354802189     0.4979402633
   11      C       4.0674038091     0.4195287835     0.8587702308
   12      C       4.6663162941    -0.9117092566     0.2545843017
   13      C       3.9842322043    -1.4407533653    -1.0625843509
   14      O       4.3086442737    -2.4705227804    -1.6936408336
   15      O      -3.8206838962     2.5134855016    -1.0928849002
   16      O       3.0736956462    -0.4633049379    -1.5759925537
   17      O       2.1001560110     1.8341356971     0.1391944999
   18      C       2.5048604300    -0.9104688779    -2.8660354265
   19      C       5.1157100344     1.5026091186     0.3616655039
   20      C       6.3154587882     1.4827021074     1.3843101193
   21      C       6.9423577381     0.0745761092     1.0620873823
   22      C       6.0954882561    -0.3679555978    -0.1978174483
   23      O       5.7227654735     0.9087711484    -0.8539922099
   24      H       4.1070004093     0.3503742657     1.9625746840
   25      H       4.7265215176    -1.7309948718     0.9925903192
   26      H       4.6739972247     2.4931434223     0.1369759923
   27      H       7.0238068660     2.2969681759     1.1620692376
   28      H       5.9829314567     1.5763944066     2.4303328934
   29      H       8.0090149098     0.1543513668     0.7995116778
   30      H       6.8375444908    -0.6374618066     1.8963928838
   31      H       6.6230287086    -1.0341653288    -0.9082240276
   32      O      -2.8449441390    -0.8792587751     2.1696957431
   33      C      -2.8366904005     3.5958971846    -0.8501177900
   34      C      -5.9069276193     0.4846512216     0.0818055813
   35      C      -6.9869053845    -0.3955097159    -0.6602023611
   36      C      -6.5870319895    -1.8351075950    -0.1656733490
   37      C      -5.4016519977    -1.5057518572     0.8265585539
   38      O      -5.7658730090    -0.1846209352     1.3930779979
   39      H      -4.6496163400     0.1507188623    -1.7259827558
   40      H      -3.8945614355    -1.9214956819    -0.8052250547
   41      H      -1.8189023498     3.3017850027    -1.1785820707
   42      H      -6.1669041203     1.5534895931     0.2087155197
   43      H      -7.9995335312    -0.1205257428    -0.3239495118
   44      H      -6.9357527597    -0.2876023137    -1.7555026572
   45      H      -7.4159890978    -2.3244424632     0.3696533475
   46      H      -6.2619271486    -2.4906904576    -0.9892663662
   47      H      -5.2440294203    -2.2405719384     1.6391886770
   48      H      -2.7945970425     3.8733697985     0.2228203257
   49      H      -3.1837786195     4.4609299102    -1.4443240867
   50      H       1.8640806016    -0.0812111865    -3.2181055676
   51      H       1.8926026929    -1.8277044903    -2.7445248654
   52      H       3.3000898703    -1.1122738934    -3.6122345685
   53      H       0.2804360215    -0.2642937088    -0.7543744934
   54      H       0.0318229069     0.7743676627     0.6898471635
   55      H       0.0920543077    -2.3259042450     0.9440705518
   56      H      -0.7485709615    -1.1434699833     2.0416529775
 ----------------------------------------------------------------

    9   -1510.2811650430      7.42E-09 Convergence criterion met
 Total energy in the final basis set = -1510.28116504
 Final energy is   -1510.28116504295
 **  OPTIMIZATION CONVERGED  **

                    Orbital Energies (a.u.)
 --------------------------------------------------------------

 Alpha MOs
 -- Occupied --
-18.945 -18.938 -18.920 -18.919 -18.889 -18.888 -18.884 -18.871
-18.864 -18.863 -10.109 -10.098 -10.095 -10.092 -10.069 -10.065
-10.063 -10.059 -10.059 -10.058 -10.058 -10.055 -10.042 -10.037
-10.035 -10.032 -10.022 -10.021 -10.019 -10.017  -1.021  -1.013
 -1.001  -0.998  -0.971  -0.968  -0.945  -0.934  -0.930  -0.924
 -0.765  -0.761  -0.726  -0.722  -0.711  -0.703  -0.690  -0.667
 -0.661  -0.612  -0.596  -0.576  -0.547  -0.541  -0.537  -0.535
 -0.514  -0.508  -0.483  -0.477  -0.464  -0.459  -0.454  -0.442
 -0.435  -0.432  -0.421  -0.416  -0.414  -0.411  -0.407  -0.392
 -0.387  -0.380  -0.378  -0.370  -0.359  -0.357  -0.355  -0.345
 -0.339  -0.336  -0.335  -0.330  -0.329  -0.327  -0.318  -0.315
 -0.308  -0.306  -0.304  -0.301  -0.296  -0.291  -0.278  -0.276
 -0.267  -0.260  -0.245  -0.243  -0.240  -0.235  -0.232  -0.187
 -0.179  -0.165  -0.163  -0.160  -0.153  -0.147  -0.144  -0.143
 -0.142

          Ground-State Mulliken Net Atomic Charges

     Atom                 Charge (a.u.)
  ----------------------------------------
      1 O                    -0.207892
      2 C                     0.213814
      3 C                    -0.079320
      4 C                    -0.080718
      5 C                     0.216439
      6 O                    -0.179854
      7 C                    -0.053545
      8 C                    -0.049840
      9 O                    -0.179881
     10 C                     0.220896
     11 C                    -0.080198
     12 C                    -0.075382
     13 C                     0.214292
     14 O                    -0.216642
     15 O                    -0.168133
     16 O                    -0.165442
     17 O                    -0.219672
     18 C                    -0.126068
     19 C                     0.023722
     20 C                    -0.142009
     21 C                    -0.145335
     22 C                     0.023800
     23 O                    -0.192009
     24 H                     0.082192
     25 H                     0.086952
     26 H                     0.090706
     27 H                     0.077592
     28 H                     0.073297
     29 H                     0.078212
     30 H                     0.073817
     31 H                     0.084696
     32 O                    -0.215587
     33 C                    -0.128638
     34 C                     0.025699
     35 C                    -0.142602
     36 C                    -0.144932
     37 C                     0.026138
     38 O                    -0.185650
     39 H                     0.086240
     40 H                     0.085312
     41 H                     0.093180
     42 H                     0.085880
     43 H                     0.078676
     44 H                     0.073857
     45 H                     0.078504
     46 H                     0.073581
     47 H                     0.086821
     48 H                     0.092571
     49 H                     0.092684
     50 H                     0.092073
     51 H                     0.088436
     52 H                     0.092752
     53 H                     0.081400
     54 H                     0.099046
     55 H                     0.084571
     56 H                     0.101499
  ----------------------------------------
  Sum of atomic charges =    -0.000000

                    Cartesian Multipole Moments
 -----------------------------------------------------------------
    Charge (ESU x 10^10)
                 0.0000
    Dipole Moment (Debye)
         X      -1.0179      Y       0.0166      Z      -1.3316
       Tot       1.6761
    Quadrupole Moments (Debye-Ang)
        XX    -148.4040     XY       2.0149     YY    -157.8647
        XZ      20.5660     YZ      -0.9352     ZZ    -161.2014

 Total job time:  42.93s(wall), 2024.21s(cpu)
        *  Thank you very much for using Q-Chem.  Have a nice day.  *
