 Q-Chem 5.0, Q-Chem, Inc., Pleasanton, CA (2017)
 Q-Chem 5.0.1 for Intel X86 EM64T Linux

User input:
--------------------------------------------------------------
$molecule
0  1
O -3.94934 -3.66094 2.70899
C -3.26408 -4.56952 2.26188
C -3.36658 -6.02376 2.66595
C -3.56126 -6.32558 4.16089
C -3.8097 -5.13648 5.06222
O -2.62816 -4.5106 5.3409
C -2.78211 -3.37036 6.19261
C -3.71955 -2.35501 5.54732
O -3.17224 -1.03328 5.67521
C -3.98653 -0.02405 5.27829
C -3.28823 1.3144 5.23865
C -1.81289 1.28765 5.66402
C -1.16527 -0.08146 5.71727
O -0.00509 -0.30504 6.03122
O -2.29275 -4.26987 1.35962
O -1.32578 -0.6995 4.48179
O -5.15068 -0.17448 4.92933
C -0.63927 -1.79404 3.96855
C -3.17322 1.96236 3.84401
C -3.03667 3.47674 4.00166
C -1.63682 3.5776 4.58119
C -1.20202 2.10851 4.50808
O -1.89129 1.61089 3.38427
H -3.88725 1.98358 5.89705
H -1.6576 1.74976 6.66354
H -4.02256 1.71388 3.17128
H -3.0274 3.90707 2.97438
H -3.83237 3.9747 4.59641
H -1.02168 4.20938 3.90277
H -1.57943 3.96427 5.62175
H -0.09347 2.02469 4.47712
O -4.8734 -4.91231 5.6318
C -2.15008 -3.04115 0.7477
C -4.66041 -6.64047 2.09295
C -4.51227 -8.15735 1.98609
C -4.5675 -8.54535 3.44661
C -4.84649 -7.17891 4.08295
O -5.60901 -6.49975 3.11888
H -2.50371 -6.56571 2.21608
H -2.72956 -6.91798 4.60388
H -1.99766 -2.24054 1.49803
H -4.94585 -6.21773 1.10404
H -5.42822 -8.54166 1.48236
H -3.61532 -8.5112 1.43359
H -5.43245 -9.22956 3.59524
H -3.64196 -9.0085 3.85205
H -5.32733 -7.32063 5.07603
H -3.0556 -2.81022 0.14722
H -1.27143 -3.0711 0.07143
H -1.36187 -2.59401 3.71847
H 0.0959 -2.22176 4.68219
H -0.10656 -1.48969 3.04465
H -3.77073 -2.48351 4.48316
H -4.73961 -2.44586 5.98312
H -1.7667 -2.93277 6.27714
H -3.10449 -3.63027 7.22503
$end

$opt
CONSTRAINT
tors           1           2           3           4     -41.285
tors           3           4           5           6     -79.558
tors           4           5           6           7    -180.000
tors           5           6           7           8     -58.686
tors           6           7           8           9    -135.322
tors           7           8           9          10    -172.633
tors           8           9          10          11    -171.307
tors           9          10          11          12      -0.662
tors          11          12          13          14    +179.965
ENDCONSTRAINT
$end

$rem
JOBTYPE                   OPT
METHOD                    B3LYP
DFT_D                     d3_op
BASIS                     STO-3G
GEOM_OPT_MAX_CYCLES       100
GEOM_OPT_TOL_GRADIENT     300
GEOM_OPT_TOL_DISPLACEMENT 1200
GEOM_OPT_TOL_ENERGY       100
SYMMETRY                  False
THRESH                    12
SCF_CONVERGENCE           8
MAX_SUB_FILE_NUM          128
MEM_STATIC                400
MEM_TOTAL                 4000
$end
--------------------------------------------------------------

   16   -1510.1002041320      3.93E-09 Convergence criterion met
 Total energy in the final basis set = -1510.10020413
   14   -1510.1750869333      6.99E-09 Convergence criterion met
 Total energy in the final basis set = -1510.17508693
   15   -1510.2166358649      2.84E-09 Convergence criterion met
 Total energy in the final basis set = -1510.21663586
   14   -1510.2426399196      6.26E-09 Convergence criterion met
 Total energy in the final basis set = -1510.24263992
   13   -1510.2552562697      9.40E-09 Convergence criterion met
 Total energy in the final basis set = -1510.25525627
   14   -1510.2619400691      4.63E-09 Convergence criterion met
 Total energy in the final basis set = -1510.26194007
   13   -1510.2657105449      5.58E-09 Convergence criterion met
 Total energy in the final basis set = -1510.26571054
   14   -1510.2679327384      2.29E-09 Convergence criterion met
   12   -1510.2704752817      3.26E-09 Convergence criterion met
 Total energy in the final basis set = -1510.27047528
   11   -1510.2705249727      8.06E-09 Convergence criterion met
 Total energy in the final basis set = -1510.27052497
   11   -1510.2705520584      5.37E-09 Convergence criterion met
 Total energy in the final basis set = -1510.27055206
   11   -1510.2705703262      3.66E-09 Convergence criterion met
 Total energy in the final basis set = -1510.27057033
   11   -1510.2705835718      3.34E-09 Convergence criterion met
 Total energy in the final basis set = -1510.27058357
    9   -1510.2705873175      6.70E-09 Convergence criterion met
 Total energy in the final basis set = -1510.27058732

             Standard Nuclear Orientation (Angstroms)
    I     Atom           X                Y                Z
 ----------------------------------------------------------------
    1      O      -1.8053040927     0.7477470231     1.0239857256
    2      C      -2.5313401865     1.2995815623     0.1639599014
    3      C      -3.9498330777     0.8393108631    -0.3101190062
    4      C      -4.0631750661    -0.7350370759    -0.4938470408
    5      C      -2.7498420161    -1.4881288489    -0.0737242286
    6      O      -1.8269866934    -1.3579476271    -1.1628997763
    7      C      -0.5449804600    -2.0406355853    -0.8628982048
    8      C       0.1458136424    -1.4743459337     0.4351749385
    9      O       1.5787586566    -1.3090998218     0.0862492287
   10      C       2.3457286571    -0.9606268849     1.2331339250
   11      C       3.8155651867    -0.5700479922     0.8375737210
   12      C       4.2970121080    -0.6052118159    -0.6649609625
   13      C       3.3273363765    -0.1040644719    -1.8034341911
   14      O       3.6256891790    -0.0955735520    -3.0209735292
   15      O      -2.1772505807     2.5051877943    -0.5142813845
   16      O       2.2148673689     0.6211637466    -1.2678213429
   17      O       1.8981318843    -0.9459613566     2.4021002836
   18      C       1.4031288629     1.1950640004    -2.3662109591
   19      C       4.3346360401     0.8634368583     1.3179054793
   20      C       5.8104048166     0.6403918518     1.8253288385
   21      C       6.5116041419     0.2573618422     0.4674231113
   22      C       5.3710643460     0.5778182235    -0.5817848826
   23      O       4.5541391600     1.6327056310     0.0714323643
   24      H       4.4316148960    -1.3205839068     1.3691335020
   25      H       4.7311643147    -1.5788415445    -0.9521219998
   26      H       3.6566711893     1.4042455684     2.0062283341
   27      H       6.2197483669     1.5771500187     2.2372655860
   28      H       5.8854346886    -0.1497745019     2.5893514479
   29      H       7.4004400470     0.8784132697     0.2741974428
   30      H       6.8105236783    -0.8028541320     0.4321475898
   31      H       5.7300693705     0.9209889492    -1.5717778312
   32      O      -2.5510851942    -2.1735558503     0.9505977697
   33      C      -0.8629453699     2.9899892401    -0.0258957591
   34      C      -5.0640227352     1.0877014475     0.8015785466
   35      C      -6.4769169724     0.9910117124     0.1002238332
   36      C      -6.6003022461    -0.5629832749    -0.1189766499
   37      C      -5.2427760938    -1.0691745513     0.5094381030
   38      O      -5.0043710667    -0.1325877016     1.6329728127
   39      H      -4.1919425845     1.3771935212    -1.2433371614
   40      H      -4.3036983470    -0.9956810481    -1.5396962663
   41      H      -0.0853332266     2.2029610380    -0.0932239610
   42      H      -4.9050379698     1.9908724410     1.4224502816
   43      H      -7.2640400721     1.3682999661     0.7724692566
   44      H      -6.5127519665     1.5606550167    -0.8421269728
   45      H      -7.4594752021    -0.9817838001     0.4285256988
   46      H      -6.6914090187    -0.8364912186    -1.1824082362
   47      H      -5.2419411967    -2.1138760912     0.8761092978
   48      H      -0.9269114527     3.3317072124     1.0274086845
   49      H      -0.5915694105     3.8424044442    -0.6750638909
   50      H       0.3878145855     0.7516199061    -2.3363308756
   51      H       1.8928987567     0.9719910878    -3.3358822022
   52      H       1.3303964771     2.2898818399    -2.2199383409
   53      H      -0.3150721082    -0.4933926734     0.7064070255
   54      H       0.0170508178    -2.1637157782     1.2951179541
   55      H       0.1044565874    -1.8375020620    -1.7386441069
   56      H      -0.6995410222    -3.1376814117    -0.7755069586
 ----------------------------------------------------------------

    9   -1510.2705889342      9.14E-09 Convergence criterion met
 Total energy in the final basis set = -1510.27058893
 Final energy is   -1510.27058893424
 **  OPTIMIZATION CONVERGED  **

                    Orbital Energies (a.u.)
 --------------------------------------------------------------

 Alpha MOs
 -- Occupied --
-18.946 -18.931 -18.928 -18.926 -18.891 -18.886 -18.884 -18.874
-18.867 -18.863 -10.108 -10.098 -10.096 -10.093 -10.070 -10.069
-10.064 -10.060 -10.059 -10.059 -10.055 -10.054 -10.042 -10.039
-10.039 -10.033 -10.023 -10.022 -10.021 -10.019  -1.021  -1.010
 -1.008  -1.000  -0.973  -0.970  -0.943  -0.936  -0.931  -0.926
 -0.766  -0.761  -0.727  -0.722  -0.712  -0.703  -0.692  -0.669
 -0.656  -0.614  -0.598  -0.583  -0.548  -0.542  -0.538  -0.536
 -0.515  -0.509  -0.481  -0.475  -0.465  -0.461  -0.454  -0.439
 -0.436  -0.433  -0.423  -0.418  -0.412  -0.411  -0.405  -0.398
 -0.390  -0.376  -0.372  -0.369  -0.361  -0.359  -0.356  -0.348
 -0.348  -0.340  -0.336  -0.333  -0.329  -0.327  -0.314  -0.312
 -0.312  -0.306  -0.305  -0.300  -0.295  -0.289  -0.282  -0.275
 -0.268  -0.261  -0.249  -0.244  -0.240  -0.236  -0.232  -0.187
 -0.176  -0.175  -0.162  -0.157  -0.152  -0.149  -0.147  -0.143
 -0.142

          Ground-State Mulliken Net Atomic Charges

     Atom                 Charge (a.u.)
  ----------------------------------------
      1 O                    -0.212220
      2 C                     0.212921
      3 C                    -0.079119
      4 C                    -0.079313
      5 C                     0.212355
      6 O                    -0.180006
      7 C                    -0.049528
      8 C                    -0.058588
      9 O                    -0.172095
     10 C                     0.208818
     11 C                    -0.080926
     12 C                    -0.074651
     13 C                     0.215105
     14 O                    -0.222933
     15 O                    -0.166154
     16 O                    -0.161754
     17 O                    -0.216639
     18 C                    -0.138321
     19 C                     0.026174
     20 C                    -0.140497
     21 C                    -0.146094
     22 C                     0.023165
     23 O                    -0.191417
     24 H                     0.082083
     25 H                     0.085903
     26 H                     0.087657
     27 H                     0.077630
     28 H                     0.075344
     29 H                     0.078584
     30 H                     0.073928
     31 H                     0.084867
     32 O                    -0.206763
     33 C                    -0.130372
     34 C                     0.026271
     35 C                    -0.143143
     36 C                    -0.144411
     37 C                     0.025844
     38 O                    -0.184631
     39 H                     0.087041
     40 H                     0.085903
     41 H                     0.097102
     42 H                     0.083657
     43 H                     0.078949
     44 H                     0.074098
     45 H                     0.078940
     46 H                     0.073575
     47 H                     0.089449
     48 H                     0.090583
     49 H                     0.091506
     50 H                     0.083637
     51 H                     0.102770
     52 H                     0.084123
     53 H                     0.105027
     54 H                     0.097436
     55 H                     0.093343
     56 H                     0.085790
  ----------------------------------------
  Sum of atomic charges =    -0.000000

                    Cartesian Multipole Moments
 -----------------------------------------------------------------
    Charge (ESU x 10^10)
                 0.0000
    Dipole Moment (Debye)
         X      -0.6490      Y       0.8756      Z      -2.0218
       Tot       2.2969
    Quadrupole Moments (Debye-Ang)
        XX    -138.7558     XY      -6.0780     YY    -154.4755
        XZ      13.1712     YZ       3.8095     ZZ    -172.1239

 Total job time:  56.38s(wall), 2681.14s(cpu)
        *  Thank you very much for using Q-Chem.  Have a nice day.  *
