 Q-Chem 5.0, Q-Chem, Inc., Pleasanton, CA (2017)
 Q-Chem 5.0.1 for Intel X86 EM64T Linux

User input:
--------------------------------------------------------------
$molecule
0  1
O -1.8053040927 0.7477470231 1.0239857256
C -2.5313401865 1.2995815623 0.1639599014
C -3.9498330777 0.8393108631 -0.3101190062
C -4.0631750661 -0.7350370759 -0.4938470408
C -2.7498420161 -1.4881288489 -0.0737242286
O -1.8269866934 -1.3579476271 -1.1628997763
C -0.54498046 -2.0406355853 -0.8628982048
C 0.1458136424 -1.4743459337 0.4351749385
O 1.5787586566 -1.3090998218 0.0862492287
C 2.3457286571 -0.9606268849 1.233133925
C 3.8155651867 -0.5700479922 0.837573721
C 4.297012108 -0.6052118159 -0.6649609625
C 3.3273363765 -0.1040644719 -1.8034341911
O 3.625689179 -0.095573552 -3.0209735292
O -2.1772505807 2.5051877943 -0.5142813845
O 2.2148673689 0.6211637466 -1.2678213429
O 1.8981318843 -0.9459613566 2.4021002836
C 1.4031288629 1.1950640004 -2.3662109591
C 4.3346360401 0.8634368583 1.3179054793
C 5.8104048166 0.6403918518 1.8253288385
C 6.5116041419 0.2573618422 0.4674231113
C 5.371064346 0.5778182235 -0.5817848826
O 4.55413916 1.632705631 0.0714323643
H 4.431614896 -1.3205839068 1.369133502
H 4.7311643147 -1.5788415445 -0.9521219998
H 3.6566711893 1.4042455684 2.0062283341
H 6.2197483669 1.5771500187 2.237265586
H 5.8854346886 -0.1497745019 2.5893514479
H 7.400440047 0.8784132697 0.2741974428
H 6.8105236783 -0.802854132 0.4321475898
H 5.7300693705 0.9209889492 -1.5717778312
O -2.5510851942 -2.1735558503 0.9505977697
C -0.8629453699 2.9899892401 -0.0258957591
C -5.0640227352 1.0877014475 0.8015785466
C -6.4769169724 0.9910117124 0.1002238332
C -6.6003022461 -0.5629832749 -0.1189766499
C -5.2427760938 -1.0691745513 0.509438103
O -5.0043710667 -0.1325877016 1.6329728127
H -4.1919425845 1.3771935212 -1.2433371614
H -4.303698347 -0.9956810481 -1.5396962663
H -0.0853332266 2.202961038 -0.093223961
H -4.9050379698 1.990872441 1.4224502816
H -7.2640400721 1.3682999661 0.7724692566
H -6.5127519665 1.5606550167 -0.8421269728
H -7.4594752021 -0.9817838001 0.4285256988
H -6.6914090187 -0.8364912186 -1.1824082362
H -5.2419411967 -2.1138760912 0.8761092978
H -0.9269114527 3.3317072124 1.0274086845
H -0.5915694105 3.8424044442 -0.6750638909
H 0.3878145855 0.7516199061 -2.3363308756
H 1.8928987567 0.9719910878 -3.3358822022
H 1.3303964771 2.2898818399 -2.2199383409
H -0.3150721082 -0.4933926734 0.7064070255
H 0.0170508178 -2.1637157782 1.2951179541
H 0.1044565874 -1.837502062 -1.7386441069
H -0.6995410222 -3.1376814117 -0.7755069586
$end

$rem
JOBTYPE                   OPT
METHOD                    B3LYP
DFT_D                     d3_op
BASIS                     STO-3G
GEOM_OPT_MAX_CYCLES       100
GEOM_OPT_TOL_GRADIENT     300
GEOM_OPT_TOL_DISPLACEMENT 1200
GEOM_OPT_TOL_ENERGY       100
SYMMETRY                  False
THRESH                    12
SCF_CONVERGENCE           8
MAX_SUB_FILE_NUM          128
MEM_STATIC                400
MEM_TOTAL                 4000
$end
--------------------------------------------------------------

   16   -1510.2705094257      4.43E-09 Convergence criterion met
 Total energy in the final basis set = -1510.27050943
   13   -1510.2722782764      8.30E-09 Convergence criterion met
 Total energy in the final basis set = -1510.27227828
   14   -1510.2752319333      6.86E-09 Convergence criterion met
 Total energy in the final basis set = -1510.27523193
   14   -1510.2741686879      8.06E-09 Convergence criterion met
 Total energy in the final basis set = -1510.27416869
   14   -1510.2764216933      5.94E-09 Convergence criterion met
 Total energy in the final basis set = -1510.27642169
   14   -1510.2789183563      7.77E-09 Convergence criterion met
 Total energy in the final basis set = -1510.27891836
   13   -1510.2819483033      5.43E-09 Convergence criterion met
 Total energy in the final basis set = -1510.28194830
   13   -1510.2853273331      9.73E-09 Convergence criterion met
   13   -1510.3066497456      2.48E-09 Convergence criterion met
 Total energy in the final basis set = -1510.30664975
   12   -1510.3066838285      7.37E-09 Convergence criterion met
 Total energy in the final basis set = -1510.30668383
   11   -1510.3066910843      7.63E-09 Convergence criterion met
 Total energy in the final basis set = -1510.30669108
   11   -1510.3067009189      9.21E-09 Convergence criterion met
 Total energy in the final basis set = -1510.30670092
   11   -1510.3067073686      7.03E-09 Convergence criterion met
 Total energy in the final basis set = -1510.30670737
   10   -1510.3067091272      5.83E-09 Convergence criterion met
 Total energy in the final basis set = -1510.30670913

             Standard Nuclear Orientation (Angstroms)
    I     Atom           X                Y                Z
 ----------------------------------------------------------------
    1      O       1.7253841139    -0.6693757328    -1.3347645728
    2      C       2.0043877567     0.5114896233    -1.0174736444
    3      C       3.1009785438     0.9646565892     0.0014912452
    4      C       3.4763601853    -0.1619351869     1.0483598203
    5      C       2.6607719720    -1.4951839193     0.8912872459
    6      O       1.3384211571    -1.2913488983     1.4365843987
    7      C       0.5185717997    -2.5127790952     1.2559061162
    8      C      -0.2919055790    -2.4622124189    -0.0886399816
    9      O      -1.6536713853    -1.9491295552     0.2023030478
   10      C      -2.1506609572    -1.1360484801    -0.8604554924
   11      C      -3.6347666031    -0.7561784786    -0.5160686273
   12      C      -3.8030589865    -0.0338757686     0.8849165476
   13      C      -2.4334663624     0.2680330092     1.5846119913
   14      O      -2.1151711810     0.0412198680     2.7717741900
   15      O       1.3664882411     1.6693605326    -1.5387412460
   16      O      -1.5895025184     0.8983595124     0.6195094490
   17      O      -1.5197176109    -0.8601160147    -1.9057045066
   18      C      -0.2636627585     1.2109321916     1.2038878471
   19      C      -4.2144736312     0.3368355182    -1.5058397258
   20      C      -5.7886929635     0.2997405776    -1.4037309683
   21      C      -6.0117260144     0.9623612852     0.0069204320
   22      C      -4.5260545922     1.3068469059     0.4255350359
   23      O      -3.8626530165     1.6226523931    -0.8594659183
   24      H      -4.2352524749    -1.6841239953    -0.5474303626
   25      H      -4.4258872999    -0.6232830983     1.5799814537
   26      H      -3.7910604693     0.2870691387    -2.5279411436
   27      H      -6.2411464991     0.9015894656    -2.2079114489
   28      H      -6.1864035058    -0.7259933419    -1.4624515540
   29      H      -6.6136992112     1.8819127014    -0.0674194066
   30      H      -6.4952869650     0.2812158433     0.7253296582
   31      H      -4.4210438930     2.1514399831     1.1339675168
   32      O       3.0848124237    -2.6018070747     0.4992236689
   33      C       0.3647752515     1.3052175104    -2.5746635808
   34      C       4.5016591367     1.1659115475    -0.7304383246
   35      C       5.4701504406     1.9424625406     0.2466913928
   36      C       5.8425875707     0.8072494837     1.2710765194
   37      C       5.0045417631    -0.4024274970     0.7025107728
   38      O       5.0591673839    -0.2031000344    -0.7653982990
   39      H       2.7669866634     1.8948058354     0.4928334763
   40      H       3.3352282003     0.2052884440     2.0809887084
   41      H      -0.3241640324     0.4944331671    -2.2363722622
   42      H       4.4258140608     1.5857539574    -1.7524345148
   43      H       6.3566727623     2.3015299850    -0.2996392509
   44      H       4.9758297008     2.8036482200     0.7243061947
   45      H       6.9192223884     0.5759364068     1.2419366320
   46      H       5.5635210545     1.0583258897     2.3068777352
   47      H       5.3714563264    -1.4134381837     0.9655636266
   48      H       0.8731354895     0.9800536648    -3.5049046526
   49      H      -0.2064693365     2.2300679369    -2.7733421774
   50      H       0.3419231395     0.2819450219     1.3482976254
   51      H      -0.3675097376     1.7380983892     2.1726759065
   52      H       0.2319797641     1.8676013153     0.4649645995
   53      H       0.2403411903    -1.8094679368    -0.8221576110
   54      H      -0.3819433421    -3.4859073959    -0.5121501000
   55      H      -0.1777865553    -2.5602310357     2.1182287269
   56      H       1.1900944473    -3.3972813889     1.2512982093
 ----------------------------------------------------------------

   10   -1510.3067092699      4.41E-09 Convergence criterion met
 Total energy in the final basis set = -1510.30670927
 Final energy is   -1510.30670926990
 **  OPTIMIZATION CONVERGED  **

                    Orbital Energies (a.u.)
 --------------------------------------------------------------

 Alpha MOs
 -- Occupied --
-18.941 -18.935 -18.933 -18.924 -18.890 -18.886 -18.884 -18.879
-18.879 -18.865 -10.108 -10.106 -10.103 -10.091 -10.069 -10.064
-10.060 -10.060 -10.059 -10.057 -10.045 -10.042 -10.040 -10.037
-10.036 -10.034 -10.023 -10.022 -10.020 -10.019  -1.019  -1.014
 -1.009  -1.000  -0.973  -0.968  -0.942  -0.941  -0.936  -0.927
 -0.767  -0.762  -0.728  -0.724  -0.712  -0.706  -0.696  -0.658
 -0.647  -0.615  -0.598  -0.580  -0.549  -0.544  -0.539  -0.536
 -0.515  -0.509  -0.485  -0.472  -0.465  -0.463  -0.457  -0.439
 -0.435  -0.431  -0.428  -0.418  -0.409  -0.407  -0.404  -0.398
 -0.393  -0.374  -0.369  -0.366  -0.362  -0.358  -0.358  -0.350
 -0.344  -0.338  -0.337  -0.331  -0.329  -0.329  -0.320  -0.312
 -0.309  -0.306  -0.305  -0.300  -0.294  -0.287  -0.286  -0.276
 -0.273  -0.260  -0.251  -0.241  -0.237  -0.236  -0.233  -0.191
 -0.178  -0.170  -0.164  -0.162  -0.158  -0.154  -0.147  -0.144
 -0.142

          Ground-State Mulliken Net Atomic Charges

     Atom                 Charge (a.u.)
  ----------------------------------------
      1 O                    -0.212733
      2 C                     0.218401
      3 C                    -0.079130
      4 C                    -0.080720
      5 C                     0.218748
      6 O                    -0.177900
      7 C                    -0.052728
      8 C                    -0.063141
      9 O                    -0.176945
     10 C                     0.225018
     11 C                    -0.077925
     12 C                    -0.078843
     13 C                     0.210361
     14 O                    -0.216778
     15 O                    -0.168780
     16 O                    -0.172890
     17 O                    -0.219259
     18 C                    -0.152360
     19 C                     0.024319
     20 C                    -0.143603
     21 C                    -0.144203
     22 C                     0.025764
     23 O                    -0.186558
     24 H                     0.084143
     25 H                     0.084221
     26 H                     0.088690
     27 H                     0.077753
     28 H                     0.072879
     29 H                     0.077679
     30 H                     0.073698
     31 H                     0.082440
     32 O                    -0.207530
     33 C                    -0.143469
     34 C                     0.025899
     35 C                    -0.143561
     36 C                    -0.144108
     37 C                     0.025554
     38 O                    -0.186939
     39 H                     0.087519
     40 H                     0.086240
     41 H                     0.118660
     42 H                     0.084607
     43 H                     0.079153
     44 H                     0.074487
     45 H                     0.079035
     46 H                     0.073889
     47 H                     0.090369
     48 H                     0.081935
     49 H                     0.088678
     50 H                     0.103471
     51 H                     0.080766
     52 H                     0.086837
     53 H                     0.119196
     54 H                     0.083153
     55 H                     0.096848
     56 H                     0.099691
  ----------------------------------------
  Sum of atomic charges =    -0.000000

                    Cartesian Multipole Moments
 -----------------------------------------------------------------
    Charge (ESU x 10^10)
                -0.0000
    Dipole Moment (Debye)
         X      -0.9658      Y       1.0753      Z       0.8143
       Tot       1.6590
    Quadrupole Moments (Debye-Ang)
        XX    -145.0016     XY      12.2584     YY    -159.3232
        XZ       8.7661     YZ      -0.7468     ZZ    -163.3155

 Total job time:  124.80s(wall), 5955.70s(cpu)
        *  Thank you very much for using Q-Chem.  Have a nice day.  *
