 Q-Chem 5.0, Q-Chem, Inc., Pleasanton, CA (2017)
 Q-Chem 5.0.1 for Intel X86 EM64T Linux

User input:
--------------------------------------------------------------
$molecule
0  1
O -3.94934 -3.66094 2.70899
C -3.26408 -4.56952 2.26188
C -3.36658 -6.02376 2.66595
C -4.77857 -6.61167 2.82249
C -5.92809 -5.73091 2.3855
O -6.02409 -4.64868 3.21314
C -7.09367 -3.76438 2.86204
C -6.54318 -2.52404 2.16588
O -7.38641 -1.39414 2.44001
C -7.11464 -0.27599 1.72235
C -7.88843 0.93069 2.19756
C -7.73074 1.254 3.69051
C -6.57721 0.5701 4.39646
O -6.17678 0.83531 5.52068
O -2.44243 -4.27941 1.21741
O -5.61484 -0.06964 3.67696
O -6.25665 -0.21976 0.84846
C -4.38553 -0.48967 4.16122
C -7.45648 2.27081 1.56839
C -8.60701 3.27282 1.65432
C -8.62295 3.56012 3.14204
C -7.39914 2.75422 3.59155
O -6.53111 2.80337 2.48384
H -8.95308 0.73118 1.9399
H -8.649 1.03418 4.27774
H -7.11108 2.17853 0.51589
H -8.27763 4.19256 1.11946
H -9.57339 2.92856 1.22716
H -8.45292 4.6497 3.29035
H -9.54227 3.24014 3.67885
H -6.99591 3.16411 4.54381
O -6.65889 -5.96017 1.42752
C -2.28116 -3.01925 0.67931
C -2.75466 -7.01529 1.65398
C -2.40513 -8.33102 2.35098
C -3.78365 -8.92047 2.55008
C -4.64722 -7.83981 1.89565
O -3.84438 -7.36943 0.83932
H -2.82578 -6.08217 3.63668
H -5.00145 -6.93055 3.8656
H -1.89122 -2.32114 1.45076
H -1.85302 -6.6302 1.13165
H -1.85054 -8.97001 1.62703
H -1.8007 -8.20936 3.27561
H -3.85401 -9.8577 1.95361
H -4.06809 -9.12417 3.60499
H -5.63116 -8.2719 1.60914
H -3.251 -2.64265 0.28884
H -1.55438 -3.07092 -0.15703
H -3.79926 -0.94546 3.33776
H -4.52846 -1.24271 4.96544
H -3.80989 0.37659 4.55154
H -5.58699 -2.23598 2.58816
H -6.42259 -2.74028 1.08067
H -7.51432 -3.44034 3.83817
H -7.95452 -4.20447 2.30967
$end

$opt
CONSTRAINT
tors           1           2           3           4     +42.802
tors           3           4           5           6     -67.054
tors           4           5           6           7    -180.000
tors           5           6           7           8    -103.868
tors           6           7           8           9    -149.492
tors           7           8           9          10    -170.800
tors           8           9          10          11    -171.307
tors           9          10          11          12     +54.539
tors          11          12          13          14    +169.312
ENDCONSTRAINT
$end

$rem
JOBTYPE                   OPT
METHOD                    B3LYP
DFT_D                     d3_op
BASIS                     STO-3G
GEOM_OPT_MAX_CYCLES       100
GEOM_OPT_TOL_GRADIENT     300
GEOM_OPT_TOL_DISPLACEMENT 1200
GEOM_OPT_TOL_ENERGY       100
SYMMETRY                  False
THRESH                    12
SCF_CONVERGENCE           8
MAX_SUB_FILE_NUM          128
MEM_STATIC                400
MEM_TOTAL                 4000
$end
--------------------------------------------------------------

   15   -1510.1353113946      6.47E-09 Convergence criterion met
 Total energy in the final basis set = -1510.13531139
   14   -1510.2082562016      5.85E-09 Convergence criterion met
 Total energy in the final basis set = -1510.20825620
   14   -1510.2459057908      8.33E-09 Convergence criterion met
 Total energy in the final basis set = -1510.24590579
   15   -1510.2633727485      1.63E-09 Convergence criterion met
 Total energy in the final basis set = -1510.26337275
   14   -1510.2709384288      3.54E-09 Convergence criterion met
 Total energy in the final basis set = -1510.27093843
   14   -1510.2732823558      3.08E-09 Convergence criterion met
 Total energy in the final basis set = -1510.27328236
   13   -1510.2736291659      7.20E-09 Convergence criterion met
 Total energy in the final basis set = -1510.27362917
   12   -1510.2747720618      9.28E-09 Convergence criterion met
   11   -1510.2754020654      9.93E-09 Convergence criterion met
 Total energy in the final basis set = -1510.27540207
   11   -1510.2754087763      2.74E-09 Convergence criterion met
 Total energy in the final basis set = -1510.27540878
   11   -1510.2754219095      2.79E-09 Convergence criterion met
 Total energy in the final basis set = -1510.27542191
   11   -1510.2754230436      1.62E-09 Convergence criterion met
 Total energy in the final basis set = -1510.27542304
    9   -1510.2754275465      4.18E-09 Convergence criterion met
 Total energy in the final basis set = -1510.27542755
    9   -1510.2754288186      1.86E-09 Convergence criterion met
 Total energy in the final basis set = -1510.27542882

             Standard Nuclear Orientation (Angstroms)
    I     Atom           X                Y                Z
 ----------------------------------------------------------------
    1      O      -1.5744124577    -1.0196406706     0.7547295158
    2      C      -2.6794627096    -1.2627437360     0.2179401666
    3      C      -4.0823048003    -0.6075491412     0.5259237453
    4      C      -4.1599739624     0.9731903197     0.7419912321
    5      C      -2.9430219583     1.8067290712     0.1923408709
    6      O      -1.8042014967     1.4692298379     0.9685394333
    7      C      -0.5855473075     2.1987570207     0.5395849737
    8      C       0.2587442182     1.1452113763    -0.2590105844
    9      O       1.7018063894     1.4280541185    -0.1230266492
   10      C       2.4283641408     0.5849561168    -1.0327162840
   11      C       3.9516070203     0.7452324122    -0.7075774311
   12      C       4.3554968641     0.4713482278     0.7983479854
   13      C       3.4172239970    -0.4913528214     1.6319562512
   14      O       3.6965057835    -0.9559337640     2.7597889146
   15      O      -2.8350746831    -2.2382131593    -0.8161969688
   16      O       2.2794812048    -0.8986542920     0.8715360420
   17      O       1.9107651899    -0.0952775944    -1.9434676692
   18      C       1.4449513306    -1.8744536543     1.6126476040
   19      C       4.9192071223    -0.2416339245    -1.4868147556
   20      C       6.2986819800     0.5034906332    -1.6484273655
   21      C       6.7859118007     0.5291046737    -0.1510151262
   22      C       5.6886480939    -0.3648323146     0.5543049321
   23      O       5.2427102343    -1.3040847503    -0.5046928133
   24      H       4.2134736763     1.7919049445    -0.9527181393
   25      H       4.5212168539     1.4031287660     1.3683116974
   26      H       4.4821331275    -0.6769006698    -2.4067830564
   27      H       6.9813738076    -0.0855442992    -2.2818748160
   28      H       6.1893212618     1.5099984761    -2.0828173768
   29      H       7.7844443825     0.0784169960    -0.0377529059
   30      H       6.8103151537     1.5482194614     0.2675948517
   31      H       6.0335529430    -0.9198556064     1.4484978702
   32      O      -2.9537289852     2.6411586365    -0.7391774954
   33      C      -1.5252464680    -2.8580226456    -1.1304188424
   34      C      -5.1922259996    -0.8168257627    -0.5947796823
   35      C      -6.5984100232    -0.8112101822     0.1222363836
   36      C      -6.7281469079     0.7097634143     0.5070119879
   37      C      -5.4242387973     1.3089974466    -0.1535731117
   38      O      -5.1969742159     0.4578119660    -1.3461117490
   39      H      -4.4208488930    -1.0903653132     1.4634580613
   40      H      -4.3040945702     1.2133872822     1.8110069968
   41      H      -1.1265721336    -3.4274389586    -0.2660233079
   42      H      -4.9958662549    -1.6714172722    -1.2697163282
   43      H      -7.3869788387    -1.1158951877    -0.5843459406
   44      H      -6.6278026839    -1.4801542407     0.9970382375
   45      H      -7.6298850436     1.1650037634     0.0679557266
   46      H      -6.7477016804     0.8707321713     1.5968695396
   47      H      -5.4813705354     2.3738647873    -0.4513067921
   48      H      -0.7748776631    -2.0977230942    -1.4297179488
   49      H      -1.7122477494    -3.5482093552    -1.9732805036
   50      H       0.3851052333    -1.6696495578     1.3513447421
   51      H       1.6085900662    -1.7719599160     2.7034446792
   52      H       1.7134609439    -2.9058799328     1.3055091502
   53      H       0.0083291976     0.1428653707     0.1538253937
   54      H      -0.0405165510     1.1496116332    -1.3296318049
   55      H      -0.0492265723     2.5154953571     1.4576527627
   56      H      -0.8554374600     3.0797720596    -0.0788402940
 ----------------------------------------------------------------

    8   -1510.2754291072      7.72E-09 Convergence criterion met
 Total energy in the final basis set = -1510.27542911
 Final energy is   -1510.27542910718
 **  OPTIMIZATION CONVERGED  **

                    Orbital Energies (a.u.)
 --------------------------------------------------------------

 Alpha MOs
 -- Occupied --
-18.945 -18.934 -18.934 -18.918 -18.888 -18.887 -18.882 -18.874
-18.868 -18.863 -10.111 -10.100 -10.097 -10.094 -10.069 -10.068
-10.059 -10.058 -10.056 -10.055 -10.055 -10.052 -10.043 -10.041
-10.036 -10.032 -10.021 -10.020 -10.019 -10.017  -1.022  -1.013
 -1.010  -0.997  -0.970  -0.967  -0.945  -0.937  -0.932  -0.926
 -0.765  -0.760  -0.726  -0.721  -0.711  -0.703  -0.693  -0.666
 -0.655  -0.614  -0.597  -0.579  -0.545  -0.541  -0.538  -0.534
 -0.517  -0.506  -0.482  -0.477  -0.469  -0.458  -0.452  -0.443
 -0.434  -0.432  -0.421  -0.417  -0.412  -0.410  -0.405  -0.395
 -0.388  -0.380  -0.378  -0.368  -0.367  -0.359  -0.349  -0.347
 -0.341  -0.335  -0.333  -0.333  -0.327  -0.326  -0.317  -0.313
 -0.307  -0.306  -0.305  -0.298  -0.296  -0.287  -0.286  -0.281
 -0.266  -0.259  -0.247  -0.244  -0.234  -0.234  -0.231  -0.189
 -0.177  -0.175  -0.161  -0.157  -0.156  -0.152  -0.144  -0.143
 -0.141

          Ground-State Mulliken Net Atomic Charges

     Atom                 Charge (a.u.)
  ----------------------------------------
      1 O                    -0.212475
      2 C                     0.213068
      3 C                    -0.078395
      4 C                    -0.076848
      5 C                     0.208331
      6 O                    -0.167423
      7 C                    -0.050722
      8 C                    -0.056953
      9 O                    -0.179697
     10 C                     0.222185
     11 C                    -0.081101
     12 C                    -0.074364
     13 C                     0.214013
     14 O                    -0.218915
     15 O                    -0.166657
     16 O                    -0.168572
     17 O                    -0.220863
     18 C                    -0.137799
     19 C                     0.023058
     20 C                    -0.141876
     21 C                    -0.145585
     22 C                     0.023429
     23 O                    -0.192969
     24 H                     0.082168
     25 H                     0.086234
     26 H                     0.089934
     27 H                     0.077474
     28 H                     0.072958
     29 H                     0.078094
     30 H                     0.073327
     31 H                     0.086554
     32 O                    -0.214090
     33 C                    -0.129249
     34 C                     0.021834
     35 C                    -0.142864
     36 C                    -0.145590
     37 C                     0.024463
     38 O                    -0.189187
     39 H                     0.084157
     40 H                     0.085845
     41 H                     0.087814
     42 H                     0.093940
     43 H                     0.078374
     44 H                     0.072345
     45 H                     0.078644
     46 H                     0.072720
     47 H                     0.089838
     48 H                     0.097885
     49 H                     0.094240
     50 H                     0.103410
     51 H                     0.096673
     52 H                     0.082979
     53 H                     0.101858
     54 H                     0.085031
     55 H                     0.091635
     56 H                     0.097682
  ----------------------------------------
  Sum of atomic charges =    -0.000000

                    Cartesian Multipole Moments
 -----------------------------------------------------------------
    Charge (ESU x 10^10)
                -0.0000
    Dipole Moment (Debye)
         X      -1.1089      Y      -0.0033      Z       1.3489
       Tot       1.7462
    Quadrupole Moments (Debye-Ang)
        XX    -145.0776     XY      13.2523     YY    -155.8663
        XZ     -13.2163     YZ       3.4591     ZZ    -167.0733

 Total job time:  101.06s(wall), 4816.80s(cpu)
        *  Thank you very much for using Q-Chem.  Have a nice day.  *
