 Q-Chem 5.0, Q-Chem, Inc., Pleasanton, CA (2017)
 Q-Chem 5.0.1 for Intel X86 EM64T Linux

User input:
--------------------------------------------------------------
$molecule
0  1
O -1.5744124577 -1.0196406706 0.7547295158
C -2.6794627096 -1.262743736 0.2179401666
C -4.0823048003 -0.6075491412 0.5259237453
C -4.1599739624 0.9731903197 0.7419912321
C -2.9430219583 1.8067290712 0.1923408709
O -1.8042014967 1.4692298379 0.9685394333
C -0.5855473075 2.1987570207 0.5395849737
C 0.2587442182 1.1452113763 -0.2590105844
O 1.7018063894 1.4280541185 -0.1230266492
C 2.4283641408 0.5849561168 -1.032716284
C 3.9516070203 0.7452324122 -0.7075774311
C 4.3554968641 0.4713482278 0.7983479854
C 3.417223997 -0.4913528214 1.6319562512
O 3.6965057835 -0.955933764 2.7597889146
O -2.8350746831 -2.2382131593 -0.8161969688
O 2.2794812048 -0.898654292 0.871536042
O 1.9107651899 -0.0952775944 -1.9434676692
C 1.4449513306 -1.8744536543 1.612647604
C 4.9192071223 -0.2416339245 -1.4868147556
C 6.29868198 0.5034906332 -1.6484273655
C 6.7859118007 0.5291046737 -0.1510151262
C 5.6886480939 -0.3648323146 0.5543049321
O 5.2427102343 -1.3040847503 -0.5046928133
H 4.2134736763 1.7919049445 -0.9527181393
H 4.5212168539 1.403128766 1.3683116974
H 4.4821331275 -0.6769006698 -2.4067830564
H 6.9813738076 -0.0855442992 -2.281874816
H 6.1893212618 1.5099984761 -2.0828173768
H 7.7844443825 0.078416996 -0.0377529059
H 6.8103151537 1.5482194614 0.2675948517
H 6.033552943 -0.9198556064 1.4484978702
O -2.9537289852 2.6411586365 -0.7391774954
C -1.525246468 -2.8580226456 -1.1304188424
C -5.1922259996 -0.8168257627 -0.5947796823
C -6.5984100232 -0.8112101822 0.1222363836
C -6.7281469079 0.7097634143 0.5070119879
C -5.4242387973 1.3089974466 -0.1535731117
O -5.1969742159 0.457811966 -1.346111749
H -4.420848893 -1.0903653132 1.4634580613
H -4.3040945702 1.2133872822 1.8110069968
H -1.1265721336 -3.4274389586 -0.2660233079
H -4.9958662549 -1.6714172722 -1.2697163282
H -7.3869788387 -1.1158951877 -0.5843459406
H -6.6278026839 -1.4801542407 0.9970382375
H -7.6298850436 1.1650037634 0.0679557266
H -6.7477016804 0.8707321713 1.5968695396
H -5.4813705354 2.3738647873 -0.4513067921
H -0.7748776631 -2.0977230942 -1.4297179488
H -1.7122477494 -3.5482093552 -1.9732805036
H 0.3851052333 -1.6696495578 1.3513447421
H 1.6085900662 -1.771959916 2.7034446792
H 1.7134609439 -2.9058799328 1.3055091502
H 0.0083291976 0.1428653707 0.1538253937
H -0.040516551 1.1496116332 -1.3296318049
H -0.0492265723 2.5154953571 1.4576527627
H -0.85543746 3.0797720596 -0.078840294
$end

$rem
JOBTYPE                   OPT
METHOD                    B3LYP
DFT_D                     d3_op
BASIS                     STO-3G
GEOM_OPT_MAX_CYCLES       100
GEOM_OPT_TOL_GRADIENT     300
GEOM_OPT_TOL_DISPLACEMENT 1200
GEOM_OPT_TOL_ENERGY       100
SYMMETRY                  False
THRESH                    12
SCF_CONVERGENCE           8
MAX_SUB_FILE_NUM          128
MEM_STATIC                400
MEM_TOTAL                 4000
$end
--------------------------------------------------------------

   16   -1510.2752459447      5.68E-09 Convergence criterion met
 Total energy in the final basis set = -1510.27524594
   14   -1510.2717402969      2.84E-09 Convergence criterion met
 Total energy in the final basis set = -1510.27174030
   14   -1510.2785649161      3.62E-09 Convergence criterion met
 Total energy in the final basis set = -1510.27856492
   15   -1510.2777863663      2.48E-09 Convergence criterion met
 Total energy in the final basis set = -1510.27778637
   14   -1510.2815578030      5.75E-09 Convergence criterion met
 Total energy in the final basis set = -1510.28155780
   14   -1510.2830060936      9.54E-09 Convergence criterion met
 Total energy in the final basis set = -1510.28300609
   13   -1510.2864155594      7.56E-09 Convergence criterion met
 Total energy in the final basis set = -1510.28641556
   13   -1510.2878806499      5.08E-09 Convergence criterion met
   11   -1510.2971023998      7.44E-09 Convergence criterion met
 Total energy in the final basis set = -1510.29710240
   11   -1510.2971078943      3.50E-09 Convergence criterion met
 Total energy in the final basis set = -1510.29710789
   11   -1510.2971106204      3.36E-09 Convergence criterion met
 Total energy in the final basis set = -1510.29711062
   11   -1510.2971102117      1.67E-09 Convergence criterion met
 Total energy in the final basis set = -1510.29711021
    9   -1510.2971131956      3.64E-09 Convergence criterion met
 Total energy in the final basis set = -1510.29711320
    9   -1510.2971147670      3.30E-09 Convergence criterion met
 Total energy in the final basis set = -1510.29711477

             Standard Nuclear Orientation (Angstroms)
    I     Atom           X                Y                Z
 ----------------------------------------------------------------
    1      O      -0.9135807726    -0.9980599082    -0.4005410966
    2      C      -2.1062496910    -1.0067397974    -0.8008631691
    3      C      -3.3733102500    -1.1178855083     0.1186973528
    4      C      -3.6502683022     0.2235016911     0.9418886775
    5      C      -2.6242827118     1.3631458456     0.6090769990
    6      O      -1.4838660936     1.2002007705     1.4585145763
    7      C      -0.3956963180     2.1275899733     1.0464707698
    8      C       0.1402177313     1.7652246632    -0.3904746900
    9      O       1.6215052894     1.7872127937    -0.3467701868
   10      C       2.1806067137     0.6976080006    -1.0850668202
   11      C       3.7160657067     0.6930154515    -0.7637844683
   12      C       4.0052568528     0.5837658239     0.7972059684
   13      C       2.6941703783     0.4285188346     1.6479509590
   14      O       2.2472504968     1.2208967829     2.5112270863
   15      O      -2.4769585440    -0.8673763498    -2.1612036484
   16      O       2.0685440228    -0.7905040760     1.2576312249
   17      O       1.5385960541    -0.0750849053    -1.8300951916
   18      C       0.8038603905    -1.0251422261     2.0005635075
   19      C       4.4492371174    -0.6000480467    -1.3082335887
   20      C       6.0022442497    -0.3169903255    -1.3117905629
   21      C       6.3211710216    -0.3783283148     0.2286663913
   22      C       4.9001154343    -0.7293474458     0.8257621441
   23      O       4.2850228112    -1.5851278889    -0.2140945192
   24      H       4.1580973569     1.6182454085    -1.1772036916
   25      H       4.5501315594     1.4683445820     1.1697653098
   26      H       4.0251746939    -0.9965485001    -2.2513444846
   27      H       6.5357693109    -1.1057167183    -1.8657959881
   28      H       6.2482881401     0.6588952159    -1.7599205007
   29      H       7.0441753389    -1.1763284204     0.4606602770
   30      H       6.7110620287     0.5753945595     0.6191421932
   31      H       4.9146137577    -1.2544395422     1.8002996091
   32      O      -2.7330452321     2.2535955559    -0.2618942761
   33      C      -1.2864713835    -0.7321530139    -3.0446059913
   34      C      -4.7344122876    -1.2601489455    -0.6810208444
   35      C      -5.8529370987    -1.7359036605     0.3285298635
   36      C      -6.1309757783    -0.4077909343     1.1259713670
   37      C      -5.1101420983     0.5798199800     0.4360873710
   38      O      -5.1038735312     0.1425097629    -0.9786186751
   39      H      -3.2079758392    -1.9639669784     0.8102854938
   40      H      -3.6176799248     0.0249226275     2.0278189841
   41      H      -1.1729766933    -1.6657079735    -3.6306147267
   42      H      -4.6551409675    -1.8467057133    -1.6160230057
   43      H      -6.7467002650    -2.0723935320    -0.2203516292
   44      H      -5.5059716271    -2.5573497996     0.9756289115
   45      H      -7.1644859428    -0.0569071132     0.9773243813
   46      H      -5.9451935134    -0.5122238818     2.2069626573
   47      H      -5.3641131181     1.6552400773     0.5042364248
   48      H      -0.3541540929    -0.5399614298    -2.4664318087
   49      H      -1.4911603018     0.1072609462    -3.7357937975
   50      H      -0.0306432705    -1.0236907238     1.2615363156
   51      H       0.6592603965    -0.2338741282     2.7608277732
   52      H       0.8772756344    -2.0141950830     2.4923917651
   53      H      -0.1993180260     0.7355138355    -0.6488706184
   54      H      -0.2275631723     2.4827703277    -1.1531404388
   55      H       0.4234362635     1.9670940545     1.7836465279
   56      H      -0.7414314608     3.1815094609     1.0899383571
 ----------------------------------------------------------------

    9   -1510.2971157154      3.74E-09 Convergence criterion met
 Total energy in the final basis set = -1510.29711572
 Final energy is   -1510.29711571542
 **  OPTIMIZATION CONVERGED  **

                    Orbital Energies (a.u.)
 --------------------------------------------------------------

 Alpha MOs
 -- Occupied --
-18.949 -18.931 -18.930 -18.923 -18.889 -18.888 -18.884 -18.881
-18.876 -18.864 -10.114 -10.102 -10.099 -10.093 -10.061 -10.061
-10.060 -10.057 -10.056 -10.054 -10.052 -10.045 -10.041 -10.036
-10.033 -10.031 -10.022 -10.021 -10.018 -10.017  -1.023  -1.013
 -1.009  -0.999  -0.971  -0.966  -0.945  -0.939  -0.934  -0.925
 -0.767  -0.761  -0.727  -0.722  -0.711  -0.703  -0.692  -0.660
 -0.644  -0.615  -0.596  -0.580  -0.548  -0.543  -0.537  -0.534
 -0.515  -0.506  -0.482  -0.473  -0.467  -0.458  -0.453  -0.435
 -0.434  -0.433  -0.428  -0.416  -0.410  -0.408  -0.401  -0.394
 -0.393  -0.380  -0.371  -0.368  -0.362  -0.360  -0.352  -0.346
 -0.343  -0.336  -0.334  -0.332  -0.327  -0.327  -0.318  -0.311
 -0.308  -0.305  -0.303  -0.297  -0.290  -0.286  -0.282  -0.281
 -0.273  -0.260  -0.249  -0.241  -0.235  -0.234  -0.230  -0.188
 -0.179  -0.176  -0.165  -0.159  -0.156  -0.151  -0.147  -0.145
 -0.139

          Ground-State Mulliken Net Atomic Charges

     Atom                 Charge (a.u.)
  ----------------------------------------
      1 O                    -0.215636
      2 C                     0.217214
      3 C                    -0.077333
      4 C                    -0.078712
      5 C                     0.201962
      6 O                    -0.171281
      7 C                    -0.057710
      8 C                    -0.066696
      9 O                    -0.177062
     10 C                     0.220132
     11 C                    -0.077176
     12 C                    -0.077217
     13 C                     0.211841
     14 O                    -0.224949
     15 O                    -0.158907
     16 O                    -0.168392
     17 O                    -0.210517
     18 C                    -0.151353
     19 C                     0.024667
     20 C                    -0.143756
     21 C                    -0.144335
     22 C                     0.026218
     23 O                    -0.184074
     24 H                     0.084815
     25 H                     0.084109
     26 H                     0.088538
     27 H                     0.077548
     28 H                     0.072462
     29 H                     0.077330
     30 H                     0.073148
     31 H                     0.082949
     32 O                    -0.211613
     33 C                    -0.143472
     34 C                     0.025310
     35 C                    -0.144249
     36 C                    -0.144042
     37 C                     0.025508
     38 O                    -0.185350
     39 H                     0.087028
     40 H                     0.086930
     41 H                     0.085417
     42 H                     0.090437
     43 H                     0.078645
     44 H                     0.073087
     45 H                     0.078744
     46 H                     0.073600
     47 H                     0.087407
     48 H                     0.121447
     49 H                     0.089337
     50 H                     0.112390
     51 H                     0.090941
     52 H                     0.077196
     53 H                     0.106620
     54 H                     0.085961
     55 H                     0.108400
     56 H                     0.086490
  ----------------------------------------
  Sum of atomic charges =     0.000000

                    Cartesian Multipole Moments
 -----------------------------------------------------------------
    Charge (ESU x 10^10)
                -0.0000
    Dipole Moment (Debye)
         X       0.0480      Y      -0.7339      Z       0.4268
       Tot       0.8504
    Quadrupole Moments (Debye-Ang)
        XX    -143.2679     XY      10.9248     YY    -161.7048
        XZ     -10.4061     YZ      -2.0095     ZZ    -158.9565

 Total job time:  168.13s(wall), 8026.00s(cpu)
        *  Thank you very much for using Q-Chem.  Have a nice day.  *
