 Q-Chem 5.0, Q-Chem, Inc., Pleasanton, CA (2017)
 Q-Chem 5.0.1 for Intel X86 EM64T Linux

User input:
--------------------------------------------------------------
$molecule
0  1
O -3.94934 -3.66094 2.70899
C -3.26408 -4.56952 2.26188
C -3.36658 -6.02376 2.66595
C -3.56126 -6.32558 4.16089
C -3.8097 -5.13648 5.06222
O -2.63915 -4.74483 5.64689
C -2.7938 -3.61964 6.51826
C -3.30241 -2.41402 5.73471
O -2.58809 -1.23381 6.13437
C -3.13832 -0.05817 5.74161
C -2.28712 1.13761 6.09689
C -0.80283 1.00919 5.72452
C -0.45861 -0.10394 4.75542
O 0.66248 -0.36227 4.34192
O -2.45976 -4.33665 1.19106
O -1.447 -0.56138 3.94846
O -4.13368 0.02084 5.03051
C -1.28655 -1.42551 2.8922
C -2.65404 2.4461 5.36941
C -2.15672 3.64178 6.18106
C -0.65992 3.52407 5.97365
C -0.60867 2.34861 4.99163
O -1.80084 2.47118 4.25132
H -2.40582 1.27545 7.19524
H -0.14745 0.88247 6.61408
H -3.74105 2.55173 5.16286
H -2.51479 4.56005 5.66243
H -2.4883 3.66814 7.24137
H -0.29911 4.45707 5.48642
H -0.06685 3.31833 6.89106
H 0.33494 2.37531 4.40288
O -4.92123 -4.79792 5.45826
C -2.72097 -3.4132 0.19827
C -4.66292 -6.6354 2.09213
C -4.52432 -8.15318 1.98779
C -4.58647 -8.53862 3.44868
C -4.85392 -7.16857 4.08233
O -5.61147 -6.48644 3.11639
H -2.50614 -6.56765 2.21356
H -2.74243 -6.939 4.60075
H -2.83471 -2.39024 0.59137
H -4.94493 -6.21255 1.10216
H -5.44116 -8.53261 1.48191
H -3.62774 -8.5123 1.43822
H -5.45922 -9.21302 3.59667
H -3.66703 -9.01192 3.85608
H -5.33526 -7.30127 5.07673
H -3.65811 -3.69094 -0.32937
H -1.88815 -3.42327 -0.5342
H -2.28704 -1.6016 2.47369
H -0.86171 -2.3904 3.24322
H -0.63372 -0.97525 2.11462
H -3.06946 -2.54575 4.66416
H -4.40553 -2.32982 5.85889
H -1.76334 -3.3961 6.86898
H -3.40774 -3.82895 7.42209
$end

$opt
CONSTRAINT
tors           1           2           3           4     -41.285
tors           3           4           5           6     -96.818
tors           4           5           6           7    -180.000
tors           5           6           7           8     -61.288
tors           6           7           8           9    -136.870
tors           7           8           9          10    -165.790
tors           8           9          10          11    -175.477
tors           9          10          11          12     +48.017
tors          11          12          13          14    +179.965
ENDCONSTRAINT
$end

$rem
JOBTYPE                   OPT
METHOD                    B3LYP
DFT_D                     d3_op
BASIS                     STO-3G
GEOM_OPT_MAX_CYCLES       100
GEOM_OPT_TOL_GRADIENT     300
GEOM_OPT_TOL_DISPLACEMENT 1200
GEOM_OPT_TOL_ENERGY       100
SYMMETRY                  False
THRESH                    12
SCF_CONVERGENCE           8
MAX_SUB_FILE_NUM          128
MEM_STATIC                400
MEM_TOTAL                 4000
$end
--------------------------------------------------------------

   15   -1510.1382212555      6.15E-09 Convergence criterion met
 Total energy in the final basis set = -1510.13822126
   14   -1510.2094980522      7.39E-09 Convergence criterion met
 Total energy in the final basis set = -1510.20949805
   14   -1510.2468931055      3.98E-09 Convergence criterion met
 Total energy in the final basis set = -1510.24689311
   14   -1510.2619882325      2.51E-09 Convergence criterion met
 Total energy in the final basis set = -1510.26198823
   14   -1510.2705966517      5.84E-09 Convergence criterion met
 Total energy in the final basis set = -1510.27059665
   13   -1510.2736251100      8.67E-09 Convergence criterion met
 Total energy in the final basis set = -1510.27362511
   13   -1510.2757358497      8.51E-09 Convergence criterion met
 Total energy in the final basis set = -1510.27573585
   12   -1510.2764588545      9.19E-09 Convergence criterion met
   10   -1510.2802669131      7.93E-09 Convergence criterion met
 Total energy in the final basis set = -1510.28026691
   10   -1510.2802719757      7.30E-09 Convergence criterion met
 Total energy in the final basis set = -1510.28027198
    9   -1510.2802779645      6.78E-09 Convergence criterion met
 Total energy in the final basis set = -1510.28027796
    9   -1510.2802839360      8.17E-09 Convergence criterion met
 Total energy in the final basis set = -1510.28028394
    9   -1510.2802874423      7.58E-09 Convergence criterion met
 Total energy in the final basis set = -1510.28028744
    9   -1510.2802891776      4.67E-09 Convergence criterion met
 Total energy in the final basis set = -1510.28028918

             Standard Nuclear Orientation (Angstroms)
    I     Atom           X                Y                Z
 ----------------------------------------------------------------
    1      O      -1.6755679813     1.0174752117     0.4218923011
    2      C      -2.7471280598     1.4325992749    -0.0804207074
    3      C      -4.1035908422     0.6855448641    -0.3053012688
    4      C      -4.0143196744    -0.8057485068    -0.8242182946
    5      C      -2.6714502293    -1.5351960924    -0.4521989314
    6      O      -1.7694894630    -1.4545358535    -1.5603109969
    7      C      -0.4949418141    -2.1396474768    -1.2244069904
    8      C       0.2546484657    -1.4976406401     0.0017229960
    9      O       1.6909862100    -1.4306975878    -0.3543260704
   10      C       2.4807569378    -1.1696675886     0.8184248178
   11      C       3.9705218507    -0.9960329736     0.3510955583
   12      C       4.1809962004    -0.0271064042    -0.8795931610
   13      C       3.0745350959     1.0782971910    -1.0564975614
   14      O       3.0387907366     1.9482682474    -1.9556419144
   15      O      -2.9836076361     2.7816673480    -0.4923833742
   16      O       2.2322646378     1.0980968387     0.0980851131
   17      O       2.0473825515    -1.1733593397     1.9891639053
   18      C       1.2178564551     2.1714821828     0.0160659583
   19      C       4.9585820268    -0.3783814488     1.4266424551
   20      C       6.3928721013    -0.9550582759     1.1172841130
   21      C       6.7027545947    -0.2328978069    -0.2475661390
   22      C       5.4728114738     0.7545428351    -0.3689927973
   23      O       5.0973283308     1.0453273893     1.0361370759
   24      H       4.3231985202    -2.0055562680     0.0663010462
   25      H       4.3374710699    -0.5595661723    -1.8339698798
   26      H       4.6069485959    -0.4674112299     2.4731189626
   27      H       7.1054183725    -0.6527694130     1.9016201253
   28      H       6.4002644769    -2.0534992391     1.0333713387
   29      H       7.6482149714     0.3305760939    -0.2065339820
   30      H       6.7494609388    -0.9350688262    -1.0957666707
   31      H       5.6768657979     1.6936015370    -0.9199760012
   32      O      -2.4247445915    -2.1527704557     0.6055616109
   33      C      -1.8149903840     3.6541046192    -0.2418051595
   34      C      -5.0356254148     0.5178784884     0.9826794508
   35      C      -6.5233437869     0.5224291619     0.4562649503
   36      C      -6.5643915999    -0.8582502182    -0.3003303628
   37      C      -5.1511467543    -1.4627510191     0.0700270210
   38      O      -4.8463456189    -0.8856104263     1.4030989942
   39      H      -4.6411228186     1.2965094950    -1.0523164552
   40      H      -4.1923039109    -0.8734227236    -1.9116489739
   41      H      -1.0175321041     3.4806967598    -0.9915213812
   42      H      -4.8171615654     1.2120031505     1.8171315775
   43      H      -7.2262669364     0.5356241723     1.3048941290
   44      H      -6.7402010754     1.3806057132    -0.1996016795
   45      H      -7.3723797639    -1.5051972017     0.0756093347
   46      H      -6.6865928946    -0.7397371813    -1.3891155762
   47      H      -5.1070766972    -2.5679057636     0.1145448051
   48      H      -1.3960484770     3.4984817948     0.7722045335
   49      H      -2.1832885549     4.6922892087    -0.3375951743
   50      H       0.2104224071     1.7255341115     0.1731797942
   51      H       1.2876352425     2.6618975647    -0.9758679925
   52      H       1.4209899657     2.9162155576     0.8107956838
   53      H      -0.1578609519    -0.4794931920     0.1879056636
   54      H       0.1009681165    -2.0962336199     0.9233451929
   55      H       0.1340841184    -2.0285857863    -2.1313287455
   56      H      -0.6758184191    -3.2209730441    -1.0440000509
 ----------------------------------------------------------------

    8   -1510.2802892550      9.56E-09 Convergence criterion met
 Total energy in the final basis set = -1510.28028925
 Final energy is   -1510.28028925496
 **  OPTIMIZATION CONVERGED  **

                    Orbital Energies (a.u.)
 --------------------------------------------------------------

 Alpha MOs
 -- Occupied --
-18.950 -18.931 -18.931 -18.912 -18.895 -18.893 -18.881 -18.873
-18.868 -18.858 -10.116 -10.097 -10.095 -10.090 -10.074 -10.067
-10.066 -10.062 -10.056 -10.052 -10.052 -10.045 -10.044 -10.041
-10.035 -10.028 -10.025 -10.023 -10.017 -10.015  -1.025  -1.010
 -1.008  -0.992  -0.974  -0.965  -0.951  -0.933  -0.930  -0.921
 -0.769  -0.758  -0.728  -0.721  -0.713  -0.701  -0.690  -0.675
 -0.651  -0.613  -0.597  -0.579  -0.550  -0.541  -0.538  -0.532
 -0.519  -0.504  -0.479  -0.475  -0.465  -0.458  -0.453  -0.441
 -0.438  -0.433  -0.424  -0.420  -0.414  -0.408  -0.402  -0.398
 -0.386  -0.379  -0.372  -0.367  -0.360  -0.358  -0.353  -0.347
 -0.345  -0.339  -0.334  -0.333  -0.326  -0.326  -0.316  -0.314
 -0.309  -0.306  -0.305  -0.300  -0.295  -0.287  -0.281  -0.279
 -0.267  -0.263  -0.249  -0.240  -0.237  -0.232  -0.229  -0.192
 -0.175  -0.174  -0.168  -0.156  -0.152  -0.151  -0.144  -0.140
 -0.137

          Ground-State Mulliken Net Atomic Charges

     Atom                 Charge (a.u.)
  ----------------------------------------
      1 O                    -0.211725
      2 C                     0.215666
      3 C                    -0.080463
      4 C                    -0.079197
      5 C                     0.209409
      6 O                    -0.173915
      7 C                    -0.049270
      8 C                    -0.057995
      9 O                    -0.184506
     10 C                     0.221983
     11 C                    -0.079739
     12 C                    -0.075002
     13 C                     0.215849
     14 O                    -0.220682
     15 O                    -0.166249
     16 O                    -0.166105
     17 O                    -0.217517
     18 C                    -0.143995
     19 C                     0.023898
     20 C                    -0.141936
     21 C                    -0.145338
     22 C                     0.023628
     23 O                    -0.191740
     24 H                     0.080411
     25 H                     0.086091
     26 H                     0.091102
     27 H                     0.077341
     28 H                     0.072886
     29 H                     0.077625
     30 H                     0.073071
     31 H                     0.084029
     32 O                    -0.206480
     33 C                    -0.130851
     34 C                     0.026443
     35 C                    -0.141295
     36 C                    -0.145830
     37 C                     0.026874
     38 O                    -0.181566
     39 H                     0.088227
     40 H                     0.086662
     41 H                     0.090567
     42 H                     0.085088
     43 H                     0.079340
     44 H                     0.074740
     45 H                     0.079413
     46 H                     0.073940
     47 H                     0.086617
     48 H                     0.093714
     49 H                     0.094189
     50 H                     0.102028
     51 H                     0.092591
     52 H                     0.082407
     53 H                     0.098745
     54 H                     0.098370
     55 H                     0.092738
     56 H                     0.085716
  ----------------------------------------
  Sum of atomic charges =     0.000000

                    Cartesian Multipole Moments
 -----------------------------------------------------------------
    Charge (ESU x 10^10)
                -0.0000
    Dipole Moment (Debye)
         X      -1.7669      Y       0.6143      Z      -2.5191
       Tot       3.1377
    Quadrupole Moments (Debye-Ang)
        XX    -137.6160     XY     -11.8298     YY    -153.0705
        XZ       3.4838     YZ       7.1709     ZZ    -168.8399

 Total job time:  104.42s(wall), 4976.74s(cpu)
        *  Thank you very much for using Q-Chem.  Have a nice day.  *
