 Q-Chem 5.0, Q-Chem, Inc., Pleasanton, CA (2017)
 Q-Chem 5.0.1 for Intel X86 EM64T Linux

User input:
--------------------------------------------------------------
$molecule
0  1
O -3.94934 -3.66094 2.70899
C -3.26408 -4.56952 2.26188
C -3.36658 -6.02376 2.66595
C -4.4429 -6.39137 3.70047
C -5.4131 -5.29562 4.08274
O -5.17534 -4.89216 5.36575
C -6.0576 -3.85257 5.80179
C -5.65088 -2.52178 5.17753
O -6.36431 -1.4468 5.80865
C -6.72901 -0.42906 4.9899
C -7.29624 0.7537 5.73822
C -6.46596 1.2149 6.94496
C -5.04934 0.68109 7.01519
O -4.23928 0.9343 7.8951
O -2.33272 -4.28009 1.31565
O -4.46204 0.27717 5.85232
O -6.46866 -0.38019 3.7929
C -3.12269 -0.02286 5.68811
C -7.38383 2.06514 4.93213
C -8.44404 2.97725 5.54848
C -7.75213 3.39167 6.83165
C -6.38767 2.72116 6.63866
O -6.19149 2.74312 5.24395
H -8.31698 0.4451 6.05809
H -6.95295 0.97774 7.9163
H -7.59602 1.91173 3.85195
H -8.53023 3.87028 4.88857
H -9.44856 2.51981 5.67729
H -7.64734 4.49942 6.83147
H -8.24595 3.05501 7.76894
H -5.61222 3.23653 7.24758
O -6.26824 -4.83298 3.33368
C -2.10564 -3.01685 0.8109
C -3.81081 -6.91856 1.49091
C -3.37557 -8.36226 1.74158
C -4.34266 -8.76395 2.83646
C -5.19345 -7.49387 2.93694
O -5.21035 -6.99682 1.62027
H -2.35005 -6.32276 3.00789
H -3.96567 -6.77821 4.63063
H -1.79498 -2.3287 1.626
H -3.43003 -6.57143 0.50549
H -3.61791 -8.94718 0.82545
H -2.29916 -8.4911 1.98579
H -4.96272 -9.60996 2.46473
H -3.87574 -9.03488 3.80806
H -6.18382 -7.72217 3.38949
H -3.0253 -2.62947 0.32233
H -1.29439 -3.06704 0.05605
H -2.9471 -0.33667 4.63866
H -2.831 -0.85445 6.36468
H -2.49966 0.87134 5.90243
H -4.57021 -2.38526 5.38617
H -5.78854 -2.5627 4.07892
H -5.92184 -3.75094 6.8998
H -7.12878 -4.10001 5.62384
$end

$opt
CONSTRAINT
tors           1           2           3           4      +1.462
tors           3           4           5           6    -110.013
tors           4           5           6           7    -180.000
tors           5           6           7           8     -75.514
tors           6           7           8           9    -168.911
tors           7           8           9          10    -143.657
tors           8           9          10          11    -171.785
tors           9          10          11          12     +48.017
tors          11          12          13          14    +179.965
ENDCONSTRAINT
$end

$rem
JOBTYPE                   OPT
METHOD                    B3LYP
DFT_D                     d3_op
BASIS                     STO-3G
GEOM_OPT_MAX_CYCLES       100
GEOM_OPT_TOL_GRADIENT     300
GEOM_OPT_TOL_DISPLACEMENT 1200
GEOM_OPT_TOL_ENERGY       100
SYMMETRY                  False
THRESH                    12
SCF_CONVERGENCE           8
MAX_SUB_FILE_NUM          128
MEM_STATIC                400
MEM_TOTAL                 4000
$end
--------------------------------------------------------------

   16   -1510.1492481487      1.85E-09 Convergence criterion met
 Total energy in the final basis set = -1510.14924815
   13   -1510.2199573753      7.80E-09 Convergence criterion met
 Total energy in the final basis set = -1510.21995738
   13   -1510.2577789963      5.81E-09 Convergence criterion met
 Total energy in the final basis set = -1510.25777900
   13   -1510.2738193373      8.18E-09 Convergence criterion met
 Total energy in the final basis set = -1510.27381934
   13   -1510.2785540442      6.20E-09 Convergence criterion met
 Total energy in the final basis set = -1510.27855404
    2   -1510.2785540442      3.38E-09 Convergence criterion met
 Total energy in the final basis set = -1510.27855404
   13   -1510.2796560874      4.96E-09 Convergence criterion met
 Total energy in the final basis set = -1510.27965609
   13   -1510.2804174383      2.70E-09 Convergence criterion met
   11   -1510.2809101472      3.14E-09 Convergence criterion met
 Total energy in the final basis set = -1510.28091015
    9   -1510.2809140735      9.31E-09 Convergence criterion met
 Total energy in the final basis set = -1510.28091407
    9   -1510.2809170814      7.86E-09 Convergence criterion met
 Total energy in the final basis set = -1510.28091708
    9   -1510.2809196227      4.75E-09 Convergence criterion met
 Total energy in the final basis set = -1510.28091962
    9   -1510.2809222837      3.22E-09 Convergence criterion met
 Total energy in the final basis set = -1510.28092228
    9   -1510.2809237917      3.33E-09 Convergence criterion met
 Total energy in the final basis set = -1510.28092379

             Standard Nuclear Orientation (Angstroms)
    I     Atom           X                Y                Z
 ----------------------------------------------------------------
    1      O      -2.0750034096     1.0611693817     0.1014176143
    2      C      -3.2677611589     1.4267795913    -0.0023688949
    3      C      -4.4938595062     0.5396198287    -0.3970032027
    4      C      -4.1108444561    -0.9755892821    -0.6438374434
    5      C      -2.6634907350    -1.3674427437    -0.1584722729
    6      O      -1.8630904989    -1.6078634359    -1.3295134811
    7      C      -0.4826622505    -1.9828136554    -0.9404195808
    8      C       0.3376503045    -0.7347634112    -0.4597533072
    9      O       1.7606500226    -1.1325657795    -0.3492459986
   10      C       2.3759904050    -0.4764964600     0.7716844254
   11      C       3.9169883633    -0.7666074172     0.7118815424
   12      C       4.6163794039    -0.5409252813    -0.6872625364
   13      C       3.9150445017     0.4846549267    -1.6542084101
   14      O       4.3077918197     0.8016385832    -2.7984956467
   15      O      -3.7178257364     2.7614376950     0.2316594224
   16      O       2.8723298392     1.1806721848    -0.9645934563
   17      O       1.7631304817     0.1604633287     1.6538933812
   18      C       2.2812447183     2.2224565715    -1.8319078113
   19      C       4.8069676986     0.1311954247     1.6708713713
   20      C       6.0647134340    -0.7305451187     2.0723233527
   21      C       6.8151220649    -0.8000988805     0.6893728587
   22      C       5.9461108395     0.1860209229    -0.1913707609
   23      O       5.3972849162     1.1606579719     0.7820080442
   24      H       4.0389921711    -1.8304739274     0.9912532730
   25      H       4.8118321350    -1.4838357645    -1.2276456149
   26      H       4.2459785165     0.6019504793     2.5018082286
   27      H       6.6664538981    -0.2016249205     2.8288520000
   28      H       5.7914668002    -1.7232418129     2.4642319456
   29      H       7.8522183459    -0.4375778799     0.7675742941
   30      H       6.8295769585    -1.8180566081     0.2671918738
   31      H       6.4985398187     0.7073711454    -0.9975445679
   32      O      -2.2918807374    -1.6114011747     1.0089591891
   33      C      -2.5744035924     3.6181507310     0.6267367628
   34      C      -5.6035995086     0.4048504943     0.7368781716
   35      C      -6.9481712479    -0.0325492165     0.0359582999
   36      C      -6.6164934774    -1.5242486988    -0.3387139344
   37      C      -5.1769397148    -1.6900669786     0.2921575340
   38      O      -5.2030292433    -0.8077135901     1.4833077105
   39      H      -4.9403320563     0.9820274352    -1.3070630086
   40      H      -4.2143304550    -1.2549209745    -1.7065930805
   41      H      -1.8143730200     3.6789446764    -0.1788895242
   42      H      -5.6788878002     1.2791993424     1.4119675071
   43      H      -7.7855877858     0.0264071445     0.7496099543
   44      H      -7.1878543029     0.5877963191    -0.8424213936
   45      H      -7.3265893823    -2.2274200868     0.1243266804
   46      H      -6.6097926361    -1.6948426003    -1.4271909708
   47      H      -4.9053835109    -2.7221191246     0.5865216844
   48      H      -2.0831385558     3.2414923650     1.5469215566
   49      H      -2.9969148596     4.6223278027     0.8138216529
   50      H       1.5095536353     2.7235107736    -1.2189574087
   51      H       1.8108130813     1.7821200294    -2.7351521639
   52      H       3.0420603360     2.9620805263    -2.1549905491
   53      H       0.2427404626     0.0839832147    -1.2052796170
   54      H      -0.0358463659    -0.3637766709     0.5179174696
   55      H      -0.0209103404    -2.4118685098    -1.8527341044
   56      H      -0.4945464282    -2.7517122775    -0.1381229315
 ----------------------------------------------------------------

    9   -1510.2809240011      2.55E-09 Convergence criterion met
 Total energy in the final basis set = -1510.28092400
 Final energy is   -1510.28092400106
 **  OPTIMIZATION CONVERGED  **

                    Orbital Energies (a.u.)
 --------------------------------------------------------------

 Alpha MOs
 -- Occupied --
-18.944 -18.937 -18.921 -18.916 -18.888 -18.886 -18.883 -18.870
-18.865 -18.861 -10.107 -10.098 -10.093 -10.090 -10.070 -10.065
-10.063 -10.062 -10.059 -10.058 -10.054 -10.053 -10.041 -10.037
-10.034 -10.031 -10.021 -10.020 -10.019 -10.017  -1.020  -1.012
 -1.000  -0.996  -0.970  -0.967  -0.944  -0.934  -0.928  -0.923
 -0.764  -0.760  -0.724  -0.722  -0.710  -0.702  -0.689  -0.667
 -0.661  -0.612  -0.596  -0.577  -0.546  -0.541  -0.536  -0.534
 -0.513  -0.507  -0.481  -0.474  -0.462  -0.458  -0.453  -0.441
 -0.434  -0.432  -0.420  -0.416  -0.413  -0.411  -0.407  -0.393
 -0.380  -0.379  -0.375  -0.365  -0.360  -0.357  -0.355  -0.346
 -0.340  -0.337  -0.332  -0.328  -0.326  -0.324  -0.317  -0.315
 -0.307  -0.305  -0.302  -0.300  -0.295  -0.292  -0.277  -0.274
 -0.267  -0.260  -0.245  -0.241  -0.238  -0.234  -0.231  -0.186
 -0.178  -0.170  -0.160  -0.158  -0.152  -0.145  -0.143  -0.141
 -0.140

          Ground-State Mulliken Net Atomic Charges

     Atom                 Charge (a.u.)
  ----------------------------------------
      1 O                    -0.208156
      2 C                     0.213709
      3 C                    -0.079372
      4 C                    -0.080875
      5 C                     0.213371
      6 O                    -0.176407
      7 C                    -0.049038
      8 C                    -0.054533
      9 O                    -0.182188
     10 C                     0.222171
     11 C                    -0.079877
     12 C                    -0.075160
     13 C                     0.214215
     14 O                    -0.217055
     15 O                    -0.168660
     16 O                    -0.165188
     17 O                    -0.215065
     18 C                    -0.125750
     19 C                     0.023842
     20 C                    -0.141915
     21 C                    -0.145288
     22 C                     0.023769
     23 O                    -0.191994
     24 H                     0.082070
     25 H                     0.086790
     26 H                     0.091280
     27 H                     0.077712
     28 H                     0.073388
     29 H                     0.077992
     30 H                     0.073448
     31 H                     0.084432
     32 O                    -0.215143
     33 C                    -0.128145
     34 C                     0.025659
     35 C                    -0.142692
     36 C                    -0.145089
     37 C                     0.026286
     38 O                    -0.185296
     39 H                     0.085526
     40 H                     0.084861
     41 H                     0.088442
     42 H                     0.087250
     43 H                     0.078529
     44 H                     0.073519
     45 H                     0.078322
     46 H                     0.073469
     47 H                     0.085200
     48 H                     0.094915
     49 H                     0.092469
     50 H                     0.092720
     51 H                     0.087816
     52 H                     0.091991
     53 H                     0.080503
     54 H                     0.110828
     55 H                     0.086684
     56 H                     0.089708
  ----------------------------------------
  Sum of atomic charges =    -0.000000

                    Cartesian Multipole Moments
 -----------------------------------------------------------------
    Charge (ESU x 10^10)
                -0.0000
    Dipole Moment (Debye)
         X      -1.3851      Y       0.1507      Z      -1.7462
       Tot       2.2340
    Quadrupole Moments (Debye-Ang)
        XX    -143.0879     XY     -10.7248     YY    -150.2441
        XZ      12.1699     YZ       0.7897     ZZ    -167.4149

 Total job time:  49.42s(wall), 2350.96s(cpu)
        *  Thank you very much for using Q-Chem.  Have a nice day.  *
