 Q-Chem 5.0, Q-Chem, Inc., Pleasanton, CA (2017)
 Q-Chem 5.0.1 for Intel X86 EM64T Linux

User input:
--------------------------------------------------------------
$molecule
0  1
O -2.0750034096 1.0611693817 0.1014176143
C -3.2677611589 1.4267795913 -0.0023688949
C -4.4938595062 0.5396198287 -0.3970032027
C -4.1108444561 -0.9755892821 -0.6438374434
C -2.663490735 -1.3674427437 -0.1584722729
O -1.8630904989 -1.6078634359 -1.3295134811
C -0.4826622505 -1.9828136554 -0.9404195808
C 0.3376503045 -0.7347634112 -0.4597533072
O 1.7606500226 -1.1325657795 -0.3492459986
C 2.375990405 -0.47649646 0.7716844254
C 3.9169883633 -0.7666074172 0.7118815424
C 4.6163794039 -0.5409252813 -0.6872625364
C 3.9150445017 0.4846549267 -1.6542084101
O 4.3077918197 0.8016385832 -2.7984956467
O -3.7178257364 2.761437695 0.2316594224
O 2.8723298392 1.1806721848 -0.9645934563
O 1.7631304817 0.1604633287 1.6538933812
C 2.2812447183 2.2224565715 -1.8319078113
C 4.8069676986 0.1311954247 1.6708713713
C 6.064713434 -0.7305451187 2.0723233527
C 6.8151220649 -0.8000988805 0.6893728587
C 5.9461108395 0.1860209229 -0.1913707609
O 5.3972849162 1.1606579719 0.7820080442
H 4.0389921711 -1.8304739274 0.991253273
H 4.811832135 -1.4838357645 -1.2276456149
H 4.2459785165 0.6019504793 2.5018082286
H 6.6664538981 -0.2016249205 2.828852
H 5.7914668002 -1.7232418129 2.4642319456
H 7.8522183459 -0.4375778799 0.7675742941
H 6.8295769585 -1.8180566081 0.2671918738
H 6.4985398187 0.7073711454 -0.9975445679
O -2.2918807374 -1.6114011747 1.0089591891
C -2.5744035924 3.618150731 0.6267367628
C -5.6035995086 0.4048504943 0.7368781716
C -6.9481712479 -0.0325492165 0.0359582999
C -6.6164934774 -1.5242486988 -0.3387139344
C -5.1769397148 -1.6900669786 0.292157534
O -5.2030292433 -0.8077135901 1.4833077105
H -4.9403320563 0.9820274352 -1.3070630086
H -4.214330455 -1.2549209745 -1.7065930805
H -1.81437302 3.6789446764 -0.1788895242
H -5.6788878002 1.2791993424 1.4119675071
H -7.7855877858 0.0264071445 0.7496099543
H -7.1878543029 0.5877963191 -0.8424213936
H -7.3265893823 -2.2274200868 0.1243266804
H -6.6097926361 -1.6948426003 -1.4271909708
H -4.9053835109 -2.7221191246 0.5865216844
H -2.0831385558 3.241492365 1.5469215566
H -2.9969148596 4.6223278027 0.8138216529
H 1.5095536353 2.7235107736 -1.2189574087
H 1.8108130813 1.7821200294 -2.7351521639
H 3.042060336 2.9620805263 -2.1549905491
H 0.2427404626 0.0839832147 -1.205279617
H -0.0358463659 -0.3637766709 0.5179174696
H -0.0209103404 -2.4118685098 -1.8527341044
H -0.4945464282 -2.7517122775 -0.1381229315
$end

$rem
JOBTYPE                   OPT
METHOD                    B3LYP
DFT_D                     d3_op
BASIS                     STO-3G
GEOM_OPT_MAX_CYCLES       100
GEOM_OPT_TOL_GRADIENT     300
GEOM_OPT_TOL_DISPLACEMENT 1200
GEOM_OPT_TOL_ENERGY       100
SYMMETRY                  False
THRESH                    12
SCF_CONVERGENCE           8
MAX_SUB_FILE_NUM          128
MEM_STATIC                400
MEM_TOTAL                 4000
$end
--------------------------------------------------------------

   16   -1510.2809331165      5.42E-09 Convergence criterion met
 Total energy in the final basis set = -1510.28093312
   13   -1510.2825405981      7.51E-09 Convergence criterion met
 Total energy in the final basis set = -1510.28254060
   13   -1510.2838379000      3.97E-09 Convergence criterion met
 Total energy in the final basis set = -1510.28383790
   12   -1510.2850862717      7.63E-09 Convergence criterion met
 Total energy in the final basis set = -1510.28508627
   13   -1510.2860607267      3.45E-09 Convergence criterion met
 Total energy in the final basis set = -1510.28606073
   13   -1510.2866489781      3.31E-09 Convergence criterion met
 Total energy in the final basis set = -1510.28664898
   13   -1510.2874869591      3.05E-09 Convergence criterion met
 Total energy in the final basis set = -1510.28748696
   13   -1510.2882005243      2.71E-09 Convergence criterion met
   11   -1510.2930578525      8.89E-09 Convergence criterion met
 Total energy in the final basis set = -1510.29305785
   11   -1510.2930663496      9.51E-09 Convergence criterion met
 Total energy in the final basis set = -1510.29306635
   11   -1510.2930839065      8.42E-09 Convergence criterion met
 Total energy in the final basis set = -1510.29308391
   11   -1510.2930877093      8.73E-09 Convergence criterion met
 Total energy in the final basis set = -1510.29308771
   11   -1510.2930850792      8.24E-09 Convergence criterion met
 Total energy in the final basis set = -1510.29308508
   10   -1510.2930863642      9.59E-09 Convergence criterion met
 Total energy in the final basis set = -1510.29308636

             Standard Nuclear Orientation (Angstroms)
    I     Atom           X                Y                Z
 ----------------------------------------------------------------
    1      O      -1.6565176515     0.0312864585     0.5575634317
    2      C      -2.6417756614     0.8075764632     0.5634686668
    3      C      -4.0871325358     0.4573372952     0.0763287230
    4      C      -4.1351969800    -0.8901443002    -0.7571203066
    5      C      -2.7237845758    -1.5346130014    -1.0196446392
    6      O      -2.0996222520    -0.7866032987    -2.0817044722
    7      C      -0.6867885569    -1.2082520129    -2.2396897024
    8      C       0.2284203667    -0.0254355604    -1.7564383366
    9      O       1.5286740417    -0.5563126907    -1.2786215291
   10      C       1.8522606792    -0.0057496855     0.0047040502
   11      C       3.1898421363    -0.6652858013     0.4914203008
   12      C       4.4183589102    -0.4268231989    -0.4825327948
   13      C       4.0693117751     0.4398758526    -1.7374499649
   14      O       4.3499033245     0.2001958455    -2.9310957389
   15      O      -2.6096987185     2.1499306061     1.0288174046
   16      O       3.3711252144     1.6122661108    -1.2945034536
   17      O       1.1468357176     0.8111202227     0.6360955361
   18      C       2.9978846525     2.4530665733    -2.4535118871
   19      C       3.7098537975     0.0173512627     1.8217610534
   20      C       4.7828952977    -0.9330855229     2.4821815115
   21      C       6.0088906193    -0.7189389127     1.5176063323
   22      C       5.4170979613     0.3337746212     0.4983192229
   23      O       4.5154258420     1.1599913645     1.3297598977
   24      H       3.0064492419    -1.7469092218     0.6290439258
   25      H       4.8454756202    -1.3797155725    -0.8403863624
   26      H       2.8991744513     0.3741853535     2.4863348871
   27      H       5.0129857430    -0.6021792395     3.5073924621
   28      H       4.4452473264    -1.9812940157     2.5155989634
   29      H       6.8737767414    -0.2929197326     2.0505785767
   30      H       6.3245292581    -1.6482187563     1.0170512233
   31      H       6.1668650825     0.9691313434    -0.0120040483
   32      O      -2.2567270813    -2.5809168037    -0.5217011731
   33      C      -1.2629852354     2.4964524631     1.5567140314
   34      C      -5.0143158181     0.0697788155     1.3110290566
   35      C      -6.5144057613     0.0172846225     0.8169637837
   36      C      -6.5314432579    -1.3474515820     0.0327210405
   37      C      -5.0269329452    -1.8012579262     0.1852800526
   38      O      -4.6698674266    -1.3484614845     1.5508367084
   39      H      -4.4976965783     1.3151834849    -0.4850788333
   40      H      -4.6185037843    -0.7198672348    -1.7359278236
   41      H      -0.4703772536     1.8369440549     1.1364424843
   42      H      -4.8379051779     0.6764488205     2.2206966238
   43      H      -7.2014363941    -0.0013682623     1.6778784397
   44      H      -6.7701733647     0.8786668367     0.1795120494
   45      H      -7.2040610834    -2.0780947987     0.5094518962
   46      H      -6.8269170050    -1.2301536582    -1.0221510847
   47      H      -4.8352235964    -2.8864849582     0.0781330620
   48      H      -1.2659819593     2.4015347315     2.6612968965
   49      H      -1.0756583383     3.5521056994     1.2857888300
   50      H       2.3280498543     3.2389612436    -2.0586040016
   51      H       2.4706166146     1.8653721118    -3.2317924942
   52      H       3.8895838741     2.9251497040    -2.9149881759
   53      H       0.4103061786     0.6993024282    -2.5769321457
   54      H      -0.2782441473     0.4843098313    -0.9073854768
   55      H      -0.5101742014    -1.4508885915    -3.3073703652
   56      H      -0.5107776652    -2.1124308598    -1.6158101228
 ----------------------------------------------------------------

    9   -1510.2930870699      4.25E-09 Convergence criterion met
 Total energy in the final basis set = -1510.29308707
 Final energy is   -1510.29308706985
 **  OPTIMIZATION CONVERGED  **

                    Orbital Energies (a.u.)
 --------------------------------------------------------------

 Alpha MOs
 -- Occupied --
-18.939 -18.934 -18.929 -18.917 -18.887 -18.887 -18.881 -18.879
-18.874 -18.866 -10.105 -10.103 -10.098 -10.093 -10.064 -10.061
-10.060 -10.059 -10.057 -10.057 -10.057 -10.048 -10.040 -10.038
-10.036 -10.034 -10.021 -10.020 -10.019 -10.018  -1.017  -1.014
 -1.005  -0.999  -0.970  -0.969  -0.939  -0.937  -0.935  -0.926
 -0.764  -0.762  -0.726  -0.722  -0.709  -0.705  -0.691  -0.661
 -0.657  -0.612  -0.596  -0.577  -0.545  -0.543  -0.537  -0.535
 -0.512  -0.509  -0.481  -0.474  -0.465  -0.457  -0.453  -0.445
 -0.435  -0.431  -0.426  -0.416  -0.413  -0.409  -0.405  -0.395
 -0.392  -0.376  -0.372  -0.367  -0.360  -0.358  -0.348  -0.346
 -0.344  -0.340  -0.333  -0.330  -0.329  -0.324  -0.323  -0.311
 -0.308  -0.305  -0.302  -0.298  -0.295  -0.293  -0.277  -0.275
 -0.269  -0.256  -0.250  -0.242  -0.237  -0.234  -0.233  -0.183
 -0.176  -0.176  -0.163  -0.158  -0.156  -0.150  -0.147  -0.144
 -0.143

          Ground-State Mulliken Net Atomic Charges

     Atom                 Charge (a.u.)
  ----------------------------------------
      1 O                    -0.211245
      2 C                     0.216622
      3 C                    -0.077940
      4 C                    -0.080395
      5 C                     0.218034
      6 O                    -0.182828
      7 C                    -0.055115
      8 C                    -0.059740
      9 O                    -0.176835
     10 C                     0.226471
     11 C                    -0.077450
     12 C                    -0.078865
     13 C                     0.212056
     14 O                    -0.212351
     15 O                    -0.169245
     16 O                    -0.167723
     17 O                    -0.213538
     18 C                    -0.127815
     19 C                     0.024966
     20 C                    -0.143922
     21 C                    -0.143835
     22 C                     0.025922
     23 O                    -0.186628
     24 H                     0.087191
     25 H                     0.086132
     26 H                     0.090417
     27 H                     0.078158
     28 H                     0.074141
     29 H                     0.077921
     30 H                     0.074118
     31 H                     0.082257
     32 O                    -0.214667
     33 C                    -0.145092
     34 C                     0.025494
     35 C                    -0.143817
     36 C                    -0.143868
     37 C                     0.024898
     38 O                    -0.188481
     39 H                     0.087311
     40 H                     0.084440
     41 H                     0.121603
     42 H                     0.084508
     43 H                     0.078317
     44 H                     0.073782
     45 H                     0.078169
     46 H                     0.073239
     47 H                     0.089579
     48 H                     0.082613
     49 H                     0.085013
     50 H                     0.091720
     51 H                     0.089021
     52 H                     0.087649
     53 H                     0.076760
     54 H                     0.107638
     55 H                     0.082037
     56 H                     0.103198
  ----------------------------------------
  Sum of atomic charges =    -0.000000

                    Cartesian Multipole Moments
 -----------------------------------------------------------------
    Charge (ESU x 10^10)
                -0.0000
    Dipole Moment (Debye)
         X      -0.7761      Y       1.1489      Z      -0.5467
       Tot       1.4904
    Quadrupole Moments (Debye-Ang)
        XX    -142.2661     XY      -6.9942     YY    -160.8658
        XZ       8.7038     YZ      -2.3899     ZZ    -160.8423

 Total job time:  139.58s(wall), 6653.20s(cpu)
        *  Thank you very much for using Q-Chem.  Have a nice day.  *
