 Q-Chem 5.0, Q-Chem, Inc., Pleasanton, CA (2017)
 Q-Chem 5.0.1 for Intel X86 EM64T Linux

User input:
--------------------------------------------------------------
$molecule
0  1
O -2.1366351642 1.39058188 0.4967444988
C -3.2655226939 1.6219814154 0.010458246
C -4.4858550399 0.6572176131 -0.183141193
C -4.1043177282 -0.7962583741 -0.6921343795
C -2.6034892971 -1.1671207199 -0.3982090974
O -1.9798267869 -1.3923624317 -1.6664459152
C -0.538987218 -1.7604022995 -1.6188228028
C 0.2848519209 -1.1853661585 -0.4130484436
O 1.7118601399 -1.4059062733 -0.7514808609
C 2.5290958134 -1.0713277694 0.3816362132
C 4.021412339 -1.105697281 -0.0992278626
C 4.5958695384 0.2771925757 -0.6355712656
C 3.690474054 1.5631903473 -0.5280314696
O 4.1060705148 2.7408676338 -0.5963137162
O -3.662978639 2.9136549962 -0.471093801
O 2.3106175194 1.2242346401 -0.3835775278
O 2.1030337661 -0.881700316 1.5398881228
C 1.4845271629 2.4441097424 -0.2232941278
C 5.0268362853 -1.4010199128 1.0941497399
C 6.3850633173 -1.9173714341 0.4770440304
C 6.9722766584 -0.5826607907 -0.115597923
C 5.8604301908 0.4563149492 0.3072922591
O 5.3734017123 -0.0557503141 1.6083917056
H 4.0973751238 -1.8713046587 -0.8918108037
H 4.8979643753 0.1836648632 -1.6955969941
H 4.6001139535 -2.023562152 1.9042072776
H 7.0351186427 -2.3280452198 1.2659119044
H 6.2267141197 -2.6920886057 -0.289937859
H 7.9370831548 -0.3241715525 0.3486009095
H 7.1056869985 -0.6237889464 -1.2084909941
H 6.1978697845 1.507357894 0.3986561528
O -2.1103819382 -1.4010712782 0.7244899898
C -2.5539125128 3.8807742855 -0.2995371022
C -5.3262362614 0.3156062683 1.1303827521
C -6.7896587434 -0.0331735909 0.6500226255
C -6.5401955031 -1.4160086487 -0.0601811414
C -5.0153527247 -1.6688699431 0.2731527263
O -4.8100164354 -0.9953486774 1.5770806776
H -5.1460722782 1.1517144408 -0.9176804443
H -4.3214628668 -0.9359575052 -1.7649284179
H -1.6647009733 3.5903590842 -0.895867365
H -5.2537432038 1.0625665568 1.9445059574
H -7.4576005941 -0.1440123674 1.5194857947
H -7.2088772533 0.7294542365 -0.0253380824
H -7.1687218667 -2.2128632799 0.3675259122
H -6.7188156552 -1.3711149371 -1.1466232655
H -4.7181323232 -2.7332519503 0.3399008225
H -2.2491974918 3.9706009383 0.7631158628
H -2.9373005129 4.8530663352 -0.659519708
H 0.4641288059 2.09463186 0.0274452878
H 1.4571229676 3.0360583519 -1.1613090638
H 1.8684088185 3.0894827292 0.5920204967
H 0.080744419 -0.1002275506 -0.2909871204
H 0.0077288536 -1.6888888212 0.5341831223
H -0.1092259493 -1.3815712176 -2.5697874399
H -0.4537311898 -2.8700706971 -1.621330272
$end

$rem
JOBTYPE                   OPT
METHOD                    B3LYP
DFT_D                     d3_op
BASIS                     STO-3G
GEOM_OPT_MAX_CYCLES       100
GEOM_OPT_TOL_GRADIENT     300
GEOM_OPT_TOL_DISPLACEMENT 1200
GEOM_OPT_TOL_ENERGY       100
SYMMETRY                  False
THRESH                    12
SCF_CONVERGENCE           8
MAX_SUB_FILE_NUM          128
MEM_STATIC                400
MEM_TOTAL                 4000
$end
--------------------------------------------------------------

   16   -1510.2720765519      5.75E-09 Convergence criterion met
 Total energy in the final basis set = -1510.27207655
   14   -1510.2721929774      9.12E-09 Convergence criterion met
 Total energy in the final basis set = -1510.27219298
   14   -1510.2765013864      4.82E-09 Convergence criterion met
 Total energy in the final basis set = -1510.27650139
   14   -1510.2790444518      4.74E-09 Convergence criterion met
 Total energy in the final basis set = -1510.27904445
   14   -1510.2783611772      5.84E-09 Convergence criterion met
 Total energy in the final basis set = -1510.27836118
   13   -1510.2802413740      6.85E-09 Convergence criterion met
 Total energy in the final basis set = -1510.28024137
   14   -1510.2798477127      3.34E-09 Convergence criterion met
 Total energy in the final basis set = -1510.27984771
   13   -1510.2831059268      9.61E-09 Convergence criterion met
   11   -1510.3001152640      7.05E-09 Convergence criterion met
 Total energy in the final basis set = -1510.30011526
   12   -1510.3001416610      3.77E-09 Convergence criterion met
 Total energy in the final basis set = -1510.30014166
   11   -1510.3001494968      7.30E-09 Convergence criterion met
 Total energy in the final basis set = -1510.30014950
   10   -1510.3001568652      6.70E-09 Convergence criterion met
 Total energy in the final basis set = -1510.30015687
   11   -1510.3001627576      5.40E-09 Convergence criterion met
 Total energy in the final basis set = -1510.30016276
   10   -1510.3001666773      4.95E-09 Convergence criterion met
 Total energy in the final basis set = -1510.30016668

             Standard Nuclear Orientation (Angstroms)
    I     Atom           X                Y                Z
 ----------------------------------------------------------------
    1      O      -1.7031122331     0.5067862228     0.7085224626
    2      C      -2.2355275580     0.6854481986    -0.4142052083
    3      C      -3.7363807177     0.4302959990    -0.7913348035
    4      C      -4.1671696716    -1.0931293181    -0.6625156090
    5      C      -3.0237116511    -2.0411385820    -0.1577963232
    6      O      -1.9008376076    -1.9233334707    -1.0456803021
    7      C      -0.7647048811    -2.7270091535    -0.5284722638
    8      C       0.1557288984    -1.8588801210     0.3970169573
    9      O       1.1491921021    -1.1376754521    -0.4401612097
   10      C       2.3904582602    -0.9945104427     0.2837451741
   11      C       3.3921496088    -0.1522172582    -0.5775388518
   12      C       3.7641385546     1.2382107428     0.0964180010
   13      C       2.9676007884     1.5224762998     1.4212250678
   14      O       3.4042804208     1.9396759008     2.5133131815
   15      O      -1.5750909680     1.1747365525    -1.5721715352
   16      O       1.5994052596     1.2231066186     1.1421524808
   17      O       2.6106285431    -1.5355054030     1.3881734996
   18      C       0.7352114323     1.3643116362     2.3354226506
   19      C       4.8233912627    -0.8405854544    -0.6153926047
   20      C       5.6896333668    -0.1303717560    -1.7302647466
   21      C       6.0728274422     1.2169729269    -1.0118000020
   22      C       5.3136678015     1.0515000561     0.3620357491
   23      O       5.4439243243    -0.3961083318     0.6529049010
   24      H       2.9645408373    -0.0150046908    -1.5859434208
   25      H       3.5722594641     2.0701623645    -0.6064080443
   26      H       4.7993456377    -1.9463476915    -0.6675123444
   27      H       6.5820153582    -0.7317154480    -1.9663628543
   28      H       5.1171335784     0.0295401328    -2.6581651222
   29      H       7.1593254089     1.2907594142    -0.8455954384
   30      H       5.7377026848     2.1070341770    -1.5676361877
   31      H       5.6985179570     1.6539633928     1.2078748718
   32      O      -3.0615719690    -2.8069418465     0.8288443722
   33      C      -0.1243915848     1.3699839140    -1.3246657055
   34      C      -4.7334528964     1.1021808576     0.2485665529
   35      C      -6.1737888962     1.1387650165    -0.4001231038
   36      C      -6.6017894758    -0.3713642829    -0.2769104721
   37      C      -5.3258323587    -0.9930881176     0.4137844658
   38      O      -4.8564688606     0.0844616210     1.3155455310
   39      H      -3.8966888892     0.8045694619    -1.8171037044
   40      H      -4.5339791198    -1.4762582423    -1.6327157131
   41      H       0.3760834875     0.4149269202    -1.0255294691
   42      H      -4.3798856757     2.0633686216     0.6693676962
   43      H      -6.8397071476     1.7962168008     0.1812643414
   44      H      -6.1502980251     1.4921352700    -1.4434449876
   45      H      -7.4854984186    -0.4888308566     0.3701407470
   46      H      -6.8140465654    -0.8356740197    -1.2531357814
   47      H      -5.4880432649    -1.9291677941     0.9830466510
   48      H       0.0524687430     2.1255677571    -0.5338761927
   49      H       0.2902438607     1.7362509376    -2.2811718200
   50      H      -0.2869451872     1.1387726720     1.9626700695
   51      H       0.7834634953     2.3905151245     2.7520709616
   52      H       1.0257728153     0.6425148624     3.1252506799
   53      H      -0.4726983434    -1.1051201323     0.9259984605
   54      H       0.6983277122    -2.4815072515     1.1396618066
   55      H      -0.1982516197    -3.0874793559    -1.4107995523
   56      H      -1.1602048092    -3.5868442078     0.0537077267
 ----------------------------------------------------------------

   10   -1510.3001670510      9.39E-09 Convergence criterion met
 Total energy in the final basis set = -1510.30016705
 Final energy is   -1510.30016705099
 **  OPTIMIZATION CONVERGED  **

                    Orbital Energies (a.u.)
 --------------------------------------------------------------

 Alpha MOs
 -- Occupied --
-18.937 -18.937 -18.936 -18.933 -18.889 -18.888 -18.883 -18.879
-18.876 -18.873 -10.104 -10.104 -10.103 -10.100 -10.073 -10.062
-10.062 -10.062 -10.059 -10.058 -10.049 -10.041 -10.041 -10.040
-10.039 -10.038 -10.022 -10.022 -10.021 -10.020  -1.019  -1.015
 -1.009  -1.006  -0.972  -0.970  -0.943  -0.938  -0.936  -0.936
 -0.766  -0.764  -0.729  -0.724  -0.712  -0.707  -0.698  -0.657
 -0.655  -0.618  -0.598  -0.581  -0.548  -0.545  -0.539  -0.537
 -0.512  -0.511  -0.487  -0.474  -0.459  -0.458  -0.455  -0.453
 -0.437  -0.432  -0.430  -0.418  -0.416  -0.409  -0.401  -0.398
 -0.391  -0.383  -0.372  -0.368  -0.364  -0.362  -0.355  -0.351
 -0.342  -0.341  -0.338  -0.332  -0.331  -0.327  -0.324  -0.312
 -0.311  -0.307  -0.306  -0.302  -0.293  -0.289  -0.285  -0.275
 -0.273  -0.263  -0.254  -0.245  -0.241  -0.236  -0.234  -0.186
 -0.178  -0.174  -0.171  -0.163  -0.159  -0.153  -0.151  -0.145
 -0.144

          Ground-State Mulliken Net Atomic Charges

     Atom                 Charge (a.u.)
  ----------------------------------------
      1 O                    -0.227991
      2 C                     0.218394
      3 C                    -0.079175
      4 C                    -0.078254
      5 C                     0.211028
      6 O                    -0.174314
      7 C                    -0.053783
      8 C                    -0.063039
      9 O                    -0.174959
     10 C                     0.216517
     11 C                    -0.078688
     12 C                    -0.078614
     13 C                     0.213095
     14 O                    -0.205995
     15 O                    -0.166386
     16 O                    -0.176201
     17 O                    -0.211753
     18 C                    -0.140863
     19 C                     0.025785
     20 C                    -0.144199
     21 C                    -0.143624
     22 C                     0.023891
     23 O                    -0.185570
     24 H                     0.084689
     25 H                     0.083599
     26 H                     0.083633
     27 H                     0.078408
     28 H                     0.072845
     29 H                     0.078835
     30 H                     0.072777
     31 H                     0.091259
     32 O                    -0.208648
     33 C                    -0.147987
     34 C                     0.025437
     35 C                    -0.143701
     36 C                    -0.144143
     37 C                     0.024576
     38 O                    -0.186778
     39 H                     0.087161
     40 H                     0.085953
     41 H                     0.113810
     42 H                     0.083121
     43 H                     0.078360
     44 H                     0.073766
     45 H                     0.078762
     46 H                     0.073257
     47 H                     0.090874
     48 H                     0.083455
     49 H                     0.079066
     50 H                     0.113268
     51 H                     0.084066
     52 H                     0.088634
     53 H                     0.104333
     54 H                     0.099979
     55 H                     0.092001
     56 H                     0.100035
  ----------------------------------------
  Sum of atomic charges =     0.000000

                    Cartesian Multipole Moments
 -----------------------------------------------------------------
    Charge (ESU x 10^10)
                -0.0000
    Dipole Moment (Debye)
         X      -1.3595      Y       0.9671      Z      -4.5688
       Tot       4.8639
    Quadrupole Moments (Debye-Ang)
        XX    -152.5055     XY       0.9415     YY    -155.7775
        XZ      -6.1806     YZ       2.6337     ZZ    -167.8708

 Total job time:  123.39s(wall), 5884.87s(cpu)
        *  Thank you very much for using Q-Chem.  Have a nice day.  *
