 Q-Chem 5.0, Q-Chem, Inc., Pleasanton, CA (2017)
 Q-Chem 5.0.1 for Intel X86 EM64T Linux

User input:
--------------------------------------------------------------
$molecule
0  1
O -3.94934 -3.66094 2.70899
C -3.26408 -4.56952 2.26188
C -3.36658 -6.02376 2.66595
C -3.56126 -6.32558 4.16089
C -3.8097 -5.13648 5.06222
O -2.81168 -5.04072 5.9897
C -2.97741 -3.93453 6.88308
C -3.71306 -2.79771 6.18124
O -3.60925 -1.59423 6.95826
C -4.35973 -0.55216 6.52237
C -4.05342 0.73711 7.24667
C -2.96782 1.60461 6.59308
C -2.61153 1.2511 5.16312
O -2.03091 1.9839 4.37543
O -2.27078 -4.28121 1.37955
O -2.94414 0.05282 4.62082
O -5.32922 -0.68112 5.78153
C -2.73626 -0.31065 3.3059
C -5.23966 1.73009 7.2442
C -5.09805 2.70779 8.40973
C -3.92352 3.53634 7.93749
C -3.72374 2.94869 6.53561
O -5.01252 2.5583 6.13431
H -3.84801 0.48323 8.3117
H -2.02308 1.67857 7.17398
H -6.23382 1.23373 7.2894
H -6.00951 3.34815 8.4051
H -4.98133 2.24878 9.41496
H -4.24477 4.60024 7.88288
H -2.99989 3.44564 8.54937
H -3.22027 3.69464 5.88155
O -4.98544 -4.92975 5.34266
C -1.94562 -3.01893 0.93526
C -4.65011 -6.66265 2.08978
C -4.46493 -8.17323 1.96122
C -4.48603 -8.58114 3.41794
C -4.8124 -7.23397 4.07516
O -5.59963 -6.56785 3.12112
H -2.49644 -6.5598 2.22185
H -2.70362 -6.90772 4.57028
H -1.58027 -2.40488 1.78082
H -4.95183 -6.23289 1.10892
H -5.38168 -8.56988 1.46829
H -3.57189 -8.50301 1.38804
H -5.31613 -9.30705 3.56664
H -3.53508 -9.00514 3.80687
H -5.28144 -7.40284 5.06973
H -2.82548 -2.53869 0.45614
H -1.12925 -3.0976 0.18849
H -3.14153 -1.32441 3.14891
H -1.64999 -0.3062 3.07396
H -3.27185 0.38603 2.62624
H -3.26594 -2.59938 5.18286
H -4.79869 -2.97519 6.12444
H -1.95698 -3.57238 7.13093
H -3.47813 -4.24028 7.82649
$end

$opt
CONSTRAINT
tors           1           2           3           4     -41.285
tors           3           4           5           6    -118.563
tors           4           5           6           7    -180.000
tors           5           6           7           8     -29.890
tors           6           7           8           9    -166.820
tors           7           8           9          10    -172.257
tors           8           9          10          11    -171.307
tors           9          10          11          12     +91.060
tors          11          12          13          14    +161.607
ENDCONSTRAINT
$end

$rem
JOBTYPE                   OPT
METHOD                    B3LYP
DFT_D                     d3_op
BASIS                     STO-3G
GEOM_OPT_MAX_CYCLES       100
GEOM_OPT_TOL_GRADIENT     300
GEOM_OPT_TOL_DISPLACEMENT 1200
GEOM_OPT_TOL_ENERGY       100
SYMMETRY                  False
THRESH                    12
SCF_CONVERGENCE           8
MAX_SUB_FILE_NUM          128
MEM_STATIC                400
MEM_TOTAL                 4000
$end
--------------------------------------------------------------

   16   -1510.1124953257      3.20E-09 Convergence criterion met
 Total energy in the final basis set = -1510.11249533
   15   -1510.1887314847      1.68E-09 Convergence criterion met
 Total energy in the final basis set = -1510.18873148
   14   -1510.2295182805      8.92E-09 Convergence criterion met
 Total energy in the final basis set = -1510.22951828
   15   -1510.2536227163      2.46E-09 Convergence criterion met
 Total energy in the final basis set = -1510.25362272
   14   -1510.2637264765      5.15E-09 Convergence criterion met
 Total energy in the final basis set = -1510.26372648
   14   -1510.2683554882      3.29E-09 Convergence criterion met
 Total energy in the final basis set = -1510.26835549
   14   -1510.2700242647      2.32E-09 Convergence criterion met
 Total energy in the final basis set = -1510.27002426
   13   -1510.2711944634      8.65E-09 Convergence criterion met
    9   -1510.2720575054      8.37E-09 Convergence criterion met
 Total energy in the final basis set = -1510.27205751
    9   -1510.2720535464      5.16E-09 Convergence criterion met
 Total energy in the final basis set = -1510.27205355
    9   -1510.2720551680      8.36E-09 Convergence criterion met
 Total energy in the final basis set = -1510.27205517
    9   -1510.2720606682      4.93E-09 Convergence criterion met
 Total energy in the final basis set = -1510.27206067
    9   -1510.2720635383      3.71E-09 Convergence criterion met
 Total energy in the final basis set = -1510.27206354
    9   -1510.2720646671      2.93E-09 Convergence criterion met
 Total energy in the final basis set = -1510.27206467

             Standard Nuclear Orientation (Angstroms)
    I     Atom           X                Y                Z
 ----------------------------------------------------------------
    1      O      -2.1366351642     1.3905818800     0.4967444988
    2      C      -3.2655226939     1.6219814154     0.0104582460
    3      C      -4.4858550399     0.6572176131    -0.1831411930
    4      C      -4.1043177282    -0.7962583741    -0.6921343795
    5      C      -2.6034892971    -1.1671207199    -0.3982090974
    6      O      -1.9798267869    -1.3923624317    -1.6664459152
    7      C      -0.5389872180    -1.7604022995    -1.6188228028
    8      C       0.2848519209    -1.1853661585    -0.4130484436
    9      O       1.7118601399    -1.4059062733    -0.7514808609
   10      C       2.5290958134    -1.0713277694     0.3816362132
   11      C       4.0214123390    -1.1056972810    -0.0992278626
   12      C       4.5958695384     0.2771925757    -0.6355712656
   13      C       3.6904740540     1.5631903473    -0.5280314696
   14      O       4.1060705148     2.7408676338    -0.5963137162
   15      O      -3.6629786390     2.9136549962    -0.4710938010
   16      O       2.3106175194     1.2242346401    -0.3835775278
   17      O       2.1030337661    -0.8817003160     1.5398881228
   18      C       1.4845271629     2.4441097424    -0.2232941278
   19      C       5.0268362853    -1.4010199128     1.0941497399
   20      C       6.3850633173    -1.9173714341     0.4770440304
   21      C       6.9722766584    -0.5826607907    -0.1155979230
   22      C       5.8604301908     0.4563149492     0.3072922591
   23      O       5.3734017123    -0.0557503141     1.6083917056
   24      H       4.0973751238    -1.8713046587    -0.8918108037
   25      H       4.8979643753     0.1836648632    -1.6955969941
   26      H       4.6001139535    -2.0235621520     1.9042072776
   27      H       7.0351186427    -2.3280452198     1.2659119044
   28      H       6.2267141197    -2.6920886057    -0.2899378590
   29      H       7.9370831548    -0.3241715525     0.3486009095
   30      H       7.1056869985    -0.6237889464    -1.2084909941
   31      H       6.1978697845     1.5073578940     0.3986561528
   32      O      -2.1103819382    -1.4010712782     0.7244899898
   33      C      -2.5539125128     3.8807742855    -0.2995371022
   34      C      -5.3262362614     0.3156062683     1.1303827521
   35      C      -6.7896587434    -0.0331735909     0.6500226255
   36      C      -6.5401955031    -1.4160086487    -0.0601811414
   37      C      -5.0153527247    -1.6688699431     0.2731527263
   38      O      -4.8100164354    -0.9953486774     1.5770806776
   39      H      -5.1460722782     1.1517144408    -0.9176804443
   40      H      -4.3214628668    -0.9359575052    -1.7649284179
   41      H      -1.6647009733     3.5903590842    -0.8958673650
   42      H      -5.2537432038     1.0625665568     1.9445059574
   43      H      -7.4576005941    -0.1440123674     1.5194857947
   44      H      -7.2088772533     0.7294542365    -0.0253380824
   45      H      -7.1687218667    -2.2128632799     0.3675259122
   46      H      -6.7188156552    -1.3711149371    -1.1466232655
   47      H      -4.7181323232    -2.7332519503     0.3399008225
   48      H      -2.2491974918     3.9706009383     0.7631158628
   49      H      -2.9373005129     4.8530663352    -0.6595197080
   50      H       0.4641288059     2.0946318600     0.0274452878
   51      H       1.4571229676     3.0360583519    -1.1613090638
   52      H       1.8684088185     3.0894827292     0.5920204967
   53      H       0.0807444190    -0.1002275506    -0.2909871204
   54      H       0.0077288536    -1.6888888212     0.5341831223
   55      H      -0.1092259493    -1.3815712176    -2.5697874399
   56      H      -0.4537311898    -2.8700706971    -1.6213302720
 ----------------------------------------------------------------

    9   -1510.2720651875      2.83E-09 Convergence criterion met
 Total energy in the final basis set = -1510.27206519
 Final energy is   -1510.27206518753
 **  OPTIMIZATION CONVERGED  **

                    Orbital Energies (a.u.)
 --------------------------------------------------------------

 Alpha MOs
 -- Occupied --
-18.941 -18.939 -18.930 -18.914 -18.891 -18.882 -18.881 -18.873
-18.873 -18.859 -10.103 -10.100 -10.098 -10.089 -10.070 -10.069
-10.065 -10.063 -10.061 -10.055 -10.055 -10.054 -10.039 -10.037
-10.037 -10.030 -10.023 -10.022 -10.017 -10.016  -1.017  -1.014
 -1.006  -0.994  -0.972  -0.966  -0.941  -0.936  -0.934  -0.922
 -0.765  -0.758  -0.726  -0.720  -0.712  -0.703  -0.692  -0.668
 -0.662  -0.615  -0.596  -0.580  -0.548  -0.541  -0.539  -0.534
 -0.514  -0.506  -0.480  -0.471  -0.460  -0.453  -0.450  -0.446
 -0.436  -0.434  -0.422  -0.418  -0.413  -0.411  -0.409  -0.395
 -0.384  -0.379  -0.377  -0.366  -0.361  -0.356  -0.352  -0.345
 -0.344  -0.340  -0.332  -0.330  -0.326  -0.323  -0.322  -0.313
 -0.308  -0.307  -0.303  -0.302  -0.294  -0.286  -0.282  -0.276
 -0.269  -0.260  -0.247  -0.243  -0.238  -0.235  -0.230  -0.183
 -0.180  -0.173  -0.162  -0.157  -0.154  -0.148  -0.140  -0.140
 -0.137

          Ground-State Mulliken Net Atomic Charges

     Atom                 Charge (a.u.)
  ----------------------------------------
      1 O                    -0.212370
      2 C                     0.206181
      3 C                    -0.080863
      4 C                    -0.078968
      5 C                     0.211364
      6 O                    -0.175925
      7 C                    -0.049695
      8 C                    -0.054430
      9 O                    -0.180893
     10 C                     0.218348
     11 C                    -0.081335
     12 C                    -0.077509
     13 C                     0.211785
     14 O                    -0.215541
     15 O                    -0.169629
     16 O                    -0.166510
     17 O                    -0.213164
     18 C                    -0.127920
     19 C                     0.024951
     20 C                    -0.143891
     21 C                    -0.144384
     22 C                     0.024194
     23 O                    -0.189101
     24 H                     0.082979
     25 H                     0.084337
     26 H                     0.087242
     27 H                     0.077519
     28 H                     0.072510
     29 H                     0.077929
     30 H                     0.072562
     31 H                     0.088272
     32 O                    -0.200454
     33 C                    -0.129310
     34 C                     0.026873
     35 C                    -0.141794
     36 C                    -0.145335
     37 C                     0.026662
     38 O                    -0.181600
     39 H                     0.085906
     40 H                     0.086545
     41 H                     0.085982
     42 H                     0.085149
     43 H                     0.078796
     44 H                     0.074388
     45 H                     0.078799
     46 H                     0.073855
     47 H                     0.084426
     48 H                     0.090658
     49 H                     0.091643
     50 H                     0.099113
     51 H                     0.085635
     52 H                     0.094635
     53 H                     0.088189
     54 H                     0.109806
     55 H                     0.090089
     56 H                     0.083294
  ----------------------------------------
  Sum of atomic charges =    -0.000000

                    Cartesian Multipole Moments
 -----------------------------------------------------------------
    Charge (ESU x 10^10)
                 0.0000
    Dipole Moment (Debye)
         X      -1.9271      Y       0.1720      Z      -3.7714
       Tot       4.2387
    Quadrupole Moments (Debye-Ang)
        XX    -140.7158     XY     -10.5814     YY    -151.8910
        XZ      -2.5117     YZ       3.4522     ZZ    -166.7963

 Total job time:  62.29s(wall), 2963.51s(cpu)
        *  Thank you very much for using Q-Chem.  Have a nice day.  *
