 Q-Chem 5.0, Q-Chem, Inc., Pleasanton, CA (2017)
 Q-Chem 5.0.1 for Intel X86 EM64T Linux

User input:
--------------------------------------------------------------
$molecule
0  1
O 2.1237839094 0.7699310513 -0.9565043235
C 3.055801322 1.3583948648 -0.3699190519
C 4.3329369674 0.758491321 0.3217693497
C 4.3071595935 -0.8015128008 0.5701191579
C 2.9245987256 -1.5365410001 0.6544053723
O 1.929573536 -0.6637608412 1.1994028377
C 0.6230426141 -1.3599354566 1.2785133716
C -0.306258306 -0.8802670483 0.1086584833
O -1.7042897646 -1.106588732 0.5443074292
C -2.5848990496 -1.0978798914 -0.5910436733
C -4.0616647793 -1.1158662972 -0.057587561
C -4.4393348511 -0.0235048176 1.0206255447
C -3.55398501 1.2772302867 1.0324465901
O -3.6904714408 2.2526096407 1.80298166
O 3.140356625 2.7851133568 -0.2427585938
O -2.6873004106 1.2936251577 -0.1059023772
O -2.2149653577 -1.134793197 -1.7830556251
C -1.9397780689 2.5675422518 -0.1732351808
C -5.1662934474 -0.8728891939 -1.1700865447
C -6.4626151199 -1.6444282386 -0.7133742193
C -6.885651786 -0.7783284127 0.5323572547
C -5.8588777482 0.4224266153 0.4456147128
O -5.5627751767 0.5459650738 -1.0014844505
H -4.2105031732 -2.1143659471 0.3955909417
H -4.5001947657 -0.4354890976 2.0432344038
H -4.8165804144 -1.0637002426 -2.2035267681
H -7.2290516591 -1.6092782498 -1.5045593991
H -6.2637521186 -2.6975696806 -0.4580177473
H -7.9194328343 -0.4093460989 0.4410845775
H -6.791968754 -1.3293151654 1.4822210888
H -6.2261764514 1.3847086561 0.8530386478
O 2.7149074636 -2.7270250748 0.3322154118
C 1.9814500578 3.4192581436 -0.9107442908
C 5.5018783119 0.8272409358 -0.7614460888
C 6.8752494287 0.3833914418 -0.1149398084
C 6.7311220912 -1.1845229153 -0.1202060893
C 5.238840392 -1.3339775687 -0.6038693628
O 5.1364339066 -0.296679555 -1.6570469732
H 4.5587086356 1.3327755677 1.2372074527
H 4.803163467 -1.0020455864 1.5396211298
H 1.025143414 3.1210567078 -0.4351622436
H 5.5349613725 1.7804801669 -1.3240897996
H 7.7220221914 0.7187130656 -0.734238931
H 6.9978471429 0.7926599468 0.9008137578
H 7.4166823547 -1.6470792836 -0.8483305013
H 6.9055282736 -1.6366902744 0.8690819817
H 4.9473082122 -2.3283478578 -0.9951930551
H 1.9335749428 3.157158875 -1.9874806899
H 2.122899383 4.5101284548 -0.8004047732
H -1.3520186617 2.5230842256 -1.1087148866
H -1.255942149 2.6838466679 0.6929345665
H -2.6245479671 3.4393798744 -0.2017428463
H -0.1321134782 0.201461147 -0.082728719
H -0.0865960694 -1.4293027698 -0.8313278044
H 0.1651533177 -1.081100637 2.2503758372
H 0.7817556008 -2.4575963754 1.2308969912
$end

$rem
JOBTYPE                   OPT
METHOD                    B3LYP
DFT_D                     d3_op
BASIS                     STO-3G
GEOM_OPT_MAX_CYCLES       100
GEOM_OPT_TOL_GRADIENT     300
GEOM_OPT_TOL_DISPLACEMENT 1200
GEOM_OPT_TOL_ENERGY       100
SYMMETRY                  False
THRESH                    12
SCF_CONVERGENCE           8
MAX_SUB_FILE_NUM          128
MEM_STATIC                400
MEM_TOTAL                 4000
$end
--------------------------------------------------------------

   16   -1510.2765781213      5.59E-09 Convergence criterion met
 Total energy in the final basis set = -1510.27657812
   13   -1510.2786237055      5.56E-09 Convergence criterion met
 Total energy in the final basis set = -1510.27862371
   13   -1510.2803206573      5.55E-09 Convergence criterion met
 Total energy in the final basis set = -1510.28032066
   13   -1510.2821440618      6.61E-09 Convergence criterion met
 Total energy in the final basis set = -1510.28214406
   13   -1510.2835874926      2.69E-09 Convergence criterion met
 Total energy in the final basis set = -1510.28358749
   13   -1510.2849717364      2.57E-09 Convergence criterion met
 Total energy in the final basis set = -1510.28497174
   13   -1510.2861435311      2.69E-09 Convergence criterion met
 Total energy in the final basis set = -1510.28614353
   13   -1510.2871443380      2.78E-09 Convergence criterion met
   11   -1510.3019353247      2.80E-09 Convergence criterion met
 Total energy in the final basis set = -1510.30193532
   11   -1510.3019356387      7.00E-09 Convergence criterion met
 Total energy in the final basis set = -1510.30193564
   10   -1510.3019359594      6.18E-09 Convergence criterion met
 Total energy in the final basis set = -1510.30193596
    9   -1510.3019369765      5.51E-09 Convergence criterion met
 Total energy in the final basis set = -1510.30193698
    9   -1510.3019360678      3.42E-09 Convergence criterion met
 Total energy in the final basis set = -1510.30193607
    9   -1510.3019360052      3.70E-09 Convergence criterion met
 Total energy in the final basis set = -1510.30193601

             Standard Nuclear Orientation (Angstroms)
    I     Atom           X                Y                Z
 ----------------------------------------------------------------
    1      O      -1.4236329661     0.6357966073     0.6252301664
    2      C      -2.2314585276     1.2945572262    -0.0754557932
    3      C      -3.4908435594     0.7426013699    -0.8304496933
    4      C      -3.7510406055    -0.8033102040    -0.6226484403
    5      C      -2.6905855033    -1.5673400628     0.2509140415
    6      O      -1.6622630482    -2.0578437556    -0.6253159274
    7      C      -0.7174208858    -2.9100584102     0.1343691164
    8      C       0.3332860610    -2.0750140797     0.9400529368
    9      O       1.3329313499    -1.4934030380     0.0104591736
   10      C       2.6550862775    -1.7004362654     0.5270129858
   11      C       3.6876433114    -1.0597041452    -0.4664016275
   12      C       3.4462302934     0.4811576930    -0.7519081674
   13      C       2.2242359063     1.0934801299     0.0087169967
   14      O       1.3495564671     1.8349254062    -0.5004502194
   15      O      -2.1778162687     2.6912241463    -0.3099035100
   16      O       2.2918580361     0.7156308337     1.3772688595
   17      O       2.9156201232    -2.3464451621     1.5654472581
   18      C       1.1194102742     1.2247055397     2.1331659726
   19      C       5.1359937358    -1.0339544773     0.1728965705
   20      C       6.1891984119    -0.7874139944    -0.9755984472
   21      C       5.9497269770     0.7380392028    -1.2813643591
   22      C       4.8232001685     1.0886808966    -0.2294549967
   23      O       5.1502507531     0.2378592965     0.9345464894
   24      H       3.6655628653    -1.6374761730    -1.4089273453
   25      H       3.2975014060     0.6772558164    -1.8280946931
   26      H       5.3384439577    -1.8887709010     0.8471314639
   27      H       7.2110321510    -0.9692392385    -0.6064684081
   28      H       6.0099564034    -1.4313018919    -1.8514482216
   29      H       6.8545228958     1.3368868870    -1.0905749535
   30      H       5.6187602457     0.9175825962    -2.3167165430
   31      H       4.7717896346     2.1540058242     0.0683129983
   32      O      -2.7764718518    -1.8558461337     1.4640339973
   33      C      -1.0084017552     3.3116694723     0.3633760005
   34      C      -4.8278324564     1.3556250160    -0.2232113619
   35      C      -6.0136184262     1.0721175134    -1.2281089400
   36      C      -6.2728324559    -0.4586110890    -0.9702479131
   37      C      -5.1620493862    -0.7750733260     0.1058012513
   38      O      -5.1106816457     0.4611956625     0.9205477919
   39      H      -3.3865510268     0.9956777871    -1.9011980264
   40      H      -3.8078163550    -1.3153403482    -1.5994546685
   41      H      -0.0609373310     2.7839716585     0.0862209177
   42      H      -4.7290698999     2.4067037455     0.1108250571
   43      H      -6.8931485012     1.6816666574    -0.9668235682
   44      H      -5.7320120099     1.2867695569    -2.2712031708
   45      H      -7.2758451693    -0.6319857507    -0.5488639939
   46      H      -6.1610446611    -1.0708395433    -1.8794404612
   47      H      -5.3542218023    -1.6523260881     0.7533198707
   48      H      -1.1420314244     3.3010764894     1.4639214753
   49      H      -0.9878616808     4.3588154285     0.0110851606
   50      H       1.1372866981     0.6923458034     3.1013871016
   51      H       0.1614155627     1.0238595769     1.5947019560
   52      H       1.2194518401     2.3136422365     2.3167569484
   53      H      -0.1881916183    -1.2541009363     1.4740137528
   54      H       0.8700468388    -2.7129732795     1.6762167225
   55      H      -0.2065798175    -3.5437065631    -0.6185707502
   56      H      -1.2744469892    -3.5537712156     0.8496173998
 ----------------------------------------------------------------

    9   -1510.3019356821      4.71E-09 Convergence criterion met
 Total energy in the final basis set = -1510.30193568
 Final energy is   -1510.30193568210
 **  OPTIMIZATION CONVERGED  **

                    Orbital Energies (a.u.)
 --------------------------------------------------------------

 Alpha MOs
 -- Occupied --
-18.940 -18.939 -18.925 -18.923 -18.888 -18.886 -18.886 -18.880
-18.872 -18.863 -10.108 -10.106 -10.097 -10.092 -10.067 -10.061
-10.059 -10.057 -10.057 -10.057 -10.046 -10.043 -10.039 -10.039
-10.037 -10.033 -10.021 -10.020 -10.020 -10.019  -1.017  -1.015
 -1.005  -1.000  -0.970  -0.970  -0.941  -0.939  -0.934  -0.925
 -0.764  -0.762  -0.726  -0.722  -0.711  -0.705  -0.694  -0.660
 -0.651  -0.614  -0.596  -0.579  -0.546  -0.543  -0.538  -0.534
 -0.512  -0.511  -0.482  -0.469  -0.468  -0.452  -0.451  -0.441
 -0.433  -0.432  -0.426  -0.425  -0.412  -0.410  -0.404  -0.399
 -0.381  -0.376  -0.373  -0.366  -0.361  -0.360  -0.352  -0.350
 -0.341  -0.334  -0.333  -0.331  -0.325  -0.324  -0.322  -0.311
 -0.309  -0.305  -0.305  -0.300  -0.295  -0.293  -0.277  -0.273
 -0.270  -0.258  -0.252  -0.242  -0.235  -0.234  -0.234  -0.183
 -0.179  -0.177  -0.161  -0.159  -0.157  -0.150  -0.144  -0.144
 -0.143

          Ground-State Mulliken Net Atomic Charges

     Atom                 Charge (a.u.)
  ----------------------------------------
      1 O                    -0.214099
      2 C                     0.223440
      3 C                    -0.077045
      4 C                    -0.081692
      5 C                     0.213544
      6 O                    -0.174150
      7 C                    -0.048870
      8 C                    -0.059670
      9 O                    -0.177565
     10 C                     0.216580
     11 C                    -0.077833
     12 C                    -0.078243
     13 C                     0.223458
     14 O                    -0.218264
     15 O                    -0.168255
     16 O                    -0.164029
     17 O                    -0.214471
     18 C                    -0.145301
     19 C                     0.024665
     20 C                    -0.144110
     21 C                    -0.143738
     22 C                     0.025903
     23 O                    -0.185738
     24 H                     0.084383
     25 H                     0.085935
     26 H                     0.091352
     27 H                     0.078424
     28 H                     0.073156
     29 H                     0.078127
     30 H                     0.073713
     31 H                     0.082136
     32 O                    -0.218811
     33 C                    -0.149897
     34 C                     0.024939
     35 C                    -0.143936
     36 C                    -0.144084
     37 C                     0.025449
     38 O                    -0.189257
     39 H                     0.087955
     40 H                     0.084463
     41 H                     0.121039
     42 H                     0.087181
     43 H                     0.078118
     44 H                     0.073811
     45 H                     0.077946
     46 H                     0.073248
     47 H                     0.087433
     48 H                     0.077035
     49 H                     0.083581
     50 H                     0.088784
     51 H                     0.115547
     52 H                     0.077889
     53 H                     0.100125
     54 H                     0.099705
     55 H                     0.087929
     56 H                     0.092068
  ----------------------------------------
  Sum of atomic charges =    -0.000000

                    Cartesian Multipole Moments
 -----------------------------------------------------------------
    Charge (ESU x 10^10)
                -0.0000
    Dipole Moment (Debye)
         X       0.0181      Y       0.4372      Z      -3.3065
       Tot       3.3353
    Quadrupole Moments (Debye-Ang)
        XX    -151.0550     XY       1.3720     YY    -153.2728
        XZ      -1.1189     YZ       5.6622     ZZ    -163.3910

 Total job time:  161.59s(wall), 7704.70s(cpu)
        *  Thank you very much for using Q-Chem.  Have a nice day.  *
