 Q-Chem 5.0, Q-Chem, Inc., Pleasanton, CA (2017)
 Q-Chem 5.0.1 for Intel X86 EM64T Linux

User input:
--------------------------------------------------------------
$molecule
0  1
O -3.94934 -3.66094 2.70899
C -3.26408 -4.56952 2.26188
C -3.36658 -6.02376 2.66595
C -4.17482 -6.34547 3.93367
C -4.93821 -5.19754 4.55621
O -4.27196 -4.02522 4.33894
C -4.93538 -2.88797 4.90089
C -5.64955 -2.10202 3.80619
O -5.81674 -0.73525 4.21469
C -6.75135 -0.03176 3.52859
C -6.7364 1.44228 3.85668
C -5.36107 2.11632 3.7453
C -4.30077 1.33451 2.99614
O -3.15141 1.70389 2.80353
O -2.41272 -4.33033 1.23064
O -4.74917 0.45576 2.05795
O -7.44619 -0.50879 2.63826
C -3.99354 -0.06869 1.03201
C -7.57085 2.33177 2.91353
C -7.94384 3.63027 3.62807
C -6.5978 4.32491 3.67638
C -5.74562 3.33089 2.88003
O -6.64772 2.77717 1.95082
H -7.136 1.52524 4.8925
H -4.93096 2.39232 4.73304
H -8.4862 1.8343 2.52599
H -8.6119 4.20006 2.94291
H -8.44868 3.50476 4.61003
H -6.68244 5.29145 3.13163
H -6.18603 4.49528 4.69476
H -4.8559 3.84123 2.4491
O -5.83858 -5.35374 5.37318
C -2.17164 -3.10057 0.6681
C -4.11632 -6.8416 1.60577
C -3.77052 -8.32367 1.7459
C -4.54071 -8.67229 3.00088
C -5.19765 -7.32409 3.30991
O -5.45157 -6.78209 2.03635
H -2.31889 -6.38019 2.7871
H -3.59961 -6.8518 4.74006
H -1.74492 -2.41717 1.43127
H -3.91939 -6.49603 0.56708
H -4.22483 -8.86957 0.88847
H -2.67943 -8.53163 1.78372
H -5.3298 -9.4104 2.73312
H -3.93059 -9.06313 3.84357
H -6.09073 -7.48497 3.95323
H -3.11011 -2.69182 0.24168
H -1.43392 -3.21632 -0.15202
H -4.61588 -0.7768 0.44806
H -3.11823 -0.59705 1.45361
H -3.64687 0.74359 0.35812
H -5.17459 -1.96363 2.82518
H -6.61915 -2.62085 3.6297
H -4.11784 -2.24585 5.29288
H -5.60428 -3.07241 5.77134
$end

$opt
CONSTRAINT
tors           1           2           3           4     -13.591
tors           3           4           5           6     -31.387
tors           4           5           6           7    -180.000
tors           5           6           7           8    -102.888
tors           6           7           8           9    -155.666
tors           7           8           9          10    -161.864
tors           8           9          10          11    -171.307
tors           9          10          11          12     +51.749
tors          11          12          13          14    +179.965
ENDCONSTRAINT
$end

$rem
JOBTYPE                   OPT
METHOD                    B3LYP
DFT_D                     d3_op
BASIS                     STO-3G
GEOM_OPT_MAX_CYCLES       100
GEOM_OPT_TOL_GRADIENT     300
GEOM_OPT_TOL_DISPLACEMENT 1200
GEOM_OPT_TOL_ENERGY       100
SYMMETRY                  False
THRESH                    12
SCF_CONVERGENCE           8
MAX_SUB_FILE_NUM          128
MEM_STATIC                400
MEM_TOTAL                 4000
$end
--------------------------------------------------------------

   16   -1510.0316289226      6.51E-09 Convergence criterion met
 Total energy in the final basis set = -1510.03162892
   14   -1510.1240170753      8.87E-09 Convergence criterion met
 Total energy in the final basis set = -1510.12401708
   14   -1510.1841106690      8.02E-09 Convergence criterion met
 Total energy in the final basis set = -1510.18411067
   14   -1510.2234703456      7.98E-09 Convergence criterion met
 Total energy in the final basis set = -1510.22347035
   14   -1510.2458324715      5.78E-09 Convergence criterion met
 Total energy in the final basis set = -1510.24583247
   14   -1510.2579094583      4.71E-09 Convergence criterion met
 Total energy in the final basis set = -1510.25790946
   14   -1510.2655476794      3.13E-09 Convergence criterion met
 Total energy in the final basis set = -1510.26554768
   12   -1510.2697779901      9.65E-09 Convergence criterion met
   10   -1510.2766986464      6.57E-09 Convergence criterion met
 Total energy in the final basis set = -1510.27669865
   10   -1510.2767186801      7.24E-09 Convergence criterion met
 Total energy in the final basis set = -1510.27671868
   10   -1510.2767316903      5.48E-09 Convergence criterion met
 Total energy in the final basis set = -1510.27673169
    9   -1510.2767396288      6.86E-09 Convergence criterion met
 Total energy in the final basis set = -1510.27673963
    9   -1510.2767414814      6.58E-09 Convergence criterion met
 Total energy in the final basis set = -1510.27674148
    9   -1510.2767427629      3.80E-09 Convergence criterion met
 Total energy in the final basis set = -1510.27674276

             Standard Nuclear Orientation (Angstroms)
    I     Atom           X                Y                Z
 ----------------------------------------------------------------
    1      O       2.1237839094     0.7699310513    -0.9565043235
    2      C       3.0558013220     1.3583948648    -0.3699190519
    3      C       4.3329369674     0.7584913210     0.3217693497
    4      C       4.3071595935    -0.8015128008     0.5701191579
    5      C       2.9245987256    -1.5365410001     0.6544053723
    6      O       1.9295735360    -0.6637608412     1.1994028377
    7      C       0.6230426141    -1.3599354566     1.2785133716
    8      C      -0.3062583060    -0.8802670483     0.1086584833
    9      O      -1.7042897646    -1.1065887320     0.5443074292
   10      C      -2.5848990496    -1.0978798914    -0.5910436733
   11      C      -4.0616647793    -1.1158662972    -0.0575875610
   12      C      -4.4393348511    -0.0235048176     1.0206255447
   13      C      -3.5539850100     1.2772302867     1.0324465901
   14      O      -3.6904714408     2.2526096407     1.8029816600
   15      O       3.1403566250     2.7851133568    -0.2427585938
   16      O      -2.6873004106     1.2936251577    -0.1059023772
   17      O      -2.2149653577    -1.1347931970    -1.7830556251
   18      C      -1.9397780689     2.5675422518    -0.1732351808
   19      C      -5.1662934474    -0.8728891939    -1.1700865447
   20      C      -6.4626151199    -1.6444282386    -0.7133742193
   21      C      -6.8856517860    -0.7783284127     0.5323572547
   22      C      -5.8588777482     0.4224266153     0.4456147128
   23      O      -5.5627751767     0.5459650738    -1.0014844505
   24      H      -4.2105031732    -2.1143659471     0.3955909417
   25      H      -4.5001947657    -0.4354890976     2.0432344038
   26      H      -4.8165804144    -1.0637002426    -2.2035267681
   27      H      -7.2290516591    -1.6092782498    -1.5045593991
   28      H      -6.2637521186    -2.6975696806    -0.4580177473
   29      H      -7.9194328343    -0.4093460989     0.4410845775
   30      H      -6.7919687540    -1.3293151654     1.4822210888
   31      H      -6.2261764514     1.3847086561     0.8530386478
   32      O       2.7149074636    -2.7270250748     0.3322154118
   33      C       1.9814500578     3.4192581436    -0.9107442908
   34      C       5.5018783119     0.8272409358    -0.7614460888
   35      C       6.8752494287     0.3833914418    -0.1149398084
   36      C       6.7311220912    -1.1845229153    -0.1202060893
   37      C       5.2388403920    -1.3339775687    -0.6038693628
   38      O       5.1364339066    -0.2966795550    -1.6570469732
   39      H       4.5587086356     1.3327755677     1.2372074527
   40      H       4.8031634670    -1.0020455864     1.5396211298
   41      H       1.0251434140     3.1210567078    -0.4351622436
   42      H       5.5349613725     1.7804801669    -1.3240897996
   43      H       7.7220221914     0.7187130656    -0.7342389310
   44      H       6.9978471429     0.7926599468     0.9008137578
   45      H       7.4166823547    -1.6470792836    -0.8483305013
   46      H       6.9055282736    -1.6366902744     0.8690819817
   47      H       4.9473082122    -2.3283478578    -0.9951930551
   48      H       1.9335749428     3.1571588750    -1.9874806899
   49      H       2.1228993830     4.5101284548    -0.8004047732
   50      H      -1.3520186617     2.5230842256    -1.1087148866
   51      H      -1.2559421490     2.6838466679     0.6929345665
   52      H      -2.6245479671     3.4393798744    -0.2017428463
   53      H      -0.1321134782     0.2014611470    -0.0827287190
   54      H      -0.0865960694    -1.4293027698    -0.8313278044
   55      H       0.1651533177    -1.0811006370     2.2503758372
   56      H       0.7817556008    -2.4575963754     1.2308969912
 ----------------------------------------------------------------

    9   -1510.2767433523      2.40E-09 Convergence criterion met
 Total energy in the final basis set = -1510.27674335
 Final energy is   -1510.27674335228
 **  OPTIMIZATION CONVERGED  **

                    Orbital Energies (a.u.)
 --------------------------------------------------------------

 Alpha MOs
 -- Occupied --
-18.940 -18.934 -18.934 -18.919 -18.888 -18.884 -18.877 -18.875
-18.873 -18.866 -10.102 -10.100 -10.100 -10.095 -10.068 -10.067
-10.066 -10.062 -10.060 -10.059 -10.059 -10.055 -10.041 -10.039
-10.039 -10.033 -10.022 -10.021 -10.020 -10.018  -1.016  -1.015
 -1.009  -0.999  -0.972  -0.968  -0.940  -0.937  -0.934  -0.928
 -0.765  -0.762  -0.726  -0.723  -0.711  -0.703  -0.693  -0.666
 -0.663  -0.612  -0.598  -0.580  -0.544  -0.542  -0.539  -0.536
 -0.514  -0.509  -0.484  -0.480  -0.466  -0.460  -0.453  -0.443
 -0.436  -0.430  -0.421  -0.417  -0.413  -0.411  -0.409  -0.394
 -0.388  -0.382  -0.375  -0.369  -0.361  -0.360  -0.355  -0.345
 -0.342  -0.340  -0.337  -0.331  -0.329  -0.322  -0.320  -0.313
 -0.308  -0.307  -0.305  -0.299  -0.297  -0.292  -0.288  -0.273
 -0.268  -0.256  -0.247  -0.245  -0.243  -0.235  -0.232  -0.183
 -0.180  -0.172  -0.164  -0.159  -0.155  -0.151  -0.146  -0.144
 -0.143

          Ground-State Mulliken Net Atomic Charges

     Atom                 Charge (a.u.)
  ----------------------------------------
      1 O                    -0.210725
      2 C                     0.215541
      3 C                    -0.076256
      4 C                    -0.080090
      5 C                     0.214582
      6 O                    -0.171239
      7 C                    -0.052044
      8 C                    -0.049962
      9 O                    -0.181843
     10 C                     0.221214
     11 C                    -0.080238
     12 C                    -0.075623
     13 C                     0.213748
     14 O                    -0.216269
     15 O                    -0.172980
     16 O                    -0.164902
     17 O                    -0.215287
     18 C                    -0.126433
     19 C                     0.023725
     20 C                    -0.142041
     21 C                    -0.145163
     22 C                     0.024020
     23 O                    -0.191699
     24 H                     0.081944
     25 H                     0.086734
     26 H                     0.091619
     27 H                     0.077887
     28 H                     0.073301
     29 H                     0.078223
     30 H                     0.073456
     31 H                     0.084605
     32 O                    -0.216018
     33 C                    -0.128940
     34 C                     0.024504
     35 C                    -0.145242
     36 C                    -0.142064
     37 C                     0.024565
     38 O                    -0.190221
     39 H                     0.087863
     40 H                     0.083764
     41 H                     0.084634
     42 H                     0.084054
     43 H                     0.078693
     44 H                     0.073739
     45 H                     0.078760
     46 H                     0.073686
     47 H                     0.091837
     48 H                     0.090014
     49 H                     0.090361
     50 H                     0.094173
     51 H                     0.086270
     52 H                     0.093351
     53 H                     0.089622
     54 H                     0.097231
     55 H                     0.088088
     56 H                     0.099472
  ----------------------------------------
  Sum of atomic charges =    -0.000000

                    Cartesian Multipole Moments
 -----------------------------------------------------------------
    Charge (ESU x 10^10)
                 0.0000
    Dipole Moment (Debye)
         X       1.1004      Y       0.6269      Z       2.3077
       Tot       2.6324
    Quadrupole Moments (Debye-Ang)
        XX    -141.1245     XY      11.3491     YY    -157.4657
        XZ       2.3800     YZ      -7.0028     ZZ    -166.1510

 Total job time:  72.27s(wall), 3440.30s(cpu)
        *  Thank you very much for using Q-Chem.  Have a nice day.  *
