 Q-Chem 5.0, Q-Chem, Inc., Pleasanton, CA (2017)
 Q-Chem 5.0.1 for Intel X86 EM64T Linux

User input:
--------------------------------------------------------------
$molecule
0  1
O -3.94934 -3.66094 2.70899
C -3.26408 -4.56952 2.26188
C -3.36658 -6.02376 2.66595
C -4.04185 -6.33304 4.01213
C -4.69761 -5.16872 4.72095
O -3.81974 -4.61006 5.60563
C -4.37 -3.49706 6.31818
C -4.39153 -2.26037 5.42584
O -4.85916 -1.12612 6.1726
C -5.04034 0.01014 5.4548
C -5.40105 1.19806 6.31468
C -4.9308 1.10761 7.77377
C -3.88773 0.04813 8.06738
O -3.39266 -0.1748 9.16272
O -2.4496 -4.30919 1.20571
O -2.9368 -0.06383 7.08012
O -5.11181 0.03498 4.23238
C -1.70168 -0.69189 7.15996
C -4.68848 2.50331 5.88669
C -5.49892 3.70567 6.3696
C -5.26263 3.6218 7.86443
C -4.24204 2.4783 7.91367
O -3.54441 2.58616 6.69785
H -6.49627 1.35937 6.19845
H -5.76641 0.96011 8.49207
H -4.5149 2.57585 4.79093
H -4.98551 4.61401 5.97946
H -6.56547 3.73083 6.05879
H -4.81067 4.58054 8.2025
H -6.1605 3.38379 8.47515
H -3.62291 2.54555 8.83559
O -5.9019 -4.93281 4.69483
C -2.27112 -3.05848 0.65246
C -4.24501 -6.81577 1.68782
C -3.90948 -8.30406 1.7722
C -4.53151 -8.65498 3.10619
C -5.13521 -7.30242 3.49792
O -5.5233 -6.7453 2.26531
H -2.3222 -6.4096 2.67054
H -3.39726 -6.87596 4.74037
H -1.86023 -2.35965 1.41235
H -4.15946 -6.45916 0.6377
H -4.47266 -8.83071 0.96898
H -2.82602 -8.53269 1.67745
H -5.35126 -9.38662 2.92801
H -3.83038 -9.05463 3.87023
H -5.94929 -7.45972 4.23986
H -3.23736 -2.66846 0.26696
H -1.55386 -3.13243 -0.19047
H -1.6285 -1.47154 6.37733
H -1.52264 -1.17901 8.14138
H -0.90321 0.0573 6.98256
H -3.38109 -2.0612 5.00959
H -5.09573 -2.45699 4.58974
H -3.68294 -3.27059 7.161
H -5.36428 -3.72437 6.76569
$end

$opt
CONSTRAINT
tors           1           2           3           4     -20.085
tors           3           4           5           6     -93.480
tors           4           5           6           7    -180.000
tors           5           6           7           8     -77.150
tors           6           7           8           9    -176.103
tors           7           8           9          10    -174.176
tors           8           9          10          11    -174.371
tors           9          10          11          12     +24.924
tors          11          12          13          14    +179.965
ENDCONSTRAINT
$end

$rem
JOBTYPE                   OPT
METHOD                    B3LYP
DFT_D                     d3_op
BASIS                     STO-3G
GEOM_OPT_MAX_CYCLES       100
GEOM_OPT_TOL_GRADIENT     300
GEOM_OPT_TOL_DISPLACEMENT 1200
GEOM_OPT_TOL_ENERGY       100
SYMMETRY                  False
THRESH                    12
SCF_CONVERGENCE           8
MAX_SUB_FILE_NUM          128
MEM_STATIC                400
MEM_TOTAL                 4000
$end
--------------------------------------------------------------

   15   -1510.1324717296      8.95E-09 Convergence criterion met
 Total energy in the final basis set = -1510.13247173
   13   -1510.2040356166      9.82E-09 Convergence criterion met
 Total energy in the final basis set = -1510.20403562
   14   -1510.2418838132      8.03E-09 Convergence criterion met
 Total energy in the final basis set = -1510.24188381
   14   -1510.2592314225      9.15E-09 Convergence criterion met
 Total energy in the final basis set = -1510.25923142
   14   -1510.2685424171      6.45E-09 Convergence criterion met
 Total energy in the final basis set = -1510.26854242
   13   -1510.2724961869      8.46E-09 Convergence criterion met
 Total energy in the final basis set = -1510.27249619
   13   -1510.2747175291      3.82E-09 Convergence criterion met
 Total energy in the final basis set = -1510.27471753
   12   -1510.2757628005      9.88E-09 Convergence criterion met
    9   -1510.2764935857      6.76E-09 Convergence criterion met
 Total energy in the final basis set = -1510.27649359
    9   -1510.2764947838      6.62E-09 Convergence criterion met
 Total energy in the final basis set = -1510.27649478
    9   -1510.2764960757      6.38E-09 Convergence criterion met
 Total energy in the final basis set = -1510.27649608
    9   -1510.2764978973      8.98E-09 Convergence criterion met
 Total energy in the final basis set = -1510.27649790
    9   -1510.2764990653      9.96E-09 Convergence criterion met
 Total energy in the final basis set = -1510.27649907
    9   -1510.2765015543      7.32E-09 Convergence criterion met
 Total energy in the final basis set = -1510.27650155

             Standard Nuclear Orientation (Angstroms)
    I     Atom           X                Y                Z
 ----------------------------------------------------------------
    1      O      -2.2976880902     1.2745210294     0.1650218219
    2      C      -3.3520175817     1.3743379601    -0.5020947962
    3      C      -4.5353465059     0.3557221054    -0.5536964696
    4      C      -4.1260608325    -1.0984137580    -0.0762936044
    5      C      -2.6638551727    -1.2078529606     0.5014568097
    6      O      -1.8043168264    -1.5976827705    -0.5854732960
    7      C      -0.4029179116    -1.7231744581    -0.1220436903
    8      C       0.2774353183    -0.3197891902     0.0459943961
    9      O       1.6878308544    -0.5865701233     0.4159833319
   10      C       2.3572564725     0.6410550959     0.7233416230
   11      C       3.8792310552     0.3534986336     0.9711408644
   12      C       4.4999738755    -0.9281922472     0.2965119823
   13      C       3.9216566029    -1.3154745363    -1.1170535466
   14      O       4.2888994162    -2.2956219040    -1.8041104020
   15      O      -3.6690586856     2.4931694528    -1.3311497051
   16      O       3.1283983200    -0.2415334790    -1.6391378458
   17      O       1.7958388240     1.7562162595     0.7738817123
   18      C       2.6841430622    -0.5449590224    -3.0170226513
   19      C       4.9040223829     1.4888156171     0.5330760741
   20      C       6.0633447138     1.4726826827     1.6017925137
   21      C       6.7063252650     0.0679571708     1.2949404228
   22      C       5.9495606503    -0.3453339362    -0.0316364550
   23      O       5.5868409227     0.9472569124    -0.6664758880
   24      H       3.9687867285     0.2226363820     2.0674555213
   25      H       4.5106096540    -1.8119010085     0.9576340084
   26      H       4.4437000564     2.4732283745     0.3204492610
   27      H       6.7754746268     2.2902450986     1.4047788905
   28      H       5.6936192316     1.5619394804     2.6357473891
   29      H       7.7902572191     0.1437665468     1.1154202737
   30      H       6.5342121727    -0.6591109364     2.1048784165
   31      H       6.5365043084    -0.9718556761    -0.7314455239
   32      O      -2.3078725052    -1.1566986248     1.6972800366
   33      C      -2.5778725021     3.4947929330    -1.2657230114
   34      C      -5.6964143609     0.7035813256     0.4814659638
   35      C      -6.9907021480    -0.0819138929     0.0328084014
   36      C      -6.6069364020    -1.5522664324     0.4425103512
   37      C      -5.1809439086    -1.3301569182     1.0851657857
   38      O      -5.2810924527     0.0071824988     1.7172877505
   39      H      -4.9311728319     0.3434368880    -1.5849545053
   40      H      -4.2301973640    -1.8285764613    -0.8979829199
   41      H      -1.6044765899     3.0568395247    -1.5665222297
   42      H      -5.8388700435     1.7859402629     0.6675333209
   43      H      -7.8685466692     0.2771755019     0.5932135202
   44      H      -7.1903958002     0.0239929209    -1.0455267416
   45      H      -7.3081874418    -1.9614821702     1.1868844714
   46      H      -6.5679736128    -2.2358565366    -0.4207030334
   47      H      -4.8726445588    -2.0841348820     1.8349604795
   48      H      -2.4730514242     3.9148847847    -0.2445819713
   49      H      -2.8594882995     4.2984083110    -1.9705562896
   50      H       1.5986044774    -0.7711801028    -3.0169530857
   51      H       3.2465960735    -1.4188873997    -3.4038316182
   52      H       2.8721070410     0.3478188090    -3.6434689394
   53      H       0.2273049203     0.2496066660    -0.9074017815
   54      H      -0.2489589495     0.2722976776     0.8248054797
   55      H       0.1230210832    -2.3089539136    -0.9026213062
   56      H      -0.3544248114    -2.2702806709     0.8438753888
 ----------------------------------------------------------------

    9   -1510.2765014663      8.17E-09 Convergence criterion met
 Total energy in the final basis set = -1510.27650147
 Final energy is   -1510.27650146634
 **  OPTIMIZATION CONVERGED  **

                    Orbital Energies (a.u.)
 --------------------------------------------------------------

 Alpha MOs
 -- Occupied --
-18.943 -18.930 -18.924 -18.924 -18.890 -18.884 -18.884 -18.868
-18.867 -18.866 -10.106 -10.096 -10.095 -10.094 -10.068 -10.067
-10.063 -10.060 -10.059 -10.058 -10.057 -10.055 -10.041 -10.037
-10.036 -10.033 -10.022 -10.021 -10.020 -10.018  -1.019  -1.010
 -1.003  -0.999  -0.972  -0.968  -0.943  -0.933  -0.930  -0.926
 -0.765  -0.761  -0.726  -0.722  -0.711  -0.702  -0.692  -0.666
 -0.656  -0.613  -0.596  -0.580  -0.547  -0.542  -0.537  -0.535
 -0.514  -0.507  -0.481  -0.476  -0.465  -0.456  -0.453  -0.439
 -0.435  -0.433  -0.424  -0.415  -0.412  -0.412  -0.405  -0.395
 -0.385  -0.378  -0.376  -0.367  -0.359  -0.358  -0.356  -0.344
 -0.341  -0.339  -0.336  -0.331  -0.328  -0.327  -0.316  -0.313
 -0.309  -0.306  -0.304  -0.301  -0.294  -0.289  -0.276  -0.275
 -0.268  -0.260  -0.247  -0.244  -0.240  -0.235  -0.232  -0.185
 -0.178  -0.171  -0.159  -0.159  -0.153  -0.146  -0.145  -0.144
 -0.142

          Ground-State Mulliken Net Atomic Charges

     Atom                 Charge (a.u.)
  ----------------------------------------
      1 O                    -0.208464
      2 C                     0.212322
      3 C                    -0.079475
      4 C                    -0.080592
      5 C                     0.214116
      6 O                    -0.178413
      7 C                    -0.048721
      8 C                    -0.050597
      9 O                    -0.176094
     10 C                     0.217554
     11 C                    -0.079716
     12 C                    -0.074094
     13 C                     0.216749
     14 O                    -0.220642
     15 O                    -0.168486
     16 O                    -0.166658
     17 O                    -0.215812
     18 C                    -0.134671
     19 C                     0.025104
     20 C                    -0.141002
     21 C                    -0.145809
     22 C                     0.023247
     23 O                    -0.191427
     24 H                     0.082085
     25 H                     0.087283
     26 H                     0.090062
     27 H                     0.077656
     28 H                     0.074027
     29 H                     0.078330
     30 H                     0.073811
     31 H                     0.084831
     32 O                    -0.211989
     33 C                    -0.128611
     34 C                     0.025994
     35 C                    -0.142918
     36 C                    -0.144713
     37 C                     0.026108
     38 O                    -0.185764
     39 H                     0.086486
     40 H                     0.085126
     41 H                     0.092649
     42 H                     0.084507
     43 H                     0.078695
     44 H                     0.074057
     45 H                     0.078545
     46 H                     0.073562
     47 H                     0.087584
     48 H                     0.092228
     49 H                     0.091940
     50 H                     0.080697
     51 H                     0.101834
     52 H                     0.088168
     53 H                     0.082741
     54 H                     0.106609
     55 H                     0.087165
     56 H                     0.092795
  ----------------------------------------
  Sum of atomic charges =    -0.000000

                    Cartesian Multipole Moments
 -----------------------------------------------------------------
    Charge (ESU x 10^10)
                 0.0000
    Dipole Moment (Debye)
         X      -1.3904      Y      -0.0142      Z      -1.3512
       Tot       1.9389
    Quadrupole Moments (Debye-Ang)
        XX    -143.7463     XY       2.0416     YY    -157.9806
        XZ      16.6700     YZ      -3.5967     ZZ    -161.1917

 Total job time:  68.38s(wall), 3252.94s(cpu)
        *  Thank you very much for using Q-Chem.  Have a nice day.  *
