 Q-Chem 5.0, Q-Chem, Inc., Pleasanton, CA (2017)
 Q-Chem 5.0.1 for Intel X86 EM64T Linux

User input:
--------------------------------------------------------------
$molecule
0  1
O -2.2976880902 1.2745210294 0.1650218219
C -3.3520175817 1.3743379601 -0.5020947962
C -4.5353465059 0.3557221054 -0.5536964696
C -4.1260608325 -1.098413758 -0.0762936044
C -2.6638551727 -1.2078529606 0.5014568097
O -1.8043168264 -1.5976827705 -0.585473296
C -0.4029179116 -1.7231744581 -0.1220436903
C 0.2774353183 -0.3197891902 0.0459943961
O 1.6878308544 -0.5865701233 0.4159833319
C 2.3572564725 0.6410550959 0.723341623
C 3.8792310552 0.3534986336 0.9711408644
C 4.4999738755 -0.9281922472 0.2965119823
C 3.9216566029 -1.3154745363 -1.1170535466
O 4.2888994162 -2.295621904 -1.804110402
O -3.6690586856 2.4931694528 -1.3311497051
O 3.12839832 -0.241533479 -1.6391378458
O 1.795838824 1.7562162595 0.7738817123
C 2.6841430622 -0.5449590224 -3.0170226513
C 4.9040223829 1.4888156171 0.5330760741
C 6.0633447138 1.4726826827 1.6017925137
C 6.706325265 0.0679571708 1.2949404228
C 5.9495606503 -0.3453339362 -0.031636455
O 5.5868409227 0.9472569124 -0.666475888
H 3.9687867285 0.222636382 2.0674555213
H 4.510609654 -1.8119010085 0.9576340084
H 4.4437000564 2.4732283745 0.320449261
H 6.7754746268 2.2902450986 1.4047788905
H 5.6936192316 1.5619394804 2.6357473891
H 7.7902572191 0.1437665468 1.1154202737
H 6.5342121727 -0.6591109364 2.1048784165
H 6.5365043084 -0.9718556761 -0.7314455239
O -2.3078725052 -1.1566986248 1.6972800366
C -2.5778725021 3.494792933 -1.2657230114
C -5.6964143609 0.7035813256 0.4814659638
C -6.990702148 -0.0819138929 0.0328084014
C -6.606936402 -1.5522664324 0.4425103512
C -5.1809439086 -1.3301569182 1.0851657857
O -5.2810924527 0.0071824988 1.7172877505
H -4.9311728319 0.343436888 -1.5849545053
H -4.230197364 -1.8285764613 -0.8979829199
H -1.6044765899 3.0568395247 -1.5665222297
H -5.8388700435 1.7859402629 0.6675333209
H -7.8685466692 0.2771755019 0.5932135202
H -7.1903958002 0.0239929209 -1.0455267416
H -7.3081874418 -1.9614821702 1.1868844714
H -6.5679736128 -2.2358565366 -0.4207030334
H -4.8726445588 -2.084134882 1.8349604795
H -2.4730514242 3.9148847847 -0.2445819713
H -2.8594882995 4.298408311 -1.9705562896
H 1.5986044774 -0.7711801028 -3.0169530857
H 3.2465960735 -1.4188873997 -3.4038316182
H 2.872107041 0.347818809 -3.6434689394
H 0.2273049203 0.249606666 -0.9074017815
H -0.2489589495 0.2722976776 0.8248054797
H 0.1230210832 -2.3089539136 -0.9026213062
H -0.3544248114 -2.2702806709 0.8438753888
$end

$rem
JOBTYPE                   OPT
METHOD                    B3LYP
DFT_D                     d3_op
BASIS                     STO-3G
GEOM_OPT_MAX_CYCLES       100
GEOM_OPT_TOL_GRADIENT     300
GEOM_OPT_TOL_DISPLACEMENT 1200
GEOM_OPT_TOL_ENERGY       100
SYMMETRY                  False
THRESH                    12
SCF_CONVERGENCE           8
MAX_SUB_FILE_NUM          128
MEM_STATIC                400
MEM_TOTAL                 4000
$end
--------------------------------------------------------------

   16   -1510.2764998827      5.76E-09 Convergence criterion met
 Total energy in the final basis set = -1510.27649988
   13   -1510.2793127906      4.71E-09 Convergence criterion met
 Total energy in the final basis set = -1510.27931279
   13   -1510.2815806917      4.06E-09 Convergence criterion met
 Total energy in the final basis set = -1510.28158069
   13   -1510.2836426328      2.82E-09 Convergence criterion met
 Total energy in the final basis set = -1510.28364263
   13   -1510.2851360168      4.35E-09 Convergence criterion met
 Total energy in the final basis set = -1510.28513602
   13   -1510.2866921105      3.53E-09 Convergence criterion met
 Total energy in the final basis set = -1510.28669211
   13   -1510.2879975677      4.01E-09 Convergence criterion met
 Total energy in the final basis set = -1510.28799757
   13   -1510.2891603981      7.10E-09 Convergence criterion met
   14   -1510.2924479268      4.50E-09 Convergence criterion met
 Total energy in the final basis set = -1510.29244793
   13   -1510.2932401728      6.98E-09 Convergence criterion met
 Total energy in the final basis set = -1510.29324017
   13   -1510.2929038689      3.91E-09 Convergence criterion met
 Total energy in the final basis set = -1510.29290387
   13   -1510.2934149368      3.49E-09 Convergence criterion met
 Total energy in the final basis set = -1510.29341494
   12   -1510.2934061472      5.00E-09 Convergence criterion met
 Total energy in the final basis set = -1510.29340615
   11   -1510.2934169324      6.48E-09 Convergence criterion met
 Total energy in the final basis set = -1510.29341693

             Standard Nuclear Orientation (Angstroms)
    I     Atom           X                Y                Z
 ----------------------------------------------------------------
    1      O      -2.2727803723     0.7810613588     1.1249214560
    2      C      -2.8214644729     1.0448168568     0.0277287795
    3      C      -4.0749213915     0.3304105941    -0.5837461109
    4      C      -4.1359578527    -1.2251445762    -0.2640527366
    5      C      -2.8523378447    -1.7687828796     0.4575197720
    6      O      -1.8065383387    -1.8109883005    -0.5290790276
    7      C      -0.4812779047    -1.9928583847     0.1149172471
    8      C       0.1331223811    -0.5587900984     0.2253493609
    9      O       1.5180687636    -0.6367288464     0.7455331639
   10      C       2.1253234954     0.6532820128     0.6476495919
   11      C       3.6176777278     0.5290002939     1.1094626297
   12      C       4.4193745599    -0.6071950822     0.3445925691
   13      C       3.5678319308    -1.3862299810    -0.7126220940
   14      O       3.3984728377    -2.6234425348    -0.7819906749
   15      O      -2.3976193200     2.0815110264    -0.8506770944
   16      O       3.0306806596    -0.4411721834    -1.6515562715
   17      O       1.5323292994     1.6885276686     0.2679651171
   18      C       2.2482497575    -1.1410145478    -2.6963951450
   19      C       4.4454182134     1.8181881178     0.7123164918
   20      C       5.7931425633     1.8141075186     1.5329825193
   21      C       6.5957857393     0.6826473823     0.7881304079
   22      C       5.5655360367     0.2637481570    -0.3356611221
   23      O       4.8815986732     1.5304165254    -0.6742603399
   24      H       3.6314850911     0.3501460451     2.2005171059
   25      H       4.8363195356    -1.3495201233     1.0474551454
   26      H       3.8557331944     2.7548935554     0.7459374709
   27      H       6.2989855643     2.7892818750     1.4514435281
   28      H       5.6290285155     1.5883001880     2.5987746422
   29      H       7.5212504598     1.0731807598     0.3357542976
   30      H       6.8533840764    -0.1616685277     1.4473643359
   31      H       6.0131212234    -0.1904383671    -1.2410145168
   32      O      -2.7330044988    -2.1542672504     1.6386959488
   33      C      -1.2754201830     2.8534672553    -0.2518038287
   34      C      -5.3983495311     0.8232621791     0.1529136643
   35      C      -6.6528568928     0.3229203021    -0.6685856405
   36      C      -6.6962029517    -1.1987299644    -0.2667508328
   37      C      -5.4225237291    -1.3012760877     0.6580643547
   38      O      -5.4195468655    -0.0054539656     1.3783680269
   39      H      -4.1071395705     0.5347171217    -1.6681461499
   40      H      -4.2697544387    -1.7981867829    -1.1996724202
   41      H      -0.3350726612     2.2602296181    -0.1585319550
   42      H      -5.4041326384     1.9003497102     0.4103223625
   43      H      -7.5615775034     0.8548308943    -0.3452514006
   44      H      -6.5221885816     0.4720983242    -1.7524565503
   45      H      -7.6069187371    -1.4383835745     0.3050835247
   46      H      -6.6380293086    -1.8715577514    -1.1373010970
   47      H      -5.4137885646    -2.1416761781     1.3789018318
   48      H      -1.5524385338     3.2384591937     0.7500105768
   49      H      -1.1055557386     3.7034350670    -0.9374445668
   50      H       1.2354858542    -0.6964580810    -2.7414929416
   51      H       2.1851382924    -2.2204117100    -2.4499545335
   52      H       2.7476828290    -1.0075696444    -3.6764180061
   53      H       0.1317365722    -0.0897109677    -0.7817665394
   54      H      -0.5226732506     0.0606626137     0.8832092158
   55      H       0.1303909681    -2.6458017274    -0.5405064687
   56      H      -0.6013853142    -2.4577213516     1.1162334016
 ----------------------------------------------------------------

    9   -1510.2934168772      9.78E-09 Convergence criterion met
 Total energy in the final basis set = -1510.29341688
 Final energy is   -1510.29341687717
 **  OPTIMIZATION CONVERGED  **

                    Orbital Energies (a.u.)
 --------------------------------------------------------------

 Alpha MOs
 -- Occupied --
-18.939 -18.939 -18.931 -18.926 -18.889 -18.888 -18.883 -18.878
-18.877 -18.875 -10.107 -10.103 -10.100 -10.099 -10.068 -10.062
-10.062 -10.060 -10.059 -10.058 -10.058 -10.050 -10.041 -10.040
-10.039 -10.038 -10.022 -10.022 -10.020 -10.020  -1.020  -1.015
 -1.008  -1.006  -0.971  -0.971  -0.943  -0.938  -0.935  -0.935
 -0.766  -0.764  -0.729  -0.724  -0.711  -0.707  -0.696  -0.659
 -0.658  -0.614  -0.598  -0.581  -0.548  -0.545  -0.539  -0.538
 -0.515  -0.510  -0.484  -0.477  -0.466  -0.461  -0.454  -0.444
 -0.437  -0.432  -0.428  -0.417  -0.413  -0.411  -0.406  -0.400
 -0.391  -0.382  -0.371  -0.369  -0.361  -0.358  -0.355  -0.352
 -0.346  -0.337  -0.335  -0.333  -0.332  -0.329  -0.326  -0.311
 -0.310  -0.307  -0.305  -0.300  -0.296  -0.292  -0.283  -0.278
 -0.271  -0.260  -0.249  -0.247  -0.246  -0.235  -0.235  -0.187
 -0.176  -0.173  -0.173  -0.161  -0.158  -0.154  -0.151  -0.145
 -0.145

          Ground-State Mulliken Net Atomic Charges

     Atom                 Charge (a.u.)
  ----------------------------------------
      1 O                    -0.217060
      2 C                     0.212089
      3 C                    -0.077964
      4 C                    -0.079148
      5 C                     0.214290
      6 O                    -0.180722
      7 C                    -0.053126
      8 C                    -0.061563
      9 O                    -0.173038
     10 C                     0.222036
     11 C                    -0.077635
     12 C                    -0.078336
     13 C                     0.213409
     14 O                    -0.215931
     15 O                    -0.167879
     16 O                    -0.170904
     17 O                    -0.213510
     18 C                    -0.136358
     19 C                     0.024737
     20 C                    -0.143981
     21 C                    -0.143821
     22 C                     0.026394
     23 O                    -0.185643
     24 H                     0.087012
     25 H                     0.086238
     26 H                     0.090435
     27 H                     0.078526
     28 H                     0.073681
     29 H                     0.078221
     30 H                     0.074087
     31 H                     0.083069
     32 O                    -0.204554
     33 C                    -0.142333
     34 C                     0.025645
     35 C                    -0.143959
     36 C                    -0.143561
     37 C                     0.024977
     38 O                    -0.186123
     39 H                     0.087509
     40 H                     0.085353
     41 H                     0.110293
     42 H                     0.083109
     43 H                     0.078629
     44 H                     0.074029
     45 H                     0.078582
     46 H                     0.073410
     47 H                     0.089916
     48 H                     0.085397
     49 H                     0.087589
     50 H                     0.084314
     51 H                     0.099915
     52 H                     0.085863
     53 H                     0.081438
     54 H                     0.105918
     55 H                     0.089105
     56 H                     0.101931
  ----------------------------------------
  Sum of atomic charges =     0.000000

                    Cartesian Multipole Moments
 -----------------------------------------------------------------
    Charge (ESU x 10^10)
                 0.0000
    Dipole Moment (Debye)
         X       0.2631      Y       0.4216      Z      -1.5614
       Tot       1.6386
    Quadrupole Moments (Debye-Ang)
        XX    -140.8165     XY       0.9642     YY    -163.1393
        XZ      16.4053     YZ       5.8188     ZZ    -161.7309

 Total job time:  76.74s(wall), 3655.82s(cpu)
        *  Thank you very much for using Q-Chem.  Have a nice day.  *
