 Q-Chem 5.0, Q-Chem, Inc., Pleasanton, CA (2017)
 Q-Chem 5.0.1 for Intel X86 EM64T Linux

User input:
--------------------------------------------------------------
$molecule
0  1
O -2.2626891799 0.4938023578 1.1098497548
C -3.1971749073 1.1789611375 0.6377931875
C -4.5018156721 0.6490853456 -0.0403316837
C -4.2624343162 -0.668728927 -0.8897105631
C -2.7846493223 -1.2045644337 -0.8288952021
O -2.0014579002 -0.4125462129 -1.7375539403
C -0.5896907349 -0.8632215535 -1.7329886656
C 0.1895067945 -0.292040574 -0.4967872085
O 1.5974404273 -0.7256321502 -0.6488279974
C 2.3015395757 -0.5784035306 0.5943766839
C 3.7873651398 -1.0169545637 0.3408219101
C 4.5245878864 -0.3093079906 -0.8657589747
C 3.9507135841 1.0871312761 -1.3114106342
O 4.3922873049 1.8001963872 -2.2388348289
O -3.2388252771 2.6078662774 0.6778345187
O 2.9640920542 1.5386379053 -0.3790484236
O 1.7789554981 -0.2432776817 1.677075507
C 2.4716116603 2.8829005312 -0.7483211141
C 4.7810262107 -0.726020683 1.5435689199
C 5.9202701858 -1.8140877993 1.4745705791
C 6.667442739 -1.3646698213 0.163729461
C 5.9271246079 -0.0078783824 -0.17183287
O 5.4966811109 0.5112829589 1.1484448927
H 3.755498212 -2.105013466 0.1426196655
H 4.6163274803 -0.9622017821 -1.7516331434
H 4.2810081885 -0.595429901 2.523166972
H 6.576641925 -1.7377478916 2.3562555207
H 5.5236355415 -2.8401092839 1.4130721913
H 7.73924926 -1.1865699167 0.3446634141
H 6.5655250358 -2.0975098784 -0.6528362679
H 6.5403973239 0.7435397009 -0.7065506399
O -2.3567940533 -2.2034184816 -0.2143201035
C -2.0226390494 3.1260759217 1.3484307817
C -5.5538379962 0.1221577693 1.0350351901
C -6.9555431873 -0.0136748067 0.3197793761
C -6.7292187425 -1.3092210552 -0.5456095791
C -5.243222161 -1.6777885774 -0.1612145679
O -5.1401876318 -1.2783060279 1.2629354396
H -4.9331252978 1.4598534056 -0.6529655138
H -4.5301082302 -0.5081951583 -1.9493812177
H -1.1026314217 2.8391197826 0.7991102983
H -5.5621968947 0.6880594434 1.9867995986
H -7.7532432697 -0.1605213243 1.0651651732
H -7.1989636351 0.8712369013 -0.2897067051
H -7.4161382339 -2.1176882234 -0.248925711
H -6.8454944542 -1.1251835567 -1.6256923593
H -4.9646445216 -2.7426218024 -0.280227489
H -1.9391463664 2.7518535333 2.3890744888
H -2.1229169302 4.2268940415 1.3550784379
H 1.7812088653 3.1850303343 0.060682925
H 1.9268070394 2.8641260496 -1.7147595206
H 3.3021192153 3.6138182908 -0.8243376696
H 0.1266851291 0.8182602413 -0.4856732577
H -0.2543335386 -0.6660897678 0.4504823807
H -0.1453794672 -0.4806821776 -2.673849467
H -0.5324981093 -1.9726154895 -1.7201374667
$end

$rem
JOBTYPE                   OPT
METHOD                    B3LYP
DFT_D                     d3_op
BASIS                     STO-3G
GEOM_OPT_MAX_CYCLES       100
GEOM_OPT_TOL_GRADIENT     300
GEOM_OPT_TOL_DISPLACEMENT 1200
GEOM_OPT_TOL_ENERGY       100
SYMMETRY                  False
THRESH                    12
SCF_CONVERGENCE           8
MAX_SUB_FILE_NUM          128
MEM_STATIC                400
MEM_TOTAL                 4000
$end
--------------------------------------------------------------

   16   -1510.2828077269      5.12E-09 Convergence criterion met
 Total energy in the final basis set = -1510.28280773
   13   -1510.2838522496      3.98E-09 Convergence criterion met
 Total energy in the final basis set = -1510.28385225
   13   -1510.2846487245      7.96E-09 Convergence criterion met
 Total energy in the final basis set = -1510.28464872
   13   -1510.2858301441      3.02E-09 Convergence criterion met
 Total energy in the final basis set = -1510.28583014
   13   -1510.2867345129      6.09E-09 Convergence criterion met
 Total energy in the final basis set = -1510.28673451
   13   -1510.2877806023      6.96E-09 Convergence criterion met
 Total energy in the final basis set = -1510.28778060
   14   -1510.2892114839      2.53E-09 Convergence criterion met
 Total energy in the final basis set = -1510.28921148
   15   -1510.2837315051      8.32E-09 Convergence criterion met
   13   -1510.2935868350      3.00E-09 Convergence criterion met
 Total energy in the final basis set = -1510.29358684
   12   -1510.2937216366      4.24E-09 Convergence criterion met
 Total energy in the final basis set = -1510.29372164
   11   -1510.2937282167      7.51E-09 Convergence criterion met
 Total energy in the final basis set = -1510.29372822
   11   -1510.2937302725      5.64E-09 Convergence criterion met
 Total energy in the final basis set = -1510.29373027
   10   -1510.2937285005      9.22E-09 Convergence criterion met
 Total energy in the final basis set = -1510.29372850
   11   -1510.2937312004      3.63E-09 Convergence criterion met
 Total energy in the final basis set = -1510.29373120

             Standard Nuclear Orientation (Angstroms)
    I     Atom           X                Y                Z
 ----------------------------------------------------------------
    1      O      -2.1829156258    -0.7289947519     1.1397451605
    2      C      -2.7756294466     0.3707613634     1.0181940600
    3      C      -4.0903432093     0.6360712777     0.2093809125
    4      C      -4.2221544198    -0.2605899974    -1.0965522837
    5      C      -2.9400965246    -1.1135804447    -1.4029750392
    6      O      -1.9406016290    -0.1998594035    -1.8884142477
    7      C      -0.6011161546    -0.8401592201    -1.8976903637
    8      C       0.1037485844    -0.3572060493    -0.5874006346
    9      O       1.4871774766    -0.8837608685    -0.5272880745
   10      C       2.1341635733    -0.3504686879     0.6314379496
   11      C       3.6117945943    -0.8736073213     0.6563488986
   12      C       4.4217036660    -0.5515782783    -0.6690687698
   13      C       3.5988935148     0.2456351801    -1.7368763312
   14      O       3.4591548745    -0.0288961653    -2.9478272834
   15      O      -2.3500249930     1.5806997464     1.6341170996
   16      O       3.0366183003     1.4053389261    -1.1059024704
   17      O       1.5749892200     0.3786694748     1.4819475451
   18      C       2.2582693655     2.1900689674    -2.0904718403
   19      C       4.4725115026    -0.1079420162     1.7422257819
   20      C       5.7867450825    -0.9381633667     2.0103782644
   21      C       6.6019126052    -0.6443875164     0.6954788755
   22      C       5.6122638829     0.3201972118    -0.0708575270
   23      O       4.9613651381     1.0869927848     1.0136925771
   24      H       3.5889298436    -1.9630808511     0.8437706779
   25      H       4.7907598967    -1.4724752848    -1.1531234662
   26      H       3.8946368738     0.1951024436     2.6369773568
   27      H       6.3083608863    -0.5551913280     2.9018088393
   28      H       5.5805253200    -2.0108932726     2.1539517132
   29      H       7.5487375465    -0.1255207665     0.9145079891
   30      H       6.8252737571    -1.5562254012     0.1183493271
   31      H       6.0906268043     1.0045264025    -0.7981331386
   32      O      -2.7920356302    -2.3499370593    -1.3154193127
   33      C      -1.1662476283     1.3412156238     2.5032966848
   34      C      -5.3523868677     0.1227176205     1.0336784496
   35      C      -6.6648968638     0.6675901236     0.3414754830
   36      C      -6.7756528453    -0.2880938595    -0.9036803679
   37      C      -5.4734445012    -1.1622017048    -0.7282612572
   38      O      -5.3690741090    -1.3272702893     0.7410108664
   39      H      -4.1565141811     1.7145452861    -0.0172469336
   40      H      -4.4244512150     0.3781407173    -1.9753266879
   41      H      -0.2607908930     1.0183167605     1.9368405159
   42      H      -5.2884606017     0.2998824333     2.1250013913
   43      H      -7.5290171737     0.5567526341     1.0154425562
   44      H      -6.5722446406     1.7279555969     0.0568972397
   45      H      -7.6749396045    -0.9218294199    -0.8461942470
   46      H      -6.7874028982     0.2568624450    -1.8610308289
   47      H      -5.4817768772    -2.1508381693    -1.2266484540
   48      H      -1.3930193584     0.5771988229     3.2736076208
   49      H      -0.9653281456     2.3097394967     2.9962201202
   50      H       1.7914070194     3.0156751078    -1.5225863434
   51      H       1.4706329856     1.5772109916    -2.5737398754
   52      H       2.9110311396     2.6090619881    -2.8834408730
   53      H       0.1166118343     0.7539041605    -0.5709566845
   54      H      -0.5066871477    -0.6997532287     0.2826297087
   55      H      -0.0629904120    -0.4947427015    -2.8038780490
   56      H      -0.7057170327    -1.9457679337    -1.9132991520
 ----------------------------------------------------------------

    9   -1510.2937306691      3.90E-09 Convergence criterion met
 Total energy in the final basis set = -1510.29373067
 Final energy is   -1510.29373066912
 **  OPTIMIZATION CONVERGED  **

                    Orbital Energies (a.u.)
 --------------------------------------------------------------

 Alpha MOs
 -- Occupied --
-18.940 -18.936 -18.934 -18.926 -18.889 -18.888 -18.881 -18.878
-18.878 -18.874 -10.105 -10.104 -10.099 -10.099 -10.067 -10.064
-10.063 -10.061 -10.059 -10.058 -10.058 -10.050 -10.040 -10.039
-10.038 -10.038 -10.022 -10.021 -10.020 -10.020  -1.019  -1.015
 -1.007  -1.006  -0.971  -0.970  -0.941  -0.938  -0.935  -0.935
 -0.765  -0.764  -0.728  -0.724  -0.711  -0.707  -0.696  -0.661
 -0.659  -0.614  -0.598  -0.581  -0.547  -0.545  -0.538  -0.538
 -0.515  -0.510  -0.484  -0.478  -0.465  -0.461  -0.454  -0.443
 -0.437  -0.432  -0.428  -0.416  -0.413  -0.410  -0.407  -0.399
 -0.391  -0.381  -0.371  -0.369  -0.361  -0.358  -0.356  -0.351
 -0.345  -0.337  -0.335  -0.333  -0.331  -0.329  -0.325  -0.311
 -0.310  -0.307  -0.305  -0.300  -0.294  -0.292  -0.283  -0.278
 -0.270  -0.260  -0.251  -0.247  -0.246  -0.235  -0.234  -0.186
 -0.177  -0.174  -0.173  -0.160  -0.158  -0.152  -0.150  -0.145
 -0.144

          Ground-State Mulliken Net Atomic Charges

     Atom                 Charge (a.u.)
  ----------------------------------------
      1 O                    -0.216646
      2 C                     0.212993
      3 C                    -0.077996
      4 C                    -0.079108
      5 C                     0.214563
      6 O                    -0.180967
      7 C                    -0.053253
      8 C                    -0.063001
      9 O                    -0.174416
     10 C                     0.222253
     11 C                    -0.077987
     12 C                    -0.078849
     13 C                     0.211775
     14 O                    -0.213824
     15 O                    -0.167601
     16 O                    -0.169018
     17 O                    -0.215219
     18 C                    -0.128363
     19 C                     0.024644
     20 C                    -0.143913
     21 C                    -0.143817
     22 C                     0.025977
     23 O                    -0.186188
     24 H                     0.086533
     25 H                     0.086046
     26 H                     0.090257
     27 H                     0.078360
     28 H                     0.073728
     29 H                     0.078134
     30 H                     0.074150
     31 H                     0.082609
     32 O                    -0.204830
     33 C                    -0.142192
     34 C                     0.025771
     35 C                    -0.143988
     36 C                    -0.143615
     37 C                     0.025042
     38 O                    -0.186293
     39 H                     0.087661
     40 H                     0.085359
     41 H                     0.111393
     42 H                     0.083205
     43 H                     0.078648
     44 H                     0.074133
     45 H                     0.078618
     46 H                     0.073468
     47 H                     0.089976
     48 H                     0.085079
     49 H                     0.087564
     50 H                     0.091816
     51 H                     0.087457
     52 H                     0.088118
     53 H                     0.080747
     54 H                     0.106265
     55 H                     0.086719
     56 H                     0.102023
  ----------------------------------------
  Sum of atomic charges =     0.000000

                    Cartesian Multipole Moments
 -----------------------------------------------------------------
    Charge (ESU x 10^10)
                 0.0000
    Dipole Moment (Debye)
         X       0.0193      Y       1.6243      Z      -0.1787
       Tot       1.6342
    Quadrupole Moments (Debye-Ang)
        XX    -140.8188     XY     -14.8140     YY    -164.7765
        XZ       6.3422     YZ      -3.8117     ZZ    -160.3092

 Total job time:  88.09s(wall), 4198.11s(cpu)
        *  Thank you very much for using Q-Chem.  Have a nice day.  *
