 Q-Chem 5.0, Q-Chem, Inc., Pleasanton, CA (2017)
 Q-Chem 5.0.1 for Intel X86 EM64T Linux

User input:
--------------------------------------------------------------
$molecule
0  1
O -3.94934 -3.66094 2.70899
C -3.26408 -4.56952 2.26188
C -3.36658 -6.02376 2.66595
C -3.69627 -6.32253 4.13765
C -4.06165 -5.13565 5.0013
O -2.92938 -4.4765 5.38719
C -3.19467 -3.33619 6.21093
C -3.62137 -2.15273 5.34868
O -3.7982 -0.98759 6.1697
C -4.4926 0.02794 5.59904
C -4.6115 1.23667 6.49653
C -3.28025 1.76514 7.0504
C -2.02955 1.25446 6.36362
O -0.8834 1.55959 6.65991
O -2.22265 -4.25409 1.44787
O -2.12916 0.67944 5.13242
O -4.89016 0.01396 4.43947
C -1.06908 0.29337 4.33448
C -5.1573 2.50925 5.81695
C -5.75983 3.43617 6.87219
C -4.5077 3.91298 7.58129
C -3.43047 3.2569 6.71057
O -4.0063 3.218 5.42561
H -5.29689 0.93716 7.32135
H -3.1643 1.54758 8.13487
H -5.90435 2.30369 5.01999
H -6.20861 4.29835 6.32836
H -6.53086 2.97738 7.52783
H -4.45918 5.02158 7.49984
H -4.41627 3.60333 8.64502
H -2.46876 3.80934 6.79752
O -5.18985 -4.89525 5.42098
C -1.92634 -2.97433 1.02718
C -4.58818 -6.66909 1.97683
C -4.40265 -8.183 1.8933
C -4.58624 -8.56548 3.34461
C -4.95124 -7.20194 3.94283
O -5.63231 -6.54262 2.90696
H -2.45556 -6.54937 2.29936
H -2.90295 -6.89729 4.66586
H -1.70865 -2.32468 1.90176
H -4.78748 -6.25664 0.96269
H -5.2614 -8.58559 1.3093
H -3.45254 -8.52287 1.42787
H -5.44652 -9.26773 3.41612
H -3.69291 -9.00636 3.8376
H -5.52102 -7.34771 4.88723
H -2.77815 -2.55468 0.4503
H -1.03137 -3.00433 0.37256
H -1.4627 -0.14124 3.39309
H -0.45904 -0.47449 4.85636
H -0.43757 1.17178 4.08249
H -2.87095 -1.95129 4.55477
H -4.59078 -2.42937 4.87891
H -2.23716 -3.04728 6.69397
H -3.9136 -3.5566 7.0329
$end

$opt
CONSTRAINT
tors           1           2           3           4     -35.542
tors           3           4           5           6     -79.558
tors           4           5           6           7    -180.000
tors           5           6           7           8     -79.805
tors           6           7           8           9    -176.103
tors           7           8           9          10    -163.944
tors           8           9          10          11    -178.409
tors           9          10          11          12     +53.038
tors          11          12          13          14    +179.965
ENDCONSTRAINT
$end

$rem
JOBTYPE                   OPT
METHOD                    B3LYP
DFT_D                     d3_op
BASIS                     STO-3G
GEOM_OPT_MAX_CYCLES       100
GEOM_OPT_TOL_GRADIENT     300
GEOM_OPT_TOL_DISPLACEMENT 1200
GEOM_OPT_TOL_ENERGY       100
SYMMETRY                  False
THRESH                    12
SCF_CONVERGENCE           8
MAX_SUB_FILE_NUM          128
MEM_STATIC                400
MEM_TOTAL                 4000
$end
--------------------------------------------------------------

   15   -1510.1501501008      8.42E-09 Convergence criterion met
 Total energy in the final basis set = -1510.15015010
   13   -1510.2212226162      7.69E-09 Convergence criterion met
 Total energy in the final basis set = -1510.22122262
   13   -1510.2595919595      9.75E-09 Convergence criterion met
 Total energy in the final basis set = -1510.25959196
   14   -1510.2760635726      6.80E-09 Convergence criterion met
 Total energy in the final basis set = -1510.27606357
   14   -1510.2804785775      5.29E-09 Convergence criterion met
 Total energy in the final basis set = -1510.28047858
    2   -1510.2804785775      1.95E-09 Convergence criterion met
 Total energy in the final basis set = -1510.28047858
   14   -1510.2811383139      4.71E-09 Convergence criterion met
 Total energy in the final basis set = -1510.28113831
   13   -1510.2821986153      3.22E-09 Convergence criterion met
   11   -1510.2827624461      6.51E-09 Convergence criterion met
 Total energy in the final basis set = -1510.28276245
   11   -1510.2828099694      7.08E-09 Convergence criterion met
 Total energy in the final basis set = -1510.28280997
   10   -1510.2828375854      8.16E-09 Convergence criterion met
 Total energy in the final basis set = -1510.28283759
   10   -1510.2828506682      9.84E-09 Convergence criterion met
 Total energy in the final basis set = -1510.28285067
   10   -1510.2828590752      8.66E-09 Convergence criterion met
 Total energy in the final basis set = -1510.28285908
    9   -1510.2828674407      8.18E-09 Convergence criterion met
 Total energy in the final basis set = -1510.28286744

             Standard Nuclear Orientation (Angstroms)
    I     Atom           X                Y                Z
 ----------------------------------------------------------------
    1      O      -2.2626891799     0.4938023578     1.1098497548
    2      C      -3.1971749073     1.1789611375     0.6377931875
    3      C      -4.5018156721     0.6490853456    -0.0403316837
    4      C      -4.2624343162    -0.6687289270    -0.8897105631
    5      C      -2.7846493223    -1.2045644337    -0.8288952021
    6      O      -2.0014579002    -0.4125462129    -1.7375539403
    7      C      -0.5896907349    -0.8632215535    -1.7329886656
    8      C       0.1895067945    -0.2920405740    -0.4967872085
    9      O       1.5974404273    -0.7256321502    -0.6488279974
   10      C       2.3015395757    -0.5784035306     0.5943766839
   11      C       3.7873651398    -1.0169545637     0.3408219101
   12      C       4.5245878864    -0.3093079906    -0.8657589747
   13      C       3.9507135841     1.0871312761    -1.3114106342
   14      O       4.3922873049     1.8001963872    -2.2388348289
   15      O      -3.2388252771     2.6078662774     0.6778345187
   16      O       2.9640920542     1.5386379053    -0.3790484236
   17      O       1.7789554981    -0.2432776817     1.6770755070
   18      C       2.4716116603     2.8829005312    -0.7483211141
   19      C       4.7810262107    -0.7260206830     1.5435689199
   20      C       5.9202701858    -1.8140877993     1.4745705791
   21      C       6.6674427390    -1.3646698213     0.1637294610
   22      C       5.9271246079    -0.0078783824    -0.1718328700
   23      O       5.4966811109     0.5112829589     1.1484448927
   24      H       3.7554982120    -2.1050134660     0.1426196655
   25      H       4.6163274803    -0.9622017821    -1.7516331434
   26      H       4.2810081885    -0.5954299010     2.5231669720
   27      H       6.5766419250    -1.7377478916     2.3562555207
   28      H       5.5236355415    -2.8401092839     1.4130721913
   29      H       7.7392492600    -1.1865699167     0.3446634141
   30      H       6.5655250358    -2.0975098784    -0.6528362679
   31      H       6.5403973239     0.7435397009    -0.7065506399
   32      O      -2.3567940533    -2.2034184816    -0.2143201035
   33      C      -2.0226390494     3.1260759217     1.3484307817
   34      C      -5.5538379962     0.1221577693     1.0350351901
   35      C      -6.9555431873    -0.0136748067     0.3197793761
   36      C      -6.7292187425    -1.3092210552    -0.5456095791
   37      C      -5.2432221610    -1.6777885774    -0.1612145679
   38      O      -5.1401876318    -1.2783060279     1.2629354396
   39      H      -4.9331252978     1.4598534056    -0.6529655138
   40      H      -4.5301082302    -0.5081951583    -1.9493812177
   41      H      -1.1026314217     2.8391197826     0.7991102983
   42      H      -5.5621968947     0.6880594434     1.9867995986
   43      H      -7.7532432697    -0.1605213243     1.0651651732
   44      H      -7.1989636351     0.8712369013    -0.2897067051
   45      H      -7.4161382339    -2.1176882234    -0.2489257110
   46      H      -6.8454944542    -1.1251835567    -1.6256923593
   47      H      -4.9646445216    -2.7426218024    -0.2802274890
   48      H      -1.9391463664     2.7518535333     2.3890744888
   49      H      -2.1229169302     4.2268940415     1.3550784379
   50      H       1.7812088653     3.1850303343     0.0606829250
   51      H       1.9268070394     2.8641260496    -1.7147595206
   52      H       3.3021192153     3.6138182908    -0.8243376696
   53      H       0.1266851291     0.8182602413    -0.4856732577
   54      H      -0.2543335386    -0.6660897678     0.4504823807
   55      H      -0.1453794672    -0.4806821776    -2.6738494670
   56      H      -0.5324981093    -1.9726154895    -1.7201374667
 ----------------------------------------------------------------

    9   -1510.2828673044      7.22E-09 Convergence criterion met
 Total energy in the final basis set = -1510.28286730
 Final energy is   -1510.28286730442
 **  OPTIMIZATION CONVERGED  **

                    Orbital Energies (a.u.)
 --------------------------------------------------------------

 Alpha MOs
 -- Occupied --
-18.941 -18.940 -18.927 -18.918 -18.889 -18.884 -18.880 -18.873
-18.873 -18.864 -10.103 -10.100 -10.097 -10.094 -10.068 -10.068
-10.068 -10.063 -10.059 -10.058 -10.058 -10.054 -10.040 -10.038
-10.037 -10.032 -10.022 -10.021 -10.019 -10.017  -1.017  -1.015
 -1.007  -0.998  -0.971  -0.967  -0.940  -0.937  -0.934  -0.926
 -0.764  -0.761  -0.726  -0.722  -0.710  -0.703  -0.692  -0.667
 -0.664  -0.613  -0.597  -0.580  -0.546  -0.542  -0.538  -0.535
 -0.513  -0.508  -0.484  -0.476  -0.464  -0.456  -0.453  -0.443
 -0.435  -0.432  -0.424  -0.416  -0.415  -0.412  -0.409  -0.395
 -0.387  -0.379  -0.375  -0.369  -0.360  -0.357  -0.354  -0.346
 -0.343  -0.340  -0.336  -0.331  -0.329  -0.327  -0.318  -0.311
 -0.307  -0.305  -0.304  -0.299  -0.296  -0.292  -0.281  -0.274
 -0.268  -0.259  -0.248  -0.244  -0.243  -0.235  -0.232  -0.182
 -0.181  -0.174  -0.164  -0.158  -0.154  -0.149  -0.145  -0.143
 -0.142

          Ground-State Mulliken Net Atomic Charges

     Atom                 Charge (a.u.)
  ----------------------------------------
      1 O                    -0.210246
      2 C                     0.210200
      3 C                    -0.079285
      4 C                    -0.079523
      5 C                     0.213714
      6 O                    -0.178539
      7 C                    -0.049118
      8 C                    -0.051948
      9 O                    -0.181999
     10 C                     0.222233
     11 C                    -0.080257
     12 C                    -0.075673
     13 C                     0.213980
     14 O                    -0.216238
     15 O                    -0.168359
     16 O                    -0.164981
     17 O                    -0.215316
     18 C                    -0.125734
     19 C                     0.023561
     20 C                    -0.142056
     21 C                    -0.145160
     22 C                     0.023917
     23 O                    -0.191850
     24 H                     0.082694
     25 H                     0.086775
     26 H                     0.091325
     27 H                     0.077809
     28 H                     0.073524
     29 H                     0.078095
     30 H                     0.073522
     31 H                     0.084595
     32 O                    -0.208556
     33 C                    -0.128245
     34 C                     0.026103
     35 C                    -0.143339
     36 C                    -0.144390
     37 C                     0.025557
     38 O                    -0.185516
     39 H                     0.086653
     40 H                     0.085080
     41 H                     0.087287
     42 H                     0.083454
     43 H                     0.078621
     44 H                     0.073970
     45 H                     0.078607
     46 H                     0.073386
     47 H                     0.089209
     48 H                     0.093050
     49 H                     0.091217
     50 H                     0.091163
     51 H                     0.087352
     52 H                     0.093977
     53 H                     0.077286
     54 H                     0.107557
     55 H                     0.087614
     56 H                     0.093239
  ----------------------------------------
  Sum of atomic charges =    -0.000000

                    Cartesian Multipole Moments
 -----------------------------------------------------------------
    Charge (ESU x 10^10)
                 0.0000
    Dipole Moment (Debye)
         X      -1.4301      Y       0.8766      Z      -1.9217
       Tot       2.5508
    Quadrupole Moments (Debye-Ang)
        XX    -143.8841     XY     -13.4587     YY    -154.9296
        XZ       5.4674     YZ       6.2443     ZZ    -165.0298

 Total job time:  47.71s(wall), 2268.28s(cpu)
        *  Thank you very much for using Q-Chem.  Have a nice day.  *
