 Q-Chem 5.0, Q-Chem, Inc., Pleasanton, CA (2017)
 Q-Chem 5.0.1 for Intel X86 EM64T Linux

User input:
--------------------------------------------------------------
$molecule
0  1
O -1.9276737838 0.6871742147 0.7501573075
C -2.9030409778 1.3038136342 0.2656963379
C -4.2356520644 0.7060848447 -0.2858619802
C -4.1575480434 -0.8298493893 -0.662451425
C -2.7658111518 -1.5161929573 -0.4003320045
O -1.9457397226 -1.3066673921 -1.563172779
C -0.5924241544 -1.8739704699 -1.3487560346
C 0.3112197639 -0.9204974203 -0.4919278891
O 1.6537040372 -1.5457166638 -0.4281612033
C 2.4217892179 -0.9890491433 0.657601989
C 3.9422896128 -1.0456877306 0.2594762674
C 4.4490435351 -0.0799790519 -0.8907723118
C 3.536267192 1.124979927 -1.3143677255
O 3.8091261445 1.9628005892 -2.2021756504
O -3.0038806209 2.7305495834 0.1984278258
O 2.4007238921 1.2336149274 -0.4555206122
O 1.9440103168 -0.5882785075 1.7390541623
C 1.6329867872 2.4599412569 -0.7667519966
C 4.899263667 -0.6360068695 1.4591969988
C 6.2798260638 -1.3664983532 1.2438098801
C 6.8384025534 -0.5741220789 0.0039339311
C 5.7325704631 0.5409719514 -0.1770201979
O 5.232587331 0.783768636 1.1950358364
H 4.1467997807 -2.0872474429 -0.0514817143
H 4.7183552563 -0.643186324 -1.8024873674
H 4.4366255398 -0.7451378694 2.4593944717
H 6.9253586842 -1.236580445 2.1272924637
H 6.1601409239 -2.4437616161 1.0466242954
H 7.8159866968 -0.1150043056 0.2197967273
H 6.9358827634 -1.2051682008 -0.8941088373
H 6.086983205 1.4830811441 -0.6392461599
O -2.4423483356 -2.2293967009 0.5722884037
C -1.8167004116 3.3667714122 0.8153124364
C -5.3590190092 0.679921896 0.8472508044
C -6.7602290584 0.4835703463 0.1459741801
C -6.6878150432 -1.038313478 -0.2510298027
C -5.2622967861 -1.4310409415 0.3038138102
O -5.1252966358 -0.609589534 1.5295462344
H -4.5602549615 1.319991083 -1.1446009002
H -4.4129330231 -0.9775472399 -1.7268589184
H -1.250671761 3.9166011481 0.0373875021
H -5.3020326619 1.521510491 1.5646960216
H -7.5754598711 0.6757833208 0.8615891111
H -6.8882361166 1.1479728326 -0.7233164367
H -7.4727982254 -1.6247865951 0.252302639
H -6.768939282 -1.1987900788 -1.3380281479
H -5.1188080817 -2.5023085536 0.5432858771
H -1.1735177784 2.5871556323 1.272281422
H -2.1614026389 4.0810760386 1.5879421399
H 0.8241592978 2.5039345313 -0.015841805
H 1.1947963534 2.4210432816 -1.7853715661
H 2.2680055555 3.3654884634 -0.6896854512
H 0.3880045103 0.0730295454 -0.9808737642
H -0.1258893908 -0.7793268764 0.519707856
H -0.1554540495 -2.0046203364 -2.3591878352
H -0.6609625956 -2.8618502055 -0.8450954351
$end

$rem
JOBTYPE                   OPT
METHOD                    B3LYP
DFT_D                     d3_op
BASIS                     STO-3G
GEOM_OPT_MAX_CYCLES       100
GEOM_OPT_TOL_GRADIENT     300
GEOM_OPT_TOL_DISPLACEMENT 1200
GEOM_OPT_TOL_ENERGY       100
SYMMETRY                  False
THRESH                    12
SCF_CONVERGENCE           8
MAX_SUB_FILE_NUM          128
MEM_STATIC                400
MEM_TOTAL                 4000
$end
--------------------------------------------------------------

   16   -1510.2785685141      5.16E-09 Convergence criterion met
 Total energy in the final basis set = -1510.27856851
   14   -1510.2813310274      5.75E-09 Convergence criterion met
 Total energy in the final basis set = -1510.28133103
   13   -1510.2836895073      8.77E-09 Convergence criterion met
 Total energy in the final basis set = -1510.28368951
   13   -1510.2843371157      6.87E-09 Convergence criterion met
 Total energy in the final basis set = -1510.28433712
   13   -1510.2852435438      4.45E-09 Convergence criterion met
 Total energy in the final basis set = -1510.28524354
   13   -1510.2862037801      4.47E-09 Convergence criterion met
 Total energy in the final basis set = -1510.28620378
   13   -1510.2873686246      5.08E-09 Convergence criterion met
 Total energy in the final basis set = -1510.28736862
   13   -1510.2885354974      8.06E-09 Convergence criterion met
   11   -1510.2937062892      6.64E-09 Convergence criterion met
 Total energy in the final basis set = -1510.29370629
   12   -1510.2937014736      5.30E-09 Convergence criterion met
 Total energy in the final basis set = -1510.29370147
   11   -1510.2937172807      7.20E-09 Convergence criterion met
 Total energy in the final basis set = -1510.29371728
   12   -1510.2937157889      3.70E-09 Convergence criterion met
 Total energy in the final basis set = -1510.29371579
   11   -1510.2937224234      8.73E-09 Convergence criterion met
 Total energy in the final basis set = -1510.29372242
   11   -1510.2937239885      5.23E-09 Convergence criterion met
 Total energy in the final basis set = -1510.29372399

             Standard Nuclear Orientation (Angstroms)
    I     Atom           X                Y                Z
 ----------------------------------------------------------------
    1      O      -2.0762091475    -0.5262916588     1.1524361420
    2      C      -2.7492038985     0.5123852471     0.9411452520
    3      C      -4.1092101498     0.5918155841     0.1673951590
    4      C      -4.2310640373    -0.4905588407    -0.9895788697
    5      C      -2.9049199492    -1.2892210181    -1.2512497652
    6      O      -1.9953281557    -0.3847965071    -1.9027020532
    7      C      -0.6194089498    -0.9425748524    -1.9150613171
    8      C       0.1185323067    -0.2727887725    -0.7094594775
    9      O       1.5067032613    -0.7817909796    -0.6128784788
   10      C       2.1388004285    -0.1772424776     0.5188726634
   11      C       3.6140866553    -0.7027829176     0.5985423595
   12      C       4.4546007620    -0.4435144657    -0.7213904381
   13      C       3.6580587988     0.2981530204    -1.8468552123
   14      O       3.5562581111    -0.0331324110    -3.0473759012
   15      O      -2.3840770848     1.8087523694     1.3974552091
   16      O       3.0662243619     1.4790319165    -1.2862742634
   17      O       1.5677264336     0.6020011029     1.3151633744
   18      C       2.2986970099     2.2018457080    -2.3254761802
   19      C       4.4534556620     0.1077190141     1.6675835880
   20      C       5.7595388982    -0.7120423654     1.9998370250
   21      C       6.6040555830    -0.4760772848     0.6916138238
   22      C       5.6326347999     0.4550971319    -0.1374877426
   23      O       4.9598995714     1.2690960571     0.8982699789
   24      H       3.5820205981    -1.7827106161     0.8336273594
   25      H       4.8351792863    -1.3865550621    -1.1509567510
   26      H       3.8579733853     0.4501809162     2.5361270160
   27      H       6.2629210133    -0.2933511312     2.8857184745
   28      H       5.5471195028    -1.7774559524     2.1834480913
   29      H       7.5468129953     0.0509873931     0.9087061299
   30      H       6.8380561145    -1.4120326788     0.1592256705
   31      H       6.1269779339     1.1067519562    -0.8839162993
   32      O      -2.6684115432    -2.4932479043    -1.0215315819
   33      C      -1.1520331129     1.7473331491     2.2298512727
   34      C      -5.3014145701     0.1271635405     1.1164367670
   35      C      -6.6753612348     0.4689658096     0.4136325863
   36      C      -6.7624846601    -0.6753850951    -0.6647756379
   37      C      -5.3892784828    -1.4147868632    -0.4272622488
   38      O      -5.2182051109    -1.3475638896     1.0434267553
   39      H      -4.2526354432     1.6213823669    -0.2045741122
   40      H      -4.5256662017    -0.0015132794    -1.9356744617
   41      H      -0.9443094435     2.7928423271     2.5215604451
   42      H      -5.2110090102     0.4720367075     2.1649684624
   43      H      -7.5032223330     0.4092700997     1.1377331534
   44      H      -6.6696184566     1.4756400331    -0.0341702498
   45      H      -7.6054775093    -1.3550293790    -0.4618017193
   46      H      -6.8584839386    -0.2886446268    -1.6917870838
   47      H      -5.3369510984    -2.4656391405    -0.7723052995
   48      H      -0.2705779742     1.3292663601     1.6890745894
   49      H      -1.3254148661     1.1412467131     3.1419975956
   50      H       1.7958362064     3.0389095956    -1.8070915818
   51      H       1.5412688777     1.5482833436    -2.8036991253
   52      H       2.9643205781     2.6036126522    -3.1167786232
   53      H       0.1226965274     0.8298843235    -0.8474450595
   54      H      -0.4639526245    -0.4965499300     0.2170296259
   55      H      -0.1524393082    -0.6767502745    -2.8850720486
   56      H      -0.6540156503    -2.0464680974    -1.7961755025
 ----------------------------------------------------------------

    9   -1510.2937246450      8.71E-09 Convergence criterion met
 Total energy in the final basis set = -1510.29372465
 Final energy is   -1510.29372464504
 **  OPTIMIZATION CONVERGED  **

                    Orbital Energies (a.u.)
 --------------------------------------------------------------

 Alpha MOs
 -- Occupied --
-18.941 -18.934 -18.934 -18.925 -18.889 -18.888 -18.879 -18.879
-18.877 -18.874 -10.104 -10.104 -10.099 -10.098 -10.066 -10.064
-10.063 -10.061 -10.058 -10.058 -10.057 -10.051 -10.041 -10.039
-10.037 -10.037 -10.022 -10.021 -10.020 -10.020  -1.018  -1.016
 -1.007  -1.005  -0.971  -0.970  -0.940  -0.939  -0.935  -0.934
 -0.765  -0.763  -0.728  -0.723  -0.711  -0.706  -0.695  -0.661
 -0.659  -0.613  -0.598  -0.580  -0.547  -0.545  -0.538  -0.538
 -0.514  -0.510  -0.483  -0.477  -0.465  -0.460  -0.454  -0.443
 -0.437  -0.431  -0.428  -0.416  -0.413  -0.410  -0.407  -0.399
 -0.391  -0.380  -0.371  -0.368  -0.360  -0.358  -0.357  -0.351
 -0.345  -0.337  -0.335  -0.333  -0.331  -0.329  -0.324  -0.311
 -0.309  -0.306  -0.305  -0.299  -0.293  -0.292  -0.283  -0.278
 -0.270  -0.260  -0.251  -0.247  -0.245  -0.235  -0.234  -0.186
 -0.177  -0.173  -0.173  -0.159  -0.158  -0.152  -0.149  -0.145
 -0.144

          Ground-State Mulliken Net Atomic Charges

     Atom                 Charge (a.u.)
  ----------------------------------------
      1 O                    -0.215875
      2 C                     0.214137
      3 C                    -0.077662
      4 C                    -0.079364
      5 C                     0.214773
      6 O                    -0.181121
      7 C                    -0.053354
      8 C                    -0.063588
      9 O                    -0.174994
     10 C                     0.222079
     11 C                    -0.077985
     12 C                    -0.078943
     13 C                     0.211736
     14 O                    -0.213490
     15 O                    -0.167171
     16 O                    -0.168645
     17 O                    -0.215667
     18 C                    -0.128318
     19 C                     0.024715
     20 C                    -0.143955
     21 C                    -0.143764
     22 C                     0.025916
     23 O                    -0.186336
     24 H                     0.086499
     25 H                     0.086005
     26 H                     0.090224
     27 H                     0.078300
     28 H                     0.073738
     29 H                     0.078046
     30 H                     0.074112
     31 H                     0.082569
     32 O                    -0.205705
     33 C                    -0.141344
     34 C                     0.025723
     35 C                    -0.144032
     36 C                    -0.143502
     37 C                     0.024982
     38 O                    -0.186704
     39 H                     0.087671
     40 H                     0.085314
     41 H                     0.087904
     42 H                     0.083218
     43 H                     0.078675
     44 H                     0.074054
     45 H                     0.078604
     46 H                     0.073471
     47 H                     0.090211
     48 H                     0.112191
     49 H                     0.084860
     50 H                     0.091621
     51 H                     0.087992
     52 H                     0.088143
     53 H                     0.078909
     54 H                     0.106943
     55 H                     0.086345
     56 H                     0.101840
  ----------------------------------------
  Sum of atomic charges =     0.000000

                    Cartesian Multipole Moments
 -----------------------------------------------------------------
    Charge (ESU x 10^10)
                 0.0000
    Dipole Moment (Debye)
         X      -0.2320      Y       1.5249      Z      -0.4034
       Tot       1.5943
    Quadrupole Moments (Debye-Ang)
        XX    -139.7096     XY     -12.7754     YY    -164.8647
        XZ       7.4166     YZ      -2.6076     ZZ    -160.6124

 Total job time:  101.31s(wall), 4829.58s(cpu)
        *  Thank you very much for using Q-Chem.  Have a nice day.  *
