 Q-Chem 5.0, Q-Chem, Inc., Pleasanton, CA (2017)
 Q-Chem 5.0.1 for Intel X86 EM64T Linux

User input:
--------------------------------------------------------------
$molecule
0  1
O -3.94934 -3.66094 2.70899
C -3.26408 -4.56952 2.26188
C -3.36658 -6.02376 2.66595
C -4.0537 -6.33394 4.00591
C -4.71917 -5.17088 4.70772
O -3.80769 -4.51504 5.48523
C -4.34865 -3.35907 6.13355
C -4.40095 -2.18645 5.15971
O -4.85865 -1.00645 5.83867
C -5.31326 -0.01168 5.03685
C -5.1022 1.36239 5.62679
C -3.63866 1.82378 5.68559
C -2.66098 1.02922 4.84327
O -1.46031 1.24354 4.75946
O -2.49393 -4.34489 1.16447
O -3.15864 0.30805 3.8051
O -5.86591 -0.2082 3.96074
C -2.41909 -0.25501 2.78783
C -5.70729 2.51385 4.78899
C -5.95857 3.72458 5.68731
C -4.53769 4.17458 5.95967
C -3.76768 3.21489 5.04546
O -4.65129 2.968 3.97899
H -5.60305 1.36577 6.6214
H -3.24315 1.8295 6.72471
H -6.64531 2.23522 4.26132
H -6.45881 4.4938 5.05577
H -6.57836 3.53768 6.59048
H -4.43096 5.2275 5.61648
H -4.20317 4.07951 7.01559
H -2.78006 3.64642 4.76934
O -5.92974 -4.97052 4.7309
C -2.26155 -3.11634 0.59037
C -4.23426 -6.82015 1.68077
C -3.89413 -8.30706 1.76946
C -4.52528 -8.65859 3.0988
C -5.13846 -7.30819 3.48308
O -5.51781 -6.75378 2.24677
H -2.32135 -6.40714 2.6799
H -3.41372 -6.86874 4.74374
H -1.70139 -2.47532 1.2973
H -4.14172 -6.46555 0.63065
H -4.44954 -8.83618 0.96243
H -2.8093 -8.53257 1.68315
H -5.33955 -9.39502 2.91533
H -3.82832 -9.05267 3.86955
H -5.95856 -7.46921 4.21745
H -3.21983 -2.63774 0.29608
H -1.63724 -3.25381 -0.31606
H -3.11361 -0.7709 2.09594
H -1.69491 -0.98769 3.20339
H -1.87666 0.53372 2.22457
H -3.39941 -2.01598 4.71829
H -5.1362 -2.46908 4.37867
H -3.63996 -3.07088 6.93873
H -5.3269 -3.55837 6.62776
$end

$opt
CONSTRAINT
tors           1           2           3           4     -19.522
tors           3           4           5           6     -86.564
tors           4           5           6           7    +177.151
tors           5           6           7           8     -79.805
tors           6           7           8           9    -176.103
tors           7           8           9          10    -161.826
tors           8           9          10          11    -150.005
tors           9          10          11          12     +69.978
tors          11          12          13          14    +179.965
ENDCONSTRAINT
$end

$rem
JOBTYPE                   OPT
METHOD                    B3LYP
DFT_D                     d3_op
BASIS                     STO-3G
GEOM_OPT_MAX_CYCLES       100
GEOM_OPT_TOL_GRADIENT     300
GEOM_OPT_TOL_DISPLACEMENT 1200
GEOM_OPT_TOL_ENERGY       100
SYMMETRY                  False
THRESH                    12
SCF_CONVERGENCE           8
MAX_SUB_FILE_NUM          128
MEM_STATIC                400
MEM_TOTAL                 4000
$end
--------------------------------------------------------------

   16   -1510.1441674513      1.72E-09 Convergence criterion met
 Total energy in the final basis set = -1510.14416745
   13   -1510.2151334687      8.88E-09 Convergence criterion met
 Total energy in the final basis set = -1510.21513347
   14   -1510.2485087597      7.64E-09 Convergence criterion met
 Total energy in the final basis set = -1510.24850876
   15   -1510.2681417845      3.36E-09 Convergence criterion met
 Total energy in the final basis set = -1510.26814178
   13   -1510.2742235784      6.08E-09 Convergence criterion met
 Total energy in the final basis set = -1510.27422358
   13   -1510.2766664809      3.99E-09 Convergence criterion met
 Total energy in the final basis set = -1510.27666648
   13   -1510.2777544575      3.15E-09 Convergence criterion met
 Total energy in the final basis set = -1510.27775446
   12   -1510.2779687815      4.01E-09 Convergence criterion met
   12   -1510.2782522920      6.70E-09 Convergence criterion met
 Total energy in the final basis set = -1510.27825229
   13   -1510.2773849194      9.09E-09 Convergence criterion met
 Total energy in the final basis set = -1510.27738492
   13   -1510.2784769962      4.78E-09 Convergence criterion met
 Total energy in the final basis set = -1510.27847700
   11   -1510.2785093875      7.10E-09 Convergence criterion met
 Total energy in the final basis set = -1510.27850939
    9   -1510.2785218292      8.52E-09 Convergence criterion met
 Total energy in the final basis set = -1510.27852183
   11   -1510.2785309080      4.33E-09 Convergence criterion met
 Total energy in the final basis set = -1510.27853091

             Standard Nuclear Orientation (Angstroms)
    I     Atom           X                Y                Z
 ----------------------------------------------------------------
    1      O      -1.9276737838     0.6871742147     0.7501573075
    2      C      -2.9030409778     1.3038136342     0.2656963379
    3      C      -4.2356520644     0.7060848447    -0.2858619802
    4      C      -4.1575480434    -0.8298493893    -0.6624514250
    5      C      -2.7658111518    -1.5161929573    -0.4003320045
    6      O      -1.9457397226    -1.3066673921    -1.5631727790
    7      C      -0.5924241544    -1.8739704699    -1.3487560346
    8      C       0.3112197639    -0.9204974203    -0.4919278891
    9      O       1.6537040372    -1.5457166638    -0.4281612033
   10      C       2.4217892179    -0.9890491433     0.6576019890
   11      C       3.9422896128    -1.0456877306     0.2594762674
   12      C       4.4490435351    -0.0799790519    -0.8907723118
   13      C       3.5362671920     1.1249799270    -1.3143677255
   14      O       3.8091261445     1.9628005892    -2.2021756504
   15      O      -3.0038806209     2.7305495834     0.1984278258
   16      O       2.4007238921     1.2336149274    -0.4555206122
   17      O       1.9440103168    -0.5882785075     1.7390541623
   18      C       1.6329867872     2.4599412569    -0.7667519966
   19      C       4.8992636670    -0.6360068695     1.4591969988
   20      C       6.2798260638    -1.3664983532     1.2438098801
   21      C       6.8384025534    -0.5741220789     0.0039339311
   22      C       5.7325704631     0.5409719514    -0.1770201979
   23      O       5.2325873310     0.7837686360     1.1950358364
   24      H       4.1467997807    -2.0872474429    -0.0514817143
   25      H       4.7183552563    -0.6431863240    -1.8024873674
   26      H       4.4366255398    -0.7451378694     2.4593944717
   27      H       6.9253586842    -1.2365804450     2.1272924637
   28      H       6.1601409239    -2.4437616161     1.0466242954
   29      H       7.8159866968    -0.1150043056     0.2197967273
   30      H       6.9358827634    -1.2051682008    -0.8941088373
   31      H       6.0869832050     1.4830811441    -0.6392461599
   32      O      -2.4423483356    -2.2293967009     0.5722884037
   33      C      -1.8167004116     3.3667714122     0.8153124364
   34      C      -5.3590190092     0.6799218960     0.8472508044
   35      C      -6.7602290584     0.4835703463     0.1459741801
   36      C      -6.6878150432    -1.0383134780    -0.2510298027
   37      C      -5.2622967861    -1.4310409415     0.3038138102
   38      O      -5.1252966358    -0.6095895340     1.5295462344
   39      H      -4.5602549615     1.3199910830    -1.1446009002
   40      H      -4.4129330231    -0.9775472399    -1.7268589184
   41      H      -1.2506717610     3.9166011481     0.0373875021
   42      H      -5.3020326619     1.5215104910     1.5646960216
   43      H      -7.5754598711     0.6757833208     0.8615891111
   44      H      -6.8882361166     1.1479728326    -0.7233164367
   45      H      -7.4727982254    -1.6247865951     0.2523026390
   46      H      -6.7689392820    -1.1987900788    -1.3380281479
   47      H      -5.1188080817    -2.5023085536     0.5432858771
   48      H      -1.1735177784     2.5871556323     1.2722814220
   49      H      -2.1614026389     4.0810760386     1.5879421399
   50      H       0.8241592978     2.5039345313    -0.0158418050
   51      H       1.1947963534     2.4210432816    -1.7853715661
   52      H       2.2680055555     3.3654884634    -0.6896854512
   53      H       0.3880045103     0.0730295454    -0.9808737642
   54      H      -0.1258893908    -0.7793268764     0.5197078560
   55      H      -0.1554540495    -2.0046203364    -2.3591878352
   56      H      -0.6609625956    -2.8618502055    -0.8450954351
 ----------------------------------------------------------------

    9   -1510.2785304453      2.68E-09 Convergence criterion met
 Total energy in the final basis set = -1510.27853045
 Final energy is   -1510.27853044531
 **  OPTIMIZATION CONVERGED  **

                    Orbital Energies (a.u.)
 --------------------------------------------------------------

 Alpha MOs
 -- Occupied --
-18.943 -18.942 -18.925 -18.911 -18.890 -18.888 -18.884 -18.874
-18.870 -18.870 -10.108 -10.102 -10.095 -10.094 -10.069 -10.066
-10.065 -10.064 -10.059 -10.059 -10.056 -10.054 -10.043 -10.039
-10.037 -10.032 -10.023 -10.021 -10.019 -10.017  -1.020  -1.017
 -1.004  -0.995  -0.973  -0.968  -0.945  -0.939  -0.932  -0.925
 -0.765  -0.760  -0.726  -0.722  -0.712  -0.704  -0.691  -0.669
 -0.665  -0.613  -0.598  -0.579  -0.546  -0.542  -0.538  -0.535
 -0.514  -0.510  -0.484  -0.475  -0.464  -0.456  -0.454  -0.443
 -0.436  -0.433  -0.424  -0.419  -0.418  -0.415  -0.409  -0.395
 -0.387  -0.378  -0.376  -0.369  -0.363  -0.357  -0.353  -0.345
 -0.344  -0.342  -0.335  -0.330  -0.329  -0.326  -0.321  -0.314
 -0.308  -0.307  -0.306  -0.303  -0.297  -0.291  -0.278  -0.275
 -0.269  -0.257  -0.250  -0.246  -0.236  -0.234  -0.232  -0.183
 -0.182  -0.173  -0.165  -0.161  -0.156  -0.148  -0.147  -0.143
 -0.142

          Ground-State Mulliken Net Atomic Charges

     Atom                 Charge (a.u.)
  ----------------------------------------
      1 O                    -0.210055
      2 C                     0.213641
      3 C                    -0.078351
      4 C                    -0.080549
      5 C                     0.213341
      6 O                    -0.177779
      7 C                    -0.049679
      8 C                    -0.053498
      9 O                    -0.186511
     10 C                     0.221960
     11 C                    -0.080771
     12 C                    -0.076945
     13 C                     0.211375
     14 O                    -0.216383
     15 O                    -0.170430
     16 O                    -0.166252
     17 O                    -0.206079
     18 C                    -0.127519
     19 C                     0.023606
     20 C                    -0.142905
     21 C                    -0.144860
     22 C                     0.024730
     23 O                    -0.191278
     24 H                     0.082850
     25 H                     0.086346
     26 H                     0.090556
     27 H                     0.077719
     28 H                     0.073295
     29 H                     0.078229
     30 H                     0.073536
     31 H                     0.084718
     32 O                    -0.208688
     33 C                    -0.136839
     34 C                     0.026417
     35 C                    -0.143336
     36 C                    -0.144359
     37 C                     0.025966
     38 O                    -0.186160
     39 H                     0.087800
     40 H                     0.084882
     41 H                     0.084335
     42 H                     0.084553
     43 H                     0.078916
     44 H                     0.074184
     45 H                     0.078747
     46 H                     0.073581
     47 H                     0.088978
     48 H                     0.102945
     49 H                     0.089406
     50 H                     0.093994
     51 H                     0.087599
     52 H                     0.093094
     53 H                     0.079620
     54 H                     0.107901
     55 H                     0.086737
     56 H                     0.093667
  ----------------------------------------
  Sum of atomic charges =    -0.000000

                    Cartesian Multipole Moments
 -----------------------------------------------------------------
    Charge (ESU x 10^10)
                 0.0000
    Dipole Moment (Debye)
         X      -1.0938      Y       0.7693      Z      -2.5473
       Tot       2.8770
    Quadrupole Moments (Debye-Ang)
        XX    -140.3617     XY     -11.5851     YY    -154.9407
        XZ       5.5702     YZ       5.9589     ZZ    -167.9058

 Total job time:  89.13s(wall), 4249.19s(cpu)
        *  Thank you very much for using Q-Chem.  Have a nice day.  *
