 Q-Chem 5.0, Q-Chem, Inc., Pleasanton, CA (2017)
 Q-Chem 5.0.1 for Intel X86 EM64T Linux

User input:
--------------------------------------------------------------
$molecule
0  1
O -2.2416759213 0.8666651903 0.9236539108
C -3.2516810205 1.3142715248 0.3350179673
C -4.5302769816 0.5210441535 -0.0934933998
C -4.1833482616 -0.8439489535 -0.829926023
C -2.6441630276 -1.1714589438 -0.7771398809
O -2.0294835398 -0.3735244827 -1.7942736946
C -0.5573630138 -0.5394989909 -1.9084138865
C 0.2113023602 -0.5689461743 -0.5398941156
O 1.6500145947 -0.6826344263 -0.8735898892
C 2.3900959754 -1.0887462622 0.2880653913
C 3.9161038266 -1.071435542 -0.0777860884
C 4.4481114339 0.2241332179 -0.8098312529
C 3.6217364376 1.5446113449 -0.5773312366
O 3.8810903652 2.6661454909 -1.0664013729
O -3.4107556789 2.685992668 -0.0417072964
O 2.6460571448 1.3463080818 0.4505413745
O 1.8815265463 -1.4421905721 1.3718014953
C 1.9255604711 2.6053568195 0.7368203782
C 4.8926655548 -1.1649051984 1.1686358063
C 6.2051892215 -1.884006784 0.673160125
C 6.7977826607 -0.7749078021 -0.2760281815
C 5.8102712885 0.4310859437 -0.006641869
O 5.3552243858 0.2264975569 1.3897474794
H 4.0848667567 -1.9408326906 -0.7411652014
H 4.6011130716 0.0735055355 -1.8931139044
H 4.4205385858 -1.5734354252 2.0835667108
H 6.8770505957 -2.0862518748 1.5228204484
H 5.9976964625 -2.8309152937 0.1495483787
H 7.8271747782 -0.5024410853 0.0055518984
H 6.791172335 -1.0782859104 -1.3354278064
H 6.2534684051 1.438600073 -0.1296987438
O -2.090301609 -2.0467351795 -0.0785775343
C -2.2083618922 3.4571135589 0.3528970808
C -5.3803440713 -0.0145380961 1.1428304184
C -6.8239736142 -0.3697002974 0.6090325977
C -6.5291209246 -1.689263635 -0.1970371138
C -4.9832057166 -1.874013605 0.0670840402
O -4.7882712874 -1.3374890565 1.435361347
H -5.139724927 1.1814096602 -0.7352341495
H -4.5161374713 -0.8314131928 -1.882984879
H -1.2958468539 3.0672846656 -0.1427724191
H -5.3517483872 0.6329210159 2.0405875539
H -7.5078555437 -0.5569118741 1.4522942556
H -7.2467465936 0.4304442391 -0.0193354483
H -7.0960337709 -2.5444338847 0.2036364152
H -6.7539073804 -1.5882350057 -1.2709436234
H -4.6061504377 -2.9131855517 0.0073246499
H -2.0492417878 3.4328421361 1.4503540138
H -2.3913563585 4.4975143771 0.0274414634
H 1.2124777152 2.3671173928 1.5477251835
H 1.3698397351 2.9667968611 -0.1528729001
H 2.6181060594 3.4053711509 1.0693354469
H 0.005876554 0.3581157486 0.0389989478
H -0.1460066221 -1.4324754414 0.0585128522
H -0.2178858218 0.3182347061 -2.5243251727
H -0.3321365021 -1.4775763237 -2.4638942667
$end

$rem
JOBTYPE                   OPT
METHOD                    B3LYP
DFT_D                     d3_op
BASIS                     STO-3G
GEOM_OPT_MAX_CYCLES       100
GEOM_OPT_TOL_GRADIENT     300
GEOM_OPT_TOL_DISPLACEMENT 1200
GEOM_OPT_TOL_ENERGY       100
SYMMETRY                  False
THRESH                    12
SCF_CONVERGENCE           8
MAX_SUB_FILE_NUM          128
MEM_STATIC                400
MEM_TOTAL                 4000
$end
--------------------------------------------------------------

   16   -1510.2779320724      5.93E-09 Convergence criterion met
 Total energy in the final basis set = -1510.27793207
   14   -1510.2794447551      5.97E-09 Convergence criterion met
 Total energy in the final basis set = -1510.27944476
   14   -1510.2812331848      2.13E-09 Convergence criterion met
 Total energy in the final basis set = -1510.28123318
   13   -1510.2824097193      6.69E-09 Convergence criterion met
 Total energy in the final basis set = -1510.28240972
   13   -1510.2841826908      3.00E-09 Convergence criterion met
 Total energy in the final basis set = -1510.28418269
   13   -1510.2855529680      2.90E-09 Convergence criterion met
 Total energy in the final basis set = -1510.28555297
   13   -1510.2866461677      4.28E-09 Convergence criterion met
 Total energy in the final basis set = -1510.28664617
   13   -1510.2875025747      3.39E-09 Convergence criterion met
   12   -1510.3084203357      7.63E-09 Convergence criterion met
 Total energy in the final basis set = -1510.30842034
   11   -1510.3084209755      7.88E-09 Convergence criterion met
 Total energy in the final basis set = -1510.30842098
   11   -1510.3084578020      5.81E-09 Convergence criterion met
 Total energy in the final basis set = -1510.30845780
   11   -1510.3084742409      7.03E-09 Convergence criterion met
 Total energy in the final basis set = -1510.30847424
   11   -1510.3084761051      5.57E-09 Convergence criterion met
 Total energy in the final basis set = -1510.30847611
    9   -1510.3084794155      6.19E-09 Convergence criterion met
 Total energy in the final basis set = -1510.30847942

             Standard Nuclear Orientation (Angstroms)
    I     Atom           X                Y                Z
 ----------------------------------------------------------------
    1      O      -1.3728389159    -0.8602168018     1.0994652366
    2      C      -1.6551330028     0.3358729009     0.8448683260
    3      C      -2.9117184328     0.8271496751     0.0496781590
    4      C      -3.4478688605    -0.2440113163    -0.9879419156
    5      C      -2.6070355937    -1.5698969991    -1.0584136153
    6      O      -1.3955008287    -1.3010864354    -1.7942880675
    7      C      -0.5288016677    -2.5029163805    -1.8393683804
    8      C       0.2571177028    -2.7057548293    -0.4951370426
    9      O       1.5837559093    -2.0482561117    -0.6271582648
   10      C       2.0469952128    -1.5857024735     0.6398401437
   11      C       3.4474217479    -0.8999481418     0.4556004743
   12      C       3.5834493671     0.0663767440    -0.7954592078
   13      C       2.2993487288     0.1981302332    -1.6896323613
   14      O       2.1615149833    -0.1970033572    -2.8684074455
   15      O      -0.9053884591     1.4655897675     1.2597600424
   16      O       1.3270427015     0.9512279995    -0.9658754234
   17      O       1.4336494580    -1.7363591165     1.7199331489
   18      C       0.1266734994     1.1885774065    -1.8039572387
   19      C       3.7353308943     0.0956434867     1.6528730652
   20      C       5.2783128212     0.4141333706     1.6901017968
   21      C       5.4207642528     1.3710423009     0.4481884225
   22      C       3.9284256321     1.4351465432    -0.0652069482
   23      O       3.1356213460     1.3699580045     1.1863227153
   24      H       4.2093174271    -1.7006014404     0.4081996871
   25      H       4.4074395254    -0.2620687914    -1.4527868255
   26      H       3.2777212672    -0.2201880669     2.6108097093
   27      H       5.5430149052     0.9280431722     2.6278623157
   28      H       5.8921118966    -0.4963316237     1.6006449237
   29      H       5.7690909443     2.3725138861     0.7470640853
   30      H       6.1033097025     0.9732709698    -0.3198930194
   31      H       3.6649044617     2.3429378981    -0.6413714556
   32      O      -2.9440227820    -2.7086093515    -0.6754190545
   33      C       0.2934283921     1.0666589820     2.0445729304
   34      C      -4.1754209581     0.9597992678     1.0111145343
   35      C      -5.2949212802     1.7748919492     0.2505018520
   36      C      -5.8246739072     0.6931301984    -0.7630578211
   37      C      -4.8949796634    -0.5328455578    -0.4100308992
   38      O      -4.7096298664    -0.4181822708     1.0557595419
   39      H      -2.6735988056     1.7900844200    -0.4338413576
   40      H      -3.4885493838     0.1891244745    -2.0036715716
   41      H       0.2871192875    -0.0281024648     2.2227693799
   42      H      -3.9385642758     1.3212173480     2.0307531946
   43      H      -6.0825755886     2.0933706678     0.9519265786
   44      H      -4.8884021029     2.6672274735    -0.2519839641
   45      H      -6.8806688784     0.4439937550    -0.5727508419
   46      H      -5.7177972449     1.0059858552    -1.8140138327
   47      H      -5.2923358011    -1.5331074777    -0.6697073125
   48      H       0.2628372426     1.6147565984     3.0054076963
   49      H       1.2222064490     1.3320023783     1.4833997872
   50      H      -0.4210986170     2.0113332489    -1.3104184801
   51      H      -0.5105239709     0.2707129906    -1.8453265402
   52      H       0.4115528227     1.4876272686    -2.8319073957
   53      H      -0.3110565184    -2.2430852911     0.3473856993
   54      H       0.4025760636    -3.7895236272    -0.2975292526
   55      H       0.1822650352    -2.3293114378    -2.6731896718
   56      H      -1.1460377546    -3.4026585991    -2.0459556187
 ----------------------------------------------------------------

    9   -1510.3084786920      4.14E-09 Convergence criterion met
 Total energy in the final basis set = -1510.30847869
 Final energy is   -1510.30847869200
 **  OPTIMIZATION CONVERGED  **

                    Orbital Energies (a.u.)
 --------------------------------------------------------------

 Alpha MOs
 -- Occupied --
-18.937 -18.935 -18.933 -18.920 -18.899 -18.889 -18.879 -18.877
-18.876 -18.860 -10.103 -10.102 -10.102 -10.091 -10.072 -10.064
-10.063 -10.062 -10.059 -10.058 -10.040 -10.040 -10.039 -10.036
-10.034 -10.028 -10.024 -10.023 -10.021 -10.020  -1.018  -1.011
 -1.007  -0.999  -0.976  -0.971  -0.942  -0.936  -0.934  -0.924
 -0.766  -0.764  -0.729  -0.724  -0.711  -0.708  -0.698  -0.651
 -0.645  -0.615  -0.597  -0.580  -0.549  -0.543  -0.541  -0.536
 -0.512  -0.511  -0.485  -0.468  -0.468  -0.459  -0.454  -0.441
 -0.435  -0.432  -0.427  -0.417  -0.407  -0.405  -0.401  -0.399
 -0.390  -0.371  -0.369  -0.363  -0.362  -0.357  -0.351  -0.349
 -0.341  -0.339  -0.337  -0.334  -0.330  -0.327  -0.322  -0.312
 -0.311  -0.309  -0.305  -0.297  -0.293  -0.286  -0.286  -0.277
 -0.272  -0.256  -0.249  -0.241  -0.238  -0.235  -0.235  -0.187
 -0.175  -0.170  -0.163  -0.158  -0.156  -0.152  -0.151  -0.145
 -0.141

          Ground-State Mulliken Net Atomic Charges

     Atom                 Charge (a.u.)
  ----------------------------------------
      1 O                    -0.218226
      2 C                     0.217588
      3 C                    -0.078394
      4 C                    -0.080630
      5 C                     0.218586
      6 O                    -0.177297
      7 C                    -0.050030
      8 C                    -0.063950
      9 O                    -0.172983
     10 C                     0.214425
     11 C                    -0.078934
     12 C                    -0.080089
     13 C                     0.211095
     14 O                    -0.220923
     15 O                    -0.168309
     16 O                    -0.176572
     17 O                    -0.211399
     18 C                    -0.151988
     19 C                     0.024270
     20 C                    -0.143636
     21 C                    -0.143695
     22 C                     0.027584
     23 O                    -0.186960
     24 H                     0.085670
     25 H                     0.084287
     26 H                     0.091851
     27 H                     0.079182
     28 H                     0.074805
     29 H                     0.078694
     30 H                     0.075002
     31 H                     0.086050
     32 O                    -0.205937
     33 C                    -0.155534
     34 C                     0.025943
     35 C                    -0.143632
     36 C                    -0.144105
     37 C                     0.025448
     38 O                    -0.186427
     39 H                     0.086096
     40 H                     0.084897
     41 H                     0.102988
     42 H                     0.084901
     43 H                     0.078714
     44 H                     0.073979
     45 H                     0.078749
     46 H                     0.073196
     47 H                     0.089819
     48 H                     0.077062
     49 H                     0.113844
     50 H                     0.080928
     51 H                     0.107343
     52 H                     0.080875
     53 H                     0.124789
     54 H                     0.083972
     55 H                     0.101789
     56 H                     0.095229
  ----------------------------------------
  Sum of atomic charges =     0.000000

                    Cartesian Multipole Moments
 -----------------------------------------------------------------
    Charge (ESU x 10^10)
                -0.0000
    Dipole Moment (Debye)
         X       1.3296      Y       1.7610      Z      -1.1309
       Tot       2.4795
    Quadrupole Moments (Debye-Ang)
        XX    -141.9993     XY      -8.9404     YY    -159.9581
        XZ      10.1762     YZ       2.3269     ZZ    -164.5824

 Total job time:  185.36s(wall), 8848.86s(cpu)
        *  Thank you very much for using Q-Chem.  Have a nice day.  *
