 Q-Chem 5.0, Q-Chem, Inc., Pleasanton, CA (2017)
 Q-Chem 5.0.1 for Intel X86 EM64T Linux

User input:
--------------------------------------------------------------
$molecule
0  1
O -3.94934 -3.66094 2.70899
C -3.26408 -4.56952 2.26188
C -3.36658 -6.02376 2.66595
C -3.42012 -6.33269 4.17112
C -3.5444 -5.14485 5.09939
O -2.32396 -4.5538 5.26257
C -2.36054 -3.41697 6.13179
C -3.57076 -2.54689 5.80856
O -3.57308 -1.38076 6.64701
C -4.74835 -0.70657 6.70496
C -4.65474 0.57145 7.50406
C -3.45772 1.46751 7.15408
C -2.75252 1.14896 5.85103
O -1.78488 1.74763 5.40399
O -2.27185 -4.26327 1.38528
O -3.44789 0.47307 4.89181
O -5.73513 -0.99202 6.03511
C -3.02764 0.26253 3.59162
C -5.82071 1.56048 7.30519
C -5.92234 2.48529 8.5177
C -4.688 3.34357 8.32556
C -4.18801 2.81068 6.97849
O -5.36535 2.43542 6.30227
H -4.61229 0.25649 8.57104
H -2.68233 1.47567 7.95132
H -6.79889 1.06579 7.12132
H -6.82335 3.12252 8.36754
H -5.99637 1.97392 9.50152
H -5.00988 4.40455 8.23178
H -3.91367 3.24793 9.11738
H -3.55604 3.57209 6.46997
O -4.42618 -5.14748 5.95239
C -2.00661 -2.98888 0.92883
C -4.7144 -6.61941 2.20962
C -4.59108 -8.13422 2.0661
C -4.49602 -8.54384 3.51874
C -4.7102 -7.18754 4.20277
O -5.55798 -6.49033 3.32624
H -2.54792 -6.57481 2.14879
H -2.54277 -6.92763 4.51167
H -1.74459 -2.32409 1.77969
H -5.09061 -6.17735 1.26045
H -5.5597 -8.50096 1.65633
H -3.76202 -8.48891 1.41669
H -5.33746 -9.23688 3.74241
H -3.53149 -9.00652 3.82057
H -5.09906 -7.35538 5.23066
H -2.89156 -2.58235 0.39381
H -1.14946 -3.02502 0.22574
H -3.79827 -0.32368 3.0503
H -2.07474 -0.30887 3.5871
H -2.88814 1.23318 3.06983
H -3.51503 -2.22532 4.75018
H -4.54905 -3.02115 5.94948
H -1.41867 -2.84112 6.01214
H -2.43497 -3.7548 7.18886
$end

$opt
CONSTRAINT
tors           1           2           3           4     -47.224
tors           3           4           5           6     -79.558
tors           4           5           6           7    -180.000
tors           5           6           7           8     -43.787
tors           6           7           8           9    -177.701
tors           7           8           9          10    -163.944
tors           8           9          10          11    -175.031
tors           9          10          11          12     +47.948
tors          11          12          13          14    +179.965
ENDCONSTRAINT
$end

$rem
JOBTYPE                   OPT
METHOD                    B3LYP
DFT_D                     d3_op
BASIS                     STO-3G
GEOM_OPT_MAX_CYCLES       100
GEOM_OPT_TOL_GRADIENT     300
GEOM_OPT_TOL_DISPLACEMENT 1200
GEOM_OPT_TOL_ENERGY       100
SYMMETRY                  False
THRESH                    12
SCF_CONVERGENCE           8
MAX_SUB_FILE_NUM          128
MEM_STATIC                400
MEM_TOTAL                 4000
$end
--------------------------------------------------------------

   15   -1510.1317145796      6.67E-09 Convergence criterion met
 Total energy in the final basis set = -1510.13171458
   14   -1510.2049397152      6.88E-09 Convergence criterion met
 Total energy in the final basis set = -1510.20493972
   13   -1510.2447180825      8.73E-09 Convergence criterion met
 Total energy in the final basis set = -1510.24471808
   14   -1510.2643915498      3.96E-09 Convergence criterion met
 Total energy in the final basis set = -1510.26439155
   13   -1510.2726725058      6.74E-09 Convergence criterion met
 Total energy in the final basis set = -1510.27267251
   13   -1510.2756367570      4.37E-09 Convergence criterion met
 Total energy in the final basis set = -1510.27563676
   13   -1510.2766047884      5.48E-09 Convergence criterion met
 Total energy in the final basis set = -1510.27660479
   13   -1510.2773918271      3.62E-09 Convergence criterion met
   11   -1510.2778486572      5.95E-09 Convergence criterion met
 Total energy in the final basis set = -1510.27784866
    9   -1510.2778553598      8.87E-09 Convergence criterion met
 Total energy in the final basis set = -1510.27785536
    9   -1510.2778634914      8.55E-09 Convergence criterion met
 Total energy in the final basis set = -1510.27786349
    9   -1510.2778711315      6.76E-09 Convergence criterion met
 Total energy in the final basis set = -1510.27787113
    9   -1510.2778769131      5.65E-09 Convergence criterion met
 Total energy in the final basis set = -1510.27787691
    9   -1510.2778791448      5.37E-09 Convergence criterion met
 Total energy in the final basis set = -1510.27787914

             Standard Nuclear Orientation (Angstroms)
    I     Atom           X                Y                Z
 ----------------------------------------------------------------
    1      O      -2.2416759213     0.8666651903     0.9236539108
    2      C      -3.2516810205     1.3142715248     0.3350179673
    3      C      -4.5302769816     0.5210441535    -0.0934933998
    4      C      -4.1833482616    -0.8439489535    -0.8299260230
    5      C      -2.6441630276    -1.1714589438    -0.7771398809
    6      O      -2.0294835398    -0.3735244827    -1.7942736946
    7      C      -0.5573630138    -0.5394989909    -1.9084138865
    8      C       0.2113023602    -0.5689461743    -0.5398941156
    9      O       1.6500145947    -0.6826344263    -0.8735898892
   10      C       2.3900959754    -1.0887462622     0.2880653913
   11      C       3.9161038266    -1.0714355420    -0.0777860884
   12      C       4.4481114339     0.2241332179    -0.8098312529
   13      C       3.6217364376     1.5446113449    -0.5773312366
   14      O       3.8810903652     2.6661454909    -1.0664013729
   15      O      -3.4107556789     2.6859926680    -0.0417072964
   16      O       2.6460571448     1.3463080818     0.4505413745
   17      O       1.8815265463    -1.4421905721     1.3718014953
   18      C       1.9255604711     2.6053568195     0.7368203782
   19      C       4.8926655548    -1.1649051984     1.1686358063
   20      C       6.2051892215    -1.8840067840     0.6731601250
   21      C       6.7977826607    -0.7749078021    -0.2760281815
   22      C       5.8102712885     0.4310859437    -0.0066418690
   23      O       5.3552243858     0.2264975569     1.3897474794
   24      H       4.0848667567    -1.9408326906    -0.7411652014
   25      H       4.6011130716     0.0735055355    -1.8931139044
   26      H       4.4205385858    -1.5734354252     2.0835667108
   27      H       6.8770505957    -2.0862518748     1.5228204484
   28      H       5.9976964625    -2.8309152937     0.1495483787
   29      H       7.8271747782    -0.5024410853     0.0055518984
   30      H       6.7911723350    -1.0782859104    -1.3354278064
   31      H       6.2534684051     1.4386000730    -0.1296987438
   32      O      -2.0903016090    -2.0467351795    -0.0785775343
   33      C      -2.2083618922     3.4571135589     0.3528970808
   34      C      -5.3803440713    -0.0145380961     1.1428304184
   35      C      -6.8239736142    -0.3697002974     0.6090325977
   36      C      -6.5291209246    -1.6892636350    -0.1970371138
   37      C      -4.9832057166    -1.8740136050     0.0670840402
   38      O      -4.7882712874    -1.3374890565     1.4353613470
   39      H      -5.1397249270     1.1814096602    -0.7352341495
   40      H      -4.5161374713    -0.8314131928    -1.8829848790
   41      H      -1.2958468539     3.0672846656    -0.1427724191
   42      H      -5.3517483872     0.6329210159     2.0405875539
   43      H      -7.5078555437    -0.5569118741     1.4522942556
   44      H      -7.2467465936     0.4304442391    -0.0193354483
   45      H      -7.0960337709    -2.5444338847     0.2036364152
   46      H      -6.7539073804    -1.5882350057    -1.2709436234
   47      H      -4.6061504377    -2.9131855517     0.0073246499
   48      H      -2.0492417878     3.4328421361     1.4503540138
   49      H      -2.3913563585     4.4975143771     0.0274414634
   50      H       1.2124777152     2.3671173928     1.5477251835
   51      H       1.3698397351     2.9667968611    -0.1528729001
   52      H       2.6181060594     3.4053711509     1.0693354469
   53      H       0.0058765540     0.3581157486     0.0389989478
   54      H      -0.1460066221    -1.4324754414     0.0585128522
   55      H      -0.2178858218     0.3182347061    -2.5243251727
   56      H      -0.3321365021    -1.4775763237    -2.4638942667
 ----------------------------------------------------------------

    9   -1510.2778799819      2.98E-09 Convergence criterion met
 Total energy in the final basis set = -1510.27787998
 Final energy is   -1510.27787998189
 **  OPTIMIZATION CONVERGED  **

                    Orbital Energies (a.u.)
 --------------------------------------------------------------

 Alpha MOs
 -- Occupied --
-18.942 -18.938 -18.932 -18.917 -18.889 -18.883 -18.879 -18.878
-18.871 -18.863 -10.103 -10.102 -10.098 -10.093 -10.071 -10.070
-10.066 -10.063 -10.059 -10.057 -10.054 -10.053 -10.040 -10.038
-10.037 -10.031 -10.022 -10.021 -10.019 -10.016  -1.018  -1.013
 -1.008  -0.996  -0.971  -0.967  -0.941  -0.939  -0.934  -0.926
 -0.765  -0.760  -0.727  -0.722  -0.711  -0.702  -0.693  -0.669
 -0.662  -0.614  -0.596  -0.582  -0.547  -0.541  -0.538  -0.534
 -0.513  -0.507  -0.482  -0.476  -0.462  -0.455  -0.453  -0.443
 -0.437  -0.433  -0.424  -0.418  -0.413  -0.412  -0.408  -0.395
 -0.382  -0.379  -0.378  -0.368  -0.362  -0.360  -0.356  -0.347
 -0.345  -0.338  -0.336  -0.331  -0.328  -0.325  -0.317  -0.311
 -0.307  -0.306  -0.303  -0.298  -0.296  -0.291  -0.284  -0.276
 -0.266  -0.261  -0.250  -0.244  -0.240  -0.235  -0.231  -0.184
 -0.179  -0.176  -0.164  -0.158  -0.152  -0.147  -0.145  -0.142
 -0.141

          Ground-State Mulliken Net Atomic Charges

     Atom                 Charge (a.u.)
  ----------------------------------------
      1 O                    -0.213636
      2 C                     0.209233
      3 C                    -0.079785
      4 C                    -0.078297
      5 C                     0.216672
      6 O                    -0.177725
      7 C                    -0.048572
      8 C                    -0.061025
      9 O                    -0.182914
     10 C                     0.221346
     11 C                    -0.080300
     12 C                    -0.075376
     13 C                     0.213695
     14 O                    -0.217735
     15 O                    -0.167066
     16 O                    -0.164279
     17 O                    -0.212970
     18 C                    -0.125847
     19 C                     0.023727
     20 C                    -0.141929
     21 C                    -0.145275
     22 C                     0.023732
     23 O                    -0.191711
     24 H                     0.081507
     25 H                     0.086103
     26 H                     0.092001
     27 H                     0.077777
     28 H                     0.073068
     29 H                     0.078080
     30 H                     0.073216
     31 H                     0.084371
     32 O                    -0.204799
     33 C                    -0.128434
     34 C                     0.025926
     35 C                    -0.142925
     36 C                    -0.144687
     37 C                     0.025635
     38 O                    -0.184223
     39 H                     0.086328
     40 H                     0.085898
     41 H                     0.086695
     42 H                     0.083604
     43 H                     0.078695
     44 H                     0.073908
     45 H                     0.078709
     46 H                     0.073258
     47 H                     0.089180
     48 H                     0.089875
     49 H                     0.092135
     50 H                     0.095297
     51 H                     0.084227
     52 H                     0.092394
     53 H                     0.086565
     54 H                     0.114046
     55 H                     0.088413
     56 H                     0.084191
  ----------------------------------------
  Sum of atomic charges =    -0.000000

                    Cartesian Multipole Moments
 -----------------------------------------------------------------
    Charge (ESU x 10^10)
                 0.0000
    Dipole Moment (Debye)
         X      -1.5882      Y       0.9942      Z      -2.7066
       Tot       3.2919
    Quadrupole Moments (Debye-Ang)
        XX    -139.4409     XY     -10.0859     YY    -157.1578
        XZ      -0.1820     YZ       9.4273     ZZ    -164.2357

 Total job time:  51.98s(wall), 2473.27s(cpu)
        *  Thank you very much for using Q-Chem.  Have a nice day.  *
