 Q-Chem 5.0, Q-Chem, Inc., Pleasanton, CA (2017)
 Q-Chem 5.0.1 for Intel X86 EM64T Linux

User input:
--------------------------------------------------------------
$molecule
0  1
O -3.94934 -3.66094 2.70899
C -3.26408 -4.56952 2.26188
C -3.36658 -6.02376 2.66595
C -4.07582 -6.33571 3.99393
C -4.75932 -5.1751 4.68233
O -3.82908 -4.38971 5.30139
C -4.40164 -3.26559 5.97799
C -4.71402 -2.15494 4.98049
O -5.20309 -0.99673 5.67493
C -5.58659 0.03748 4.88596
C -5.85694 1.30283 5.66472
C -4.63871 1.88579 6.39571
C -3.28941 1.3465 5.96529
O -2.20994 1.68661 6.42748
O -2.44218 -4.30637 1.2123
O -3.17576 0.61227 4.82486
O -5.6905 -0.03817 3.6667
C -1.98888 0.18222 4.2603
C -6.25863 2.521 4.80271
C -7.04123 3.51772 5.65713
C -5.94081 4.04924 6.55378
C -4.72357 3.34945 5.93881
O -5.05482 3.21398 4.57726
H -6.6954 1.07131 6.36003
H -4.70915 1.73312 7.49492
H -6.84805 2.25274 3.89918
H -7.36938 4.33606 4.97644
H -7.92816 3.10806 6.18658
H -5.8786 5.15166 6.41726
H -6.0458 3.80198 7.63254
H -3.79245 3.91653 6.16035
O -5.97469 -5.03423 4.77668
C -2.25656 -3.05272 0.66788
C -4.21314 -6.82948 1.67028
C -3.85765 -8.31229 1.76435
C -4.49498 -8.66937 3.08989
C -5.13661 -7.32867 3.46241
O -5.50567 -6.7807 2.21973
H -2.31988 -6.402 2.69925
H -3.42704 -6.84021 4.74492
H -1.84785 -2.36 1.43456
H -4.11111 -6.47344 0.6215
H -4.40354 -8.8457 0.9536
H -2.77078 -8.5302 1.68485
H -5.29075 -9.42483 2.90302
H -3.797 -9.04209 3.87033
H -5.96381 -7.50058 4.18596
H -3.21931 -2.65694 0.27954
H -1.53468 -3.12359 -0.17133
H -2.20956 -0.38355 3.33205
H -1.44938 -0.48394 4.96704
H -1.3504 1.05277 3.99884
H -3.79289 -1.89705 4.42108
H -5.49906 -2.51659 4.28113
H -3.63026 -2.86576 6.67008
H -5.27994 -3.544 6.60414
$end

$opt
CONSTRAINT
tors           1           2           3           4     -18.466
tors           3           4           5           6     -76.898
tors           4           5           6           7    -180.000
tors           5           6           7           8     -79.805
tors           6           7           8           9    -176.103
tors           7           8           9          10    -176.520
tors           8           9          10          11    -169.826
tors           9          10          11          12     +63.244
tors          11          12          13          14    +179.965
ENDCONSTRAINT
$end

$rem
JOBTYPE                   OPT
METHOD                    B3LYP
DFT_D                     d3_op
BASIS                     STO-3G
GEOM_OPT_MAX_CYCLES       100
GEOM_OPT_TOL_GRADIENT     300
GEOM_OPT_TOL_DISPLACEMENT 1200
GEOM_OPT_TOL_ENERGY       100
SYMMETRY                  False
THRESH                    12
SCF_CONVERGENCE           8
MAX_SUB_FILE_NUM          128
MEM_STATIC                400
MEM_TOTAL                 4000
$end
--------------------------------------------------------------

   15   -1510.1531932505      6.22E-09 Convergence criterion met
 Total energy in the final basis set = -1510.15319325
   14   -1510.2241768356      6.16E-09 Convergence criterion met
 Total energy in the final basis set = -1510.22417684
   13   -1510.2620197718      7.25E-09 Convergence criterion met
 Total energy in the final basis set = -1510.26201977
   13   -1510.2775136123      7.51E-09 Convergence criterion met
 Total energy in the final basis set = -1510.27751361
   14   -1510.2808206725      3.24E-09 Convergence criterion met
 Total energy in the final basis set = -1510.28082067
   13   -1510.2829330102      3.49E-09 Convergence criterion met
 Total energy in the final basis set = -1510.28293301
   13   -1510.2834463169      2.56E-09 Convergence criterion met
 Total energy in the final basis set = -1510.28344632
   12   -1510.2836797215      7.65E-09 Convergence criterion met
   10   -1510.2839969382      9.15E-09 Convergence criterion met
 Total energy in the final basis set = -1510.28399694
   11   -1510.2840132213      3.26E-09 Convergence criterion met
 Total energy in the final basis set = -1510.28401322
    9   -1510.2840252297      6.63E-09 Convergence criterion met
 Total energy in the final basis set = -1510.28402523
    9   -1510.2840315778      6.44E-09 Convergence criterion met
 Total energy in the final basis set = -1510.28403158
    9   -1510.2840357979      6.37E-09 Convergence criterion met
 Total energy in the final basis set = -1510.28403580
    9   -1510.2840368097      3.94E-09 Convergence criterion met
 Total energy in the final basis set = -1510.28403681

             Standard Nuclear Orientation (Angstroms)
    I     Atom           X                Y                Z
 ----------------------------------------------------------------
    1      O      -2.1907253246     0.5063569946     0.9887990234
    2      C      -3.1318606179     1.2024291234     0.5460201444
    3      C      -4.4121652346     0.6852841261    -0.1856750513
    4      C      -4.2376960368    -0.7839246455    -0.7489955260
    5      C      -2.7976307678    -1.3943883068    -0.5618573611
    6      O      -1.9515479239    -0.7966187772    -1.5603308264
    7      C      -0.5679032159    -1.3161148497    -1.4582305330
    8      C       0.2258343021    -0.6069215681    -0.3061082528
    9      O       1.6110434352    -1.1312112453    -0.3582536824
   10      C       2.3789553066    -0.5838980942     0.7244464767
   11      C       3.8835065986    -0.9559047260     0.4736694047
   12      C       4.5553121765    -0.3548440598    -0.8288902164
   13      C       3.8348425972     0.8499458156    -1.5380302890
   14      O       4.2407232369     1.4289678483    -2.5697293625
   15      O      -3.2039047105     2.6229371118     0.6738016492
   16      O       2.7228038078     1.3117021000    -0.7675993624
   17      O       1.8983289959     0.0164852662     1.7080530024
   18      C       2.1108859422     2.5009609659    -1.4006852551
   19      C       4.8534493565    -0.4194235020     1.6092394649
   20      C       6.1132366447    -1.3672128075     1.6479455610
   21      C       6.8133396963    -0.9747297333     0.2942441019
   22      C       5.9003165389     0.2193814691    -0.1961478921
   23      O       5.4076994505     0.8394654622     1.0554994774
   24      H       3.9321582605    -2.0594232273     0.4186979551
   25      H       4.7524997885    -1.1333424044    -1.5873951714
   26      H       4.3496025655    -0.2302512956     2.5772092469
   27      H       6.7503056582    -1.1261751527     2.5141271357
   28      H       5.8385310680    -2.4329854573     1.6952402226
   29      H       7.8466081883    -0.6286880000     0.4547885864
   30      H       6.8289775955    -1.8033767057    -0.4320848820
   31      H       6.4094525536     0.9690433751    -0.8329291674
   32      O      -2.4555121217    -2.3284458372     0.1924741929
   33      C      -2.0138483172     3.1223628486     1.4038308110
   34      C      -5.5994570019     0.4623712697     0.8530424812
   35      C      -6.9379860223     0.2430206051     0.0408329811
   36      C      -6.7463666550    -1.2335008519    -0.4702990992
   37      C      -5.3168077370    -1.5695415114     0.1071373714
   38      O      -5.3017146600    -0.8720913905     1.4151209321
   39      H      -4.6943296878     1.4066863071    -0.9728212891
   40      H      -4.4758552014    -0.8120228961    -1.8274265180
   41      H      -1.0745818809     2.8737480322     0.8687064265
   42      H      -5.6535855955     1.2238327611     1.6555070969
   43      H      -7.8108170855     0.3319795881     0.7070261797
   44      H      -7.0449617140     0.9692554892    -0.7806292948
   45      H      -7.5032947996    -1.9095101983    -0.0417911054
   46      H      -6.7823703271    -1.3127491720    -1.5686057187
   47      H      -5.0896978692    -2.6446285536     0.2432766924
   48      H      -1.9559054651     2.6989006370     2.4272110218
   49      H      -2.1299183325     4.2201568549     1.4610925572
   50      H       1.3126987650     2.8331811706    -0.7114028477
   51      H       1.6708571850     2.2549101193    -2.3889671065
   52      H       2.8510689466     3.3155623219    -1.5354882814
   53      H       0.2229825482     0.4932270039    -0.4599420695
   54      H      -0.2558250356    -0.8144885061     0.6732005120
   55      H      -0.0903135959    -1.1039170804    -2.4359661596
   56      H      -0.5712686534    -2.4128886230    -1.2797416088
 ----------------------------------------------------------------

    9   -1510.2840375547      3.89E-09 Convergence criterion met
 Total energy in the final basis set = -1510.28403755
 Final energy is   -1510.28403755474
 **  OPTIMIZATION CONVERGED  **

                    Orbital Energies (a.u.)
 --------------------------------------------------------------

 Alpha MOs
 -- Occupied --
-18.943 -18.942 -18.923 -18.917 -18.889 -18.884 -18.884 -18.874
-18.868 -18.863 -10.106 -10.101 -10.095 -10.093 -10.070 -10.069
-10.066 -10.063 -10.058 -10.058 -10.057 -10.054 -10.041 -10.038
-10.035 -10.032 -10.022 -10.020 -10.019 -10.017  -1.020  -1.016
 -1.003  -0.997  -0.971  -0.968  -0.943  -0.938  -0.931  -0.925
 -0.764  -0.760  -0.726  -0.722  -0.711  -0.703  -0.691  -0.667
 -0.666  -0.613  -0.597  -0.579  -0.546  -0.542  -0.537  -0.535
 -0.513  -0.509  -0.484  -0.476  -0.464  -0.454  -0.453  -0.444
 -0.436  -0.431  -0.424  -0.417  -0.416  -0.413  -0.410  -0.394
 -0.388  -0.379  -0.376  -0.369  -0.361  -0.357  -0.353  -0.345
 -0.341  -0.340  -0.335  -0.331  -0.329  -0.326  -0.319  -0.312
 -0.307  -0.306  -0.305  -0.301  -0.297  -0.291  -0.279  -0.274
 -0.268  -0.260  -0.246  -0.245  -0.240  -0.235  -0.232  -0.185
 -0.182  -0.170  -0.164  -0.160  -0.155  -0.147  -0.145  -0.143
 -0.141

          Ground-State Mulliken Net Atomic Charges

     Atom                 Charge (a.u.)
  ----------------------------------------
      1 O                    -0.208092
      2 C                     0.213696
      3 C                    -0.078498
      4 C                    -0.080451
      5 C                     0.215541
      6 O                    -0.180095
      7 C                    -0.048793
      8 C                    -0.050713
      9 O                    -0.181468
     10 C                     0.221173
     11 C                    -0.080889
     12 C                    -0.076503
     13 C                     0.212454
     14 O                    -0.216381
     15 O                    -0.168467
     16 O                    -0.165688
     17 O                    -0.214870
     18 C                    -0.125507
     19 C                     0.023609
     20 C                    -0.142731
     21 C                    -0.144879
     22 C                     0.024420
     23 O                    -0.191530
     24 H                     0.083190
     25 H                     0.086477
     26 H                     0.090927
     27 H                     0.077773
     28 H                     0.073419
     29 H                     0.078060
     30 H                     0.073531
     31 H                     0.084690
     32 O                    -0.212699
     33 C                    -0.127962
     34 C                     0.025719
     35 C                    -0.143729
     36 C                    -0.143931
     37 C                     0.025005
     38 O                    -0.187749
     39 H                     0.087082
     40 H                     0.084217
     41 H                     0.088686
     42 H                     0.083964
     43 H                     0.078553
     44 H                     0.073796
     45 H                     0.078524
     46 H                     0.073401
     47 H                     0.089968
     48 H                     0.094013
     49 H                     0.092025
     50 H                     0.090190
     51 H                     0.088892
     52 H                     0.094020
     53 H                     0.080437
     54 H                     0.104941
     55 H                     0.086427
     56 H                     0.092804
  ----------------------------------------
  Sum of atomic charges =    -0.000000

                    Cartesian Multipole Moments
 -----------------------------------------------------------------
    Charge (ESU x 10^10)
                -0.0000
    Dipole Moment (Debye)
         X      -1.2117      Y       0.7692      Z      -1.9990
       Tot       2.4609
    Quadrupole Moments (Debye-Ang)
        XX    -143.6875     XY     -13.3092     YY    -155.2936
        XZ       7.8838     YZ       4.3340     ZZ    -165.6074

 Total job time:  48.83s(wall), 2319.05s(cpu)
        *  Thank you very much for using Q-Chem.  Have a nice day.  *
