 Q-Chem 5.0, Q-Chem, Inc., Pleasanton, CA (2017)
 Q-Chem 5.0.1 for Intel X86 EM64T Linux

User input:
--------------------------------------------------------------
$molecule
0  1
O -2.1907253246 0.5063569946 0.9887990234
C -3.1318606179 1.2024291234 0.5460201444
C -4.4121652346 0.6852841261 -0.1856750513
C -4.2376960368 -0.7839246455 -0.748995526
C -2.7976307678 -1.3943883068 -0.5618573611
O -1.9515479239 -0.7966187772 -1.5603308264
C -0.5679032159 -1.3161148497 -1.458230533
C 0.2258343021 -0.6069215681 -0.3061082528
O 1.6110434352 -1.1312112453 -0.3582536824
C 2.3789553066 -0.5838980942 0.7244464767
C 3.8835065986 -0.955904726 0.4736694047
C 4.5553121765 -0.3548440598 -0.8288902164
C 3.8348425972 0.8499458156 -1.538030289
O 4.2407232369 1.4289678483 -2.5697293625
O -3.2039047105 2.6229371118 0.6738016492
O 2.7228038078 1.3117021 -0.7675993624
O 1.8983289959 0.0164852662 1.7080530024
C 2.1108859422 2.5009609659 -1.4006852551
C 4.8534493565 -0.419423502 1.6092394649
C 6.1132366447 -1.3672128075 1.647945561
C 6.8133396963 -0.9747297333 0.2942441019
C 5.9003165389 0.2193814691 -0.1961478921
O 5.4076994505 0.8394654622 1.0554994774
H 3.9321582605 -2.0594232273 0.4186979551
H 4.7524997885 -1.1333424044 -1.5873951714
H 4.3496025655 -0.2302512956 2.5772092469
H 6.7503056582 -1.1261751527 2.5141271357
H 5.838531068 -2.4329854573 1.6952402226
H 7.8466081883 -0.628688 0.4547885864
H 6.8289775955 -1.8033767057 -0.432084882
H 6.4094525536 0.9690433751 -0.8329291674
O -2.4555121217 -2.3284458372 0.1924741929
C -2.0138483172 3.1223628486 1.403830811
C -5.5994570019 0.4623712697 0.8530424812
C -6.9379860223 0.2430206051 0.0408329811
C -6.746366655 -1.2335008519 -0.4702990992
C -5.316807737 -1.5695415114 0.1071373714
O -5.30171466 -0.8720913905 1.4151209321
H -4.6943296878 1.4066863071 -0.9728212891
H -4.4758552014 -0.8120228961 -1.827426518
H -1.0745818809 2.8737480322 0.8687064265
H -5.6535855955 1.2238327611 1.6555070969
H -7.8108170855 0.3319795881 0.7070261797
H -7.044961714 0.9692554892 -0.7806292948
H -7.5032947996 -1.9095101983 -0.0417911054
H -6.7823703271 -1.312749172 -1.5686057187
H -5.0896978692 -2.6446285536 0.2432766924
H -1.9559054651 2.698900637 2.4272110218
H -2.1299183325 4.2201568549 1.4610925572
H 1.312698765 2.8331811706 -0.7114028477
H 1.670857185 2.2549101193 -2.3889671065
H 2.8510689466 3.3155623219 -1.5354882814
H 0.2229825482 0.4932270039 -0.4599420695
H -0.2558250356 -0.8144885061 0.673200512
H -0.0903135959 -1.1039170804 -2.4359661596
H -0.5712686534 -2.412888623 -1.2797416088
$end

$rem
JOBTYPE                   OPT
METHOD                    B3LYP
DFT_D                     d3_op
BASIS                     STO-3G
GEOM_OPT_MAX_CYCLES       100
GEOM_OPT_TOL_GRADIENT     300
GEOM_OPT_TOL_DISPLACEMENT 1200
GEOM_OPT_TOL_ENERGY       100
SYMMETRY                  False
THRESH                    12
SCF_CONVERGENCE           8
MAX_SUB_FILE_NUM          128
MEM_STATIC                400
MEM_TOTAL                 4000
$end
--------------------------------------------------------------

   16   -1510.2840611907      5.21E-09 Convergence criterion met
 Total energy in the final basis set = -1510.28406119
   13   -1510.2849035085      7.89E-09 Convergence criterion met
 Total energy in the final basis set = -1510.28490351
   14   -1510.2856884544      2.93E-09 Convergence criterion met
 Total energy in the final basis set = -1510.28568845
   13   -1510.2864484509      5.67E-09 Convergence criterion met
 Total energy in the final basis set = -1510.28644845
   13   -1510.2875673456      4.62E-09 Convergence criterion met
 Total energy in the final basis set = -1510.28756735
   13   -1510.2886586832      6.34E-09 Convergence criterion met
 Total energy in the final basis set = -1510.28865868
   13   -1510.2897391953      9.36E-09 Convergence criterion met
 Total energy in the final basis set = -1510.28973920
   13   -1510.2907536068      6.86E-09 Convergence criterion met
   10   -1510.2936183010      8.42E-09 Convergence criterion met
 Total energy in the final basis set = -1510.29361830
   13   -1510.2936435140      4.11E-09 Convergence criterion met
 Total energy in the final basis set = -1510.29364351
   12   -1510.2936443065      4.87E-09 Convergence criterion met
 Total energy in the final basis set = -1510.29364431
   10   -1510.2936529884      9.69E-09 Convergence criterion met
 Total energy in the final basis set = -1510.29365299
   12   -1510.2936630805      5.26E-09 Convergence criterion met
 Total energy in the final basis set = -1510.29366308
   11   -1510.2936607808      5.67E-09 Convergence criterion met
 Total energy in the final basis set = -1510.29366078

             Standard Nuclear Orientation (Angstroms)
    I     Atom           X                Y                Z
 ----------------------------------------------------------------
    1      O      -2.0998993086    -0.4450097393     1.1462289861
    2      C      -2.7626615900     0.5920756376     0.8975152696
    3      C      -4.1138483243     0.6594722846     0.1079291379
    4      C      -4.2326126363    -0.4495654546    -1.0238995779
    5      C      -2.9169973561    -1.2793085903    -1.2400405165
    6      O      -1.9816011641    -0.4157721681    -1.9101172087
    7      C      -0.6169072951    -1.0010519312    -1.8829369064
    8      C       0.1178003018    -0.2972393722    -0.6951284584
    9      O       1.4879998591    -0.8413711351    -0.5405004895
   10      C       2.1095024406    -0.1977290050     0.5753700597
   11      C       3.5643949533    -0.7619634992     0.7294051861
   12      C       4.4495221020    -0.6140009386    -0.5789016908
   13      C       3.7071887801     0.0721517764    -1.7740626754
   14      O       3.6250809061    -0.3392938094    -2.9511615130
   15      O      -2.3911335068     1.8985487838     1.3178900265
   16      O       3.1406701839     1.3073623995    -1.3131562471
   17      O       1.5425600756     0.6410561404     1.3120489529
   18      C       2.4176081746     1.9742268227    -2.4192357430
   19      C       4.3984605004     0.0911147774     1.7686992003
   20      C       5.6701629674    -0.7422895911     2.1905464517
   21      C       6.5569932322    -0.6140527318     0.8959689601
   22      C       5.6367896418     0.2880480493    -0.0192499241
   23      O       4.9593726685     1.1859337390     0.9419396252
   24      H       3.4913848614    -1.8229253510     1.0321585672
   25      H       4.8147429899    -1.5938251553    -0.9330886293
   26      H       3.7899047105     0.5046251678     2.5962575209
   27      H       6.1612458645    -0.2834887079     3.0634488823
   28      H       5.4200900638    -1.7874537875     2.4333599689
   29      H       7.5085936583    -0.1004801591     1.1067376445
   30      H       6.7773055736    -1.5883178537     0.4310415431
   31      H       6.1704710166     0.8761738773    -0.7909821812
   32      O      -2.7057435157    -2.4786409550    -0.9650883939
   33      C      -1.1661477236     1.8528432416     2.1616584501
   34      C      -5.3208204287     0.2295150661     1.0553530931
   35      C      -6.6826188347     0.5776084270     0.3327356025
   36      C      -6.7722509282    -0.5821828552    -0.7288353382
   37      C      -5.4151413603    -1.3405267942    -0.4593347083
   38      O      -5.2596413852    -1.2474365555     1.0115879991
   39      H      -4.2454473482     1.6803344202    -0.2914736011
   40      H      -4.5014960213     0.0200345641    -1.9873169155
   41      H      -0.2856844830     1.4058520359     1.6428305226
   42      H      -5.2348166018     0.5933951334     2.0978159583
   43      H      -7.5187042597     0.5389255986     1.0488416053
   44      H      -6.6601672663     1.5772384308    -0.1301138816
   45      H      -7.6295245069    -1.2446639222    -0.5289189108
   46      H      -6.8457208063    -0.2098477537    -1.7630245709
   47      H      -5.3778182457    -2.3987768936    -0.7829428480
   48      H      -1.3536153015     1.2812744632     3.0931352248
   49      H      -0.9487319173     2.9055808578     2.4181443574
   50      H       1.9062124294     2.8451601533    -1.9694539301
   51      H       1.6710795048     1.2993541681    -2.8846124158
   52      H       3.1147729480     2.3229802601    -3.2086969669
   53      H       0.1583292998     0.7971633551    -0.8838145206
   54      H      -0.4897383077    -0.4614962500     0.2279236402
   55      H      -0.1329408385    -0.7846204612    -2.8568553956
   56      H      -0.6767549286    -2.0982662964    -1.7200083848
 ----------------------------------------------------------------

    9   -1510.2936610904      4.27E-09 Convergence criterion met
 Total energy in the final basis set = -1510.29366109
 Final energy is   -1510.29366109036
 **  OPTIMIZATION CONVERGED  **

                    Orbital Energies (a.u.)
 --------------------------------------------------------------

 Alpha MOs
 -- Occupied --
-18.941 -18.934 -18.934 -18.925 -18.889 -18.888 -18.880 -18.879
-18.877 -18.873 -10.105 -10.104 -10.099 -10.098 -10.066 -10.064
-10.063 -10.061 -10.059 -10.058 -10.056 -10.051 -10.041 -10.039
-10.038 -10.037 -10.022 -10.021 -10.020 -10.020  -1.018  -1.016
 -1.007  -1.005  -0.971  -0.970  -0.940  -0.939  -0.935  -0.934
 -0.765  -0.763  -0.728  -0.723  -0.711  -0.706  -0.695  -0.661
 -0.660  -0.613  -0.598  -0.580  -0.547  -0.545  -0.538  -0.537
 -0.514  -0.510  -0.483  -0.477  -0.466  -0.460  -0.454  -0.443
 -0.436  -0.431  -0.428  -0.416  -0.413  -0.410  -0.407  -0.399
 -0.391  -0.380  -0.371  -0.368  -0.360  -0.358  -0.356  -0.351
 -0.345  -0.337  -0.335  -0.333  -0.331  -0.329  -0.324  -0.311
 -0.309  -0.306  -0.305  -0.299  -0.293  -0.292  -0.283  -0.278
 -0.269  -0.260  -0.251  -0.247  -0.245  -0.235  -0.234  -0.186
 -0.176  -0.173  -0.172  -0.159  -0.158  -0.152  -0.149  -0.145
 -0.144

          Ground-State Mulliken Net Atomic Charges

     Atom                 Charge (a.u.)
  ----------------------------------------
      1 O                    -0.215933
      2 C                     0.214325
      3 C                    -0.077765
      4 C                    -0.079327
      5 C                     0.214673
      6 O                    -0.180971
      7 C                    -0.053469
      8 C                    -0.063968
      9 O                    -0.174700
     10 C                     0.222004
     11 C                    -0.077965
     12 C                    -0.078977
     13 C                     0.211844
     14 O                    -0.213521
     15 O                    -0.166972
     16 O                    -0.168724
     17 O                    -0.216002
     18 C                    -0.128279
     19 C                     0.024718
     20 C                    -0.143976
     21 C                    -0.143772
     22 C                     0.025854
     23 O                    -0.186286
     24 H                     0.086492
     25 H                     0.085936
     26 H                     0.090219
     27 H                     0.078274
     28 H                     0.073709
     29 H                     0.078047
     30 H                     0.074136
     31 H                     0.082571
     32 O                    -0.205666
     33 C                    -0.141360
     34 C                     0.025754
     35 C                    -0.143961
     36 C                    -0.143578
     37 C                     0.025071
     38 O                    -0.186575
     39 H                     0.087705
     40 H                     0.085357
     41 H                     0.112431
     42 H                     0.083252
     43 H                     0.078687
     44 H                     0.074090
     45 H                     0.078634
     46 H                     0.073484
     47 H                     0.090147
     48 H                     0.084742
     49 H                     0.087993
     50 H                     0.091362
     51 H                     0.088291
     52 H                     0.087818
     53 H                     0.078951
     54 H                     0.107121
     55 H                     0.085972
     56 H                     0.102083
  ----------------------------------------
  Sum of atomic charges =     0.000000

                    Cartesian Multipole Moments
 -----------------------------------------------------------------
    Charge (ESU x 10^10)
                 0.0000
    Dipole Moment (Debye)
         X      -0.2529      Y       1.5231      Z      -0.3987
       Tot       1.5946
    Quadrupole Moments (Debye-Ang)
        XX    -140.5396     XY     -12.8272     YY    -164.9638
        XZ       8.2413     YZ      -2.9671     ZZ    -159.6661

 Total job time:  92.28s(wall), 4394.86s(cpu)
        *  Thank you very much for using Q-Chem.  Have a nice day.  *
