 Q-Chem 5.0, Q-Chem, Inc., Pleasanton, CA (2017)
 Q-Chem 5.0.1 for Intel X86 EM64T Linux

User input:
--------------------------------------------------------------
$molecule
0  1
O -3.94934 -3.66094 2.70899
C -3.26408 -4.56952 2.26188
C -3.36658 -6.02376 2.66595
C -4.07582 -6.33571 3.99393
C -4.75932 -5.1751 4.68233
O -3.92143 -4.62838 5.6121
C -4.49992 -3.5196 6.30865
C -4.31954 -2.23898 5.50019
O -4.36342 -1.09904 6.37282
C -4.28756 0.1081 5.75946
C -4.09259 1.24946 6.72897
C -2.77983 1.20588 7.5246
C -1.71838 0.26166 6.9969
O -0.61249 0.09186 7.4896
O -2.43985 -4.3062 1.2141
O -1.83788 -0.27733 5.75279
O -4.35606 0.26004 4.54487
C -0.87547 -1.03241 5.10757
C -3.96038 2.64207 6.07213
C -4.3441 3.72344 7.08174
C -3.16725 3.65361 8.03438
C -2.28039 2.64087 7.3013
O -2.57441 2.84653 5.94002
H -4.98757 1.25583 7.39158
H -2.95394 0.93072 8.58784
H -4.56474 2.7574 5.1463
H -4.30445 4.69641 6.54093
H -5.34378 3.61065 7.55367
H -2.68418 4.65524 8.06948
H -3.40844 3.30818 9.06316
H -1.215 2.76862 7.59504
O -5.95449 -4.914 4.58479
C -2.25169 -3.0525 0.67085
C -4.21018 -6.82579 1.66595
C -3.86711 -8.31152 1.76645
C -4.52817 -8.66217 3.08174
C -5.1494 -7.31159 3.45174
O -5.50496 -6.76109 2.20622
H -2.31912 -6.39925 2.70286
H -3.44889 -6.87532 4.73991
H -1.84411 -2.36059 1.43897
H -4.09644 -6.47259 0.61739
H -4.40032 -8.84613 0.9482
H -2.77929 -8.53129 1.70709
H -5.34 -9.39658 2.88015
H -3.84937 -9.05874 3.86725
H -5.98367 -7.46966 4.17082
H -3.2131 -2.65575 0.28019
H -1.52784 -3.12369 -0.16665
H -1.25122 -1.32472 4.10551
H -0.65721 -1.9522 5.69124
H 0.05398 -0.43852 4.97603
H -3.32174 -2.26764 5.01764
H -5.10265 -2.19521 4.71128
H -3.86214 -3.39365 7.20992
H -5.53316 -3.68694 6.68793
$end

$opt
CONSTRAINT
tors           1           2           3           4     -18.466
tors           3           4           5           6     -94.927
tors           4           5           6           7    -180.000
tors           5           6           7           8     -84.164
tors           6           7           8           9    -155.847
tors           7           8           9          10    -176.520
tors           8           9          10          11    -169.826
tors           9          10          11          12     +63.244
tors          11          12          13          14    +179.800
ENDCONSTRAINT
$end

$rem
JOBTYPE                   OPT
METHOD                    B3LYP
DFT_D                     d3_op
BASIS                     STO-3G
GEOM_OPT_MAX_CYCLES       100
GEOM_OPT_TOL_GRADIENT     300
GEOM_OPT_TOL_DISPLACEMENT 1200
GEOM_OPT_TOL_ENERGY       100
SYMMETRY                  False
THRESH                    12
SCF_CONVERGENCE           8
MAX_SUB_FILE_NUM          128
MEM_STATIC                400
MEM_TOTAL                 4000
$end
--------------------------------------------------------------

   15   -1510.1511291544      9.59E-09 Convergence criterion met
 Total energy in the final basis set = -1510.15112915
   13   -1510.2223389122      6.18E-09 Convergence criterion met
 Total energy in the final basis set = -1510.22233891
   13   -1510.2606588843      6.66E-09 Convergence criterion met
 Total energy in the final basis set = -1510.26065888
   14   -1510.2764229651      5.86E-09 Convergence criterion met
 Total energy in the final basis set = -1510.27642297
   14   -1510.2794317639      3.16E-09 Convergence criterion met
 Total energy in the final basis set = -1510.27943176
   13   -1510.2819275887      3.15E-09 Convergence criterion met
 Total energy in the final basis set = -1510.28192759
   13   -1510.2824156438      2.54E-09 Convergence criterion met
 Total energy in the final basis set = -1510.28241564
   12   -1510.2826422150      3.93E-09 Convergence criterion met
    9   -1510.2827285661      7.98E-09 Convergence criterion met
 Total energy in the final basis set = -1510.28272857
    9   -1510.2827336083      6.42E-09 Convergence criterion met
 Total energy in the final basis set = -1510.28273361
    9   -1510.2827359756      5.89E-09 Convergence criterion met
 Total energy in the final basis set = -1510.28273598
    9   -1510.2827385359      3.23E-09 Convergence criterion met
 Total energy in the final basis set = -1510.28273854
    9   -1510.2827403147      4.14E-09 Convergence criterion met
 Total energy in the final basis set = -1510.28274031
    9   -1510.2827413952      4.55E-09 Convergence criterion met
 Total energy in the final basis set = -1510.28274140

             Standard Nuclear Orientation (Angstroms)
    I     Atom           X                Y                Z
 ----------------------------------------------------------------
    1      O      -2.1348143617     0.7277824249     0.8909985122
    2      C      -3.0799194792     1.3153994065     0.3178891492
    3      C      -4.3229798743     0.6594779242    -0.3631468279
    4      C      -4.1102860131    -0.8742807439    -0.6957552712
    5      C      -2.7972901177    -1.4944381969    -0.0819414456
    6      O      -1.7758540777    -1.4271043995    -1.0935432935
    7      C      -0.5074923485    -1.9961493537    -0.5819369529
    8      C       0.2993362677    -0.9203017733     0.2283316616
    9      O       1.7232320682    -1.3290094527     0.1886407067
   10      C       2.5130188568    -0.4300166022     0.9815612605
   11      C       4.0236283796    -0.7482754828     0.6928760106
   12      C       4.5269131822    -0.5125509565    -0.7911455992
   13      C       3.6345653167     0.3763699014    -1.7330288763
   14      O       3.8937429494     0.6581127365    -2.9237444961
   15      O      -3.1842187771     2.7358201999     0.2067446360
   16      O       2.5490102216     0.9605107452    -1.0097800988
   17      O       2.0549610826     0.3965852332     1.7976977779
   18      C       1.7680679069     1.8647048502    -1.8826993807
   19      C       5.0209869701     0.1711499220     1.5167184822
   20      C       6.3669218385    -0.6290354437     1.6969071595
   21      C       6.9164281620    -0.6088140623     0.2218669667
   22      C       5.8545759366     0.3182199074    -0.4946868833
   23      O       5.4012646869     1.2444745273     0.5679657052
   24      H       4.1801950985    -1.8113351389     0.9543249341
   25      H       4.7390931543    -1.4641114796    -1.3109381718
   26      H       4.5785870462     0.6034598296     2.4354442916
   27      H       7.0425834350    -0.0943826535     2.3837033977
   28      H       6.2049661816    -1.6487776752     2.0809120477
   29      H       7.9210327083    -0.1607207986     0.1659049503
   30      H       6.9528292402    -1.6128741142    -0.2307657248
   31      H       6.2354396092     0.8799782135    -1.3699831666
   32      O      -2.6746754100    -2.1001020477     1.0032435226
   33      C      -2.0311785457     3.3785082800     0.8818784075
   34      C      -5.6011057174     0.5951730011     0.5879951098
   35      C      -6.8685439006     0.3897790900    -0.3313846135
   36      C      -6.6794068652    -1.1105298409    -0.7680010480
   37      C      -5.3734864537    -1.5032217662     0.0293393316
   38      O      -5.4636092303    -0.7055611081     1.2761121782
   39      H      -4.5551860739     1.2380742402    -1.2751979151
   40      H      -4.1053188023    -1.0504690049    -1.7856286920
   41      H      -1.0658247192     3.0182879764     0.4715064369
   42      H      -5.6750720697     1.4228001897     1.3200753847
   43      H      -7.7913928551     0.5264719129     0.2548949909
   44      H      -6.8835791068     1.0863564667    -1.1847344166
   45      H      -7.5291543218    -1.7350073825    -0.4500778597
   46      H      -6.5471741520    -1.2222072800    -1.8561870009
   47      H      -5.2683767180    -2.5783513629     0.2712181679
   48      H      -2.0405420608     3.1851135221     1.9740124683
   49      H      -2.1344840827     4.4633755832     0.6966013083
   50      H       0.9942000343     2.3160511953    -1.2346126221
   51      H       1.2816809742     1.3104965755    -2.7116830203
   52      H       2.4054107149     2.6624542324    -2.3152984921
   53      H       0.1730703565     0.0750103667    -0.2495924950
   54      H      -0.0795439204    -0.8464771815     1.2697564069
   55      H       0.0761631286    -2.2939678627    -1.4768839675
   56      H      -0.7040242320    -2.8871360965     0.0505600226
 ----------------------------------------------------------------

    9   -1510.2827412007      2.97E-09 Convergence criterion met
 Total energy in the final basis set = -1510.28274120
 Final energy is   -1510.28274120074
 **  OPTIMIZATION CONVERGED  **

                    Orbital Energies (a.u.)
 --------------------------------------------------------------

 Alpha MOs
 -- Occupied --
-18.944 -18.942 -18.922 -18.917 -18.890 -18.886 -18.884 -18.874
-18.865 -18.863 -10.107 -10.101 -10.093 -10.093 -10.070 -10.069
-10.064 -10.063 -10.059 -10.059 -10.058 -10.054 -10.041 -10.038
-10.036 -10.032 -10.022 -10.021 -10.019 -10.017  -1.020  -1.016
 -1.002  -0.997  -0.972  -0.968  -0.944  -0.938  -0.930  -0.924
 -0.765  -0.761  -0.726  -0.722  -0.711  -0.703  -0.691  -0.668
 -0.665  -0.613  -0.597  -0.578  -0.547  -0.542  -0.537  -0.535
 -0.514  -0.509  -0.484  -0.476  -0.464  -0.457  -0.453  -0.444
 -0.435  -0.432  -0.422  -0.417  -0.416  -0.413  -0.409  -0.394
 -0.386  -0.379  -0.376  -0.372  -0.360  -0.356  -0.353  -0.343
 -0.343  -0.338  -0.336  -0.331  -0.329  -0.327  -0.319  -0.313
 -0.307  -0.306  -0.305  -0.301  -0.298  -0.291  -0.277  -0.275
 -0.268  -0.261  -0.245  -0.244  -0.241  -0.235  -0.232  -0.186
 -0.181  -0.170  -0.164  -0.159  -0.155  -0.146  -0.144  -0.143
 -0.141

          Ground-State Mulliken Net Atomic Charges

     Atom                 Charge (a.u.)
  ----------------------------------------
      1 O                    -0.207526
      2 C                     0.211590
      3 C                    -0.079723
      4 C                    -0.080612
      5 C                     0.214186
      6 O                    -0.178900
      7 C                    -0.049900
      8 C                    -0.049112
      9 O                    -0.181697
     10 C                     0.220983
     11 C                    -0.080973
     12 C                    -0.076395
     13 C                     0.212623
     14 O                    -0.216255
     15 O                    -0.168602
     16 O                    -0.165581
     17 O                    -0.215714
     18 C                    -0.125336
     19 C                     0.023684
     20 C                    -0.142784
     21 C                    -0.144874
     22 C                     0.024423
     23 O                    -0.191711
     24 H                     0.082749
     25 H                     0.086326
     26 H                     0.090760
     27 H                     0.077712
     28 H                     0.073358
     29 H                     0.078118
     30 H                     0.073534
     31 H                     0.084748
     32 O                    -0.213018
     33 C                    -0.128207
     34 C                     0.026100
     35 C                    -0.142675
     36 C                    -0.144975
     37 C                     0.026242
     38 O                    -0.185349
     39 H                     0.086210
     40 H                     0.084903
     41 H                     0.089901
     42 H                     0.084628
     43 H                     0.078719
     44 H                     0.073952
     45 H                     0.078586
     46 H                     0.073536
     47 H                     0.087353
     48 H                     0.092932
     49 H                     0.092266
     50 H                     0.090164
     51 H                     0.089773
     52 H                     0.093631
     53 H                     0.084569
     54 H                     0.099866
     55 H                     0.087945
     56 H                     0.093847
  ----------------------------------------
  Sum of atomic charges =    -0.000000

                    Cartesian Multipole Moments
 -----------------------------------------------------------------
    Charge (ESU x 10^10)
                 0.0000
    Dipole Moment (Debye)
         X      -0.8975      Y       0.3461      Z      -2.0431
       Tot       2.2582
    Quadrupole Moments (Debye-Ang)
        XX    -144.0032     XY     -12.4853     YY    -154.2552
        XZ      12.0577     YZ       2.4107     ZZ    -167.2821

 Total job time:  49.77s(wall), 2369.41s(cpu)
        *  Thank you very much for using Q-Chem.  Have a nice day.  *
