 Q-Chem 5.0, Q-Chem, Inc., Pleasanton, CA (2017)
 Q-Chem 5.0.1 for Intel X86 EM64T Linux

User input:
--------------------------------------------------------------
$molecule
0  1
O -2.1348143617 0.7277824249 0.8909985122
C -3.0799194792 1.3153994065 0.3178891492
C -4.3229798743 0.6594779242 -0.3631468279
C -4.1102860131 -0.8742807439 -0.6957552712
C -2.7972901177 -1.4944381969 -0.0819414456
O -1.7758540777 -1.4271043995 -1.0935432935
C -0.5074923485 -1.9961493537 -0.5819369529
C 0.2993362677 -0.9203017733 0.2283316616
O 1.7232320682 -1.3290094527 0.1886407067
C 2.5130188568 -0.4300166022 0.9815612605
C 4.0236283796 -0.7482754828 0.6928760106
C 4.5269131822 -0.5125509565 -0.7911455992
C 3.6345653167 0.3763699014 -1.7330288763
O 3.8937429494 0.6581127365 -2.9237444961
O -3.1842187771 2.7358201999 0.206744636
O 2.5490102216 0.9605107452 -1.0097800988
O 2.0549610826 0.3965852332 1.7976977779
C 1.7680679069 1.8647048502 -1.8826993807
C 5.0209869701 0.171149922 1.5167184822
C 6.3669218385 -0.6290354437 1.6969071595
C 6.916428162 -0.6088140623 0.2218669667
C 5.8545759366 0.3182199074 -0.4946868833
O 5.4012646869 1.2444745273 0.5679657052
H 4.1801950985 -1.8113351389 0.9543249341
H 4.7390931543 -1.4641114796 -1.3109381718
H 4.5785870462 0.6034598296 2.4354442916
H 7.042583435 -0.0943826535 2.3837033977
H 6.2049661816 -1.6487776752 2.0809120477
H 7.9210327083 -0.1607207986 0.1659049503
H 6.9528292402 -1.6128741142 -0.2307657248
H 6.2354396092 0.8799782135 -1.3699831666
O -2.67467541 -2.1001020477 1.0032435226
C -2.0311785457 3.37850828 0.8818784075
C -5.6011057174 0.5951730011 0.5879951098
C -6.8685439006 0.38977909 -0.3313846135
C -6.6794068652 -1.1105298409 -0.768001048
C -5.3734864537 -1.5032217662 0.0293393316
O -5.4636092303 -0.7055611081 1.2761121782
H -4.5551860739 1.2380742402 -1.2751979151
H -4.1053188023 -1.0504690049 -1.785628692
H -1.0658247192 3.0182879764 0.4715064369
H -5.6750720697 1.4228001897 1.3200753847
H -7.7913928551 0.5264719129 0.2548949909
H -6.8835791068 1.0863564667 -1.1847344166
H -7.5291543218 -1.7350073825 -0.4500778597
H -6.547174152 -1.22220728 -1.8561870009
H -5.268376718 -2.5783513629 0.2712181679
H -2.0405420608 3.1851135221 1.9740124683
H -2.1344840827 4.4633755832 0.6966013083
H 0.9942000343 2.3160511953 -1.2346126221
H 1.2816809742 1.3104965755 -2.7116830203
H 2.4054107149 2.6624542324 -2.3152984921
H 0.1730703565 0.0750103667 -0.249592495
H -0.0795439204 -0.8464771815 1.2697564069
H 0.0761631286 -2.2939678627 -1.4768839675
H -0.704024232 -2.8871360965 0.0505600226
$end

$rem
JOBTYPE                   OPT
METHOD                    B3LYP
DFT_D                     d3_op
BASIS                     STO-3G
GEOM_OPT_MAX_CYCLES       100
GEOM_OPT_TOL_GRADIENT     300
GEOM_OPT_TOL_DISPLACEMENT 1200
GEOM_OPT_TOL_ENERGY       100
SYMMETRY                  False
THRESH                    12
SCF_CONVERGENCE           8
MAX_SUB_FILE_NUM          128
MEM_STATIC                400
MEM_TOTAL                 4000
$end
--------------------------------------------------------------

   16   -1510.2825225620      5.37E-09 Convergence criterion met
 Total energy in the final basis set = -1510.28252256
   13   -1510.2831039309      9.76E-09 Convergence criterion met
 Total energy in the final basis set = -1510.28310393
   13   -1510.2842957801      9.62E-09 Convergence criterion met
 Total energy in the final basis set = -1510.28429578
   13   -1510.2850400407      4.66E-09 Convergence criterion met
 Total energy in the final basis set = -1510.28504004
   13   -1510.2859539408      3.44E-09 Convergence criterion met
 Total energy in the final basis set = -1510.28595394
   13   -1510.2869147006      2.42E-09 Convergence criterion met
 Total energy in the final basis set = -1510.28691470
   13   -1510.2877946766      3.66E-09 Convergence criterion met
 Total energy in the final basis set = -1510.28779468
   13   -1510.2886488036      2.50E-09 Convergence criterion met
   13   -1510.3084318761      2.18E-09 Convergence criterion met
 Total energy in the final basis set = -1510.30843188
   12   -1510.3085440111      7.80E-09 Convergence criterion met
 Total energy in the final basis set = -1510.30854401
   12   -1510.3085733533      3.28E-09 Convergence criterion met
 Total energy in the final basis set = -1510.30857335
   11   -1510.3085760598      8.12E-09 Convergence criterion met
 Total energy in the final basis set = -1510.30857606
   11   -1510.3085789990      4.99E-09 Convergence criterion met
 Total energy in the final basis set = -1510.30857900
    9   -1510.3085818263      7.06E-09 Convergence criterion met
 Total energy in the final basis set = -1510.30858183

             Standard Nuclear Orientation (Angstroms)
    I     Atom           X                Y                Z
 ----------------------------------------------------------------
    1      O      -1.3953472666    -0.3858000041     1.3037965081
    2      C      -1.6435921554     0.6466456062     0.6345247268
    3      C      -2.8617356248     0.8394311923    -0.3301542400
    4      C      -3.4073881061    -0.5257520390    -0.9225240932
    5      C      -2.5981852565    -1.7998546829    -0.4851400701
    6      O      -1.3656851535    -1.8306148016    -1.2362352794
    7      C      -0.5221641661    -2.9772950601    -0.8237715176
    8      C       0.2445582932    -2.6866647680     0.5149988716
    9      O       1.5746594546    -2.1133929519     0.1796367833
   10      C       2.0267052331    -1.2499577360     1.2206890440
   11      C       3.4373976378    -0.6728580191     0.8413714055
   12      C       3.6111113629    -0.2015318952    -0.6642239645
   13      C       2.3528656598    -0.3978969268    -1.5827949766
   14      O       2.2439563391    -1.1837458899    -2.5498481359
   15      O      -0.8823515295     1.8424007367     0.6535364691
   16      O       1.3685800723     0.5611307569    -1.1993419311
   17      O       1.3967077061    -1.0211937233     2.2773003522
   18      C       0.1946444352     0.4863423609    -2.1023714848
   19      C       3.7075243854     0.6761747775     1.6248303094
   20      C       5.2516752220     0.9888114044     1.5805610750
   21      C       5.4234060007     1.4640554547     0.0891505792
   22      C       3.9437755299     1.3380497903    -0.4476717302
   23      O       3.1257055089     1.7085521919     0.7324220197
   24      H       4.1931803024    -1.4402112996     1.0934658962
   25      H       4.4520857051    -0.7337908081    -1.1422290121
   26      H       3.2291016927     0.7119693538     2.6230574119
   27      H       5.5045132741     1.7910192818     2.2919154856
   28      H       5.8596181237     0.1011348936     1.8175312565
   29      H       5.7637397323     2.5104378604     0.0354249133
   30      H       6.1249460784     0.8343952588    -0.4809501711
   31      H       3.6946728656     1.9881501020    -1.3083546288
   32      O      -2.9683575351    -2.7173536990     0.2748967296
   33      C       0.2789725795     1.7331102115     1.5762042375
   34      C      -4.1433913369     1.3430517337     0.4702598070
   35      C      -5.2211029427     1.8397661322    -0.5727038513
   36      C      -5.7633175433     0.4699300333    -1.1269386508
   37      C      -4.8742967287    -0.5555851808    -0.3219131139
   38      O      -4.7181867610     0.0889081740     1.0033171555
   39      H      -2.5782150994     1.5516411568    -1.1239247710
   40      H      -3.4152786350    -0.4904946498    -2.0270708294
   41      H       0.2469617102     0.7647063753     2.1156168202
   42      H      -3.9194315690     2.0518185505     1.2910584154
   43      H      -6.0126472823     2.4128463166    -0.0642786639
   44      H      -4.7771818861     2.4714855026    -1.3585510516
   45      H      -6.8283256587     0.3292849337    -0.8830058186
   46      H      -5.6342839298     0.3685695400    -2.2164475567
   47      H      -5.2934779126    -1.5738933283    -0.2067082250
   48      H       0.2208417642     2.5755457650     2.2914372485
   49      H       1.2323973184     1.7893369726     0.9962827776
   50      H      -0.3557970816     1.4321415961    -1.9512714237
   51      H      -0.4538190417    -0.3839412100    -1.8332079223
   52      H       0.5110510385     0.3985304426    -3.1603356338
   53      H      -0.3363868745    -1.9584863852     1.1304367661
   54      H       0.3848810013    -3.6300731564     1.0853497290
   55      H       0.2002216322    -3.1329334986    -1.6513207750
   56      H      -1.1543991791    -3.8812021474    -0.6956949131
 ----------------------------------------------------------------

    9   -1510.3085824339      4.25E-09 Convergence criterion met
 Total energy in the final basis set = -1510.30858243
 Final energy is   -1510.30858243389
 **  OPTIMIZATION CONVERGED  **

                    Orbital Energies (a.u.)
 --------------------------------------------------------------

 Alpha MOs
 -- Occupied --
-18.936 -18.936 -18.933 -18.921 -18.900 -18.888 -18.879 -18.877
-18.876 -18.860 -10.103 -10.102 -10.102 -10.091 -10.072 -10.065
-10.063 -10.062 -10.059 -10.059 -10.041 -10.039 -10.038 -10.036
-10.035 -10.028 -10.024 -10.023 -10.021 -10.020  -1.017  -1.011
 -1.006  -0.999  -0.977  -0.971  -0.941  -0.936  -0.934  -0.924
 -0.766  -0.764  -0.729  -0.724  -0.711  -0.708  -0.698  -0.651
 -0.645  -0.615  -0.598  -0.580  -0.549  -0.543  -0.541  -0.536
 -0.512  -0.511  -0.485  -0.469  -0.468  -0.459  -0.454  -0.441
 -0.436  -0.432  -0.427  -0.417  -0.407  -0.405  -0.401  -0.399
 -0.390  -0.371  -0.369  -0.363  -0.362  -0.357  -0.351  -0.349
 -0.341  -0.339  -0.337  -0.334  -0.330  -0.327  -0.322  -0.313
 -0.311  -0.309  -0.305  -0.297  -0.293  -0.286  -0.285  -0.277
 -0.272  -0.256  -0.248  -0.241  -0.238  -0.235  -0.234  -0.186
 -0.175  -0.170  -0.163  -0.158  -0.156  -0.152  -0.151  -0.145
 -0.141

          Ground-State Mulliken Net Atomic Charges

     Atom                 Charge (a.u.)
  ----------------------------------------
      1 O                    -0.218319
      2 C                     0.217664
      3 C                    -0.078262
      4 C                    -0.080651
      5 C                     0.218652
      6 O                    -0.177605
      7 C                    -0.049908
      8 C                    -0.063555
      9 O                    -0.172724
     10 C                     0.214211
     11 C                    -0.078821
     12 C                    -0.080233
     13 C                     0.211369
     14 O                    -0.220808
     15 O                    -0.168267
     16 O                    -0.176438
     17 O                    -0.211593
     18 C                    -0.151587
     19 C                     0.024385
     20 C                    -0.143563
     21 C                    -0.143684
     22 C                     0.027846
     23 O                    -0.186871
     24 H                     0.085699
     25 H                     0.084248
     26 H                     0.092185
     27 H                     0.079253
     28 H                     0.074792
     29 H                     0.078782
     30 H                     0.075129
     31 H                     0.086420
     32 O                    -0.205989
     33 C                    -0.156119
     34 C                     0.025843
     35 C                    -0.143756
     36 C                    -0.144008
     37 C                     0.025425
     38 O                    -0.186636
     39 H                     0.086053
     40 H                     0.084804
     41 H                     0.102398
     42 H                     0.084952
     43 H                     0.078769
     44 H                     0.074017
     45 H                     0.078719
     46 H                     0.073202
     47 H                     0.089766
     48 H                     0.076655
     49 H                     0.114171
     50 H                     0.080657
     51 H                     0.107129
     52 H                     0.081089
     53 H                     0.124633
     54 H                     0.083859
     55 H                     0.101285
     56 H                     0.095336
  ----------------------------------------
  Sum of atomic charges =     0.000000

                    Cartesian Multipole Moments
 -----------------------------------------------------------------
    Charge (ESU x 10^10)
                -0.0000
    Dipole Moment (Debye)
         X       1.4340      Y       1.2337      Z      -1.6677
       Tot       2.5219
    Quadrupole Moments (Debye-Ang)
        XX    -142.8567     XY      -4.6341     YY    -158.6811
        XZ      13.3811     YZ      -0.1202     ZZ    -164.9399

 Total job time:  175.66s(wall), 8384.25s(cpu)
        *  Thank you very much for using Q-Chem.  Have a nice day.  *
