 Q-Chem 5.0, Q-Chem, Inc., Pleasanton, CA (2017)
 Q-Chem 5.0.1 for Intel X86 EM64T Linux

User input:
--------------------------------------------------------------
$molecule
0  1
O -1.9461899905 -0.4682491119 -1.0183174574
C -2.8364685455 -1.2380271892 -0.5964859662
C -4.0188381697 -0.8626801791 0.3605563332
C -4.1446095083 0.7023208298 0.5357571929
C -2.8574073869 1.5508113325 0.2069463895
O -1.8955831484 1.2829455708 1.245401588
C -0.5653880642 1.8464302964 0.9150826151
C 0.2560018369 0.9281038061 -0.0549633372
O 1.6582741279 1.4097957307 -0.0032341887
C 2.4587352278 0.6634250982 -0.9336392092
C 3.9688880796 0.8934002918 -0.5709368198
C 4.3940300104 0.5796915433 0.9199033543
C 3.47407606 -0.4024335388 1.7347108422
O 3.6592195047 -0.7597129004 2.9188370641
O -2.9069352588 -2.6261018132 -0.9201289945
O 2.4981166476 -1.0061057002 0.8800998627
O 2.0071016728 -0.0192811961 -1.8767719675
C 1.7354528062 -2.0399021985 1.6150212916
C 4.9745313139 -0.0189916078 -1.3934376091
C 6.3317140184 0.7734077485 -1.5112093357
C 6.8222418574 0.7254958696 -0.0157594093
C 5.7421593568 -0.2254251253 0.6396695225
O 5.3230578941 -1.12064313 -0.4647015512
H 4.1816617713 1.959792679 -0.775834169
H 4.5580515907 1.4963063808 1.5138471491
H 4.5527997146 -0.4195462616 -2.3360528145
H 7.0299429072 0.2436939299 -2.1790729168
H 6.1919657616 1.8000864563 -1.8853033616
H 7.8276932249 0.2842137861 0.0706532521
H 6.8322726644 1.7200889768 0.4586322672
H 6.0996997438 -0.8138993914 1.5071777224
O -2.7081650025 2.3896249042 -0.7055138518
C -1.8032494519 -2.983999181 -1.8433474711
C -5.3758219225 -1.1639861885 -0.4091200128
C -6.6117672225 -0.8620985953 0.5287988134
C -6.6913379643 0.7084184914 0.4443285721
C -5.3923623082 1.0204627304 -0.3940189724
O -5.3929664322 -0.0649760706 -1.4039752402
H -3.9246964297 -1.4021953781 1.3202051455
H -4.3942634366 0.922946707 1.5900719437
H -0.8109000804 -2.7919418185 -1.3863727684
H -5.3897780045 -2.1496866447 -0.913396991
H -7.523010571 -1.339453028 0.1351617041
H -6.4413797896 -1.2217151299 1.5564536652
H -7.588925197 1.034521957 -0.1053409999
H -6.6853141633 1.1927945583 1.43363196
H -5.3529266028 2.0108490367 -0.8879079068
H -1.8679968966 -2.4151452935 -2.7930495387
H -1.9160823219 -4.0644405781 -2.0479660867
H 1.0295892653 -2.4728153011 0.8822556068
H 1.1699575385 -1.6044968305 2.4642950211
H 2.4026560765 -2.8354915725 2.0046567836
H 0.2047697267 -0.1282227174 0.2827937306
H -0.1537773757 0.9761380877 -1.0850486461
H -0.0283416157 1.9305766455 1.8820106714
H -0.6705113755 2.8581046071 0.4678262204
$end

$rem
JOBTYPE                   OPT
METHOD                    B3LYP
DFT_D                     d3_op
BASIS                     STO-3G
GEOM_OPT_MAX_CYCLES       100
GEOM_OPT_TOL_GRADIENT     300
GEOM_OPT_TOL_DISPLACEMENT 1200
GEOM_OPT_TOL_ENERGY       100
SYMMETRY                  False
THRESH                    12
SCF_CONVERGENCE           8
MAX_SUB_FILE_NUM          128
MEM_STATIC                400
MEM_TOTAL                 4000
$end
--------------------------------------------------------------

   16   -1510.2793350105      5.29E-09 Convergence criterion met
 Total energy in the final basis set = -1510.27933501
   14   -1510.2816036755      4.18E-09 Convergence criterion met
 Total energy in the final basis set = -1510.28160368
   13   -1510.2838704620      7.88E-09 Convergence criterion met
 Total energy in the final basis set = -1510.28387046
   13   -1510.2851500210      5.46E-09 Convergence criterion met
 Total energy in the final basis set = -1510.28515002
   13   -1510.2862124908      4.49E-09 Convergence criterion met
 Total energy in the final basis set = -1510.28621249
   13   -1510.2871095858      3.73E-09 Convergence criterion met
 Total energy in the final basis set = -1510.28710959
   13   -1510.2879873775      3.84E-09 Convergence criterion met
 Total energy in the final basis set = -1510.28798738
   13   -1510.2888441421      7.20E-09 Convergence criterion met
   13   -1510.2934274639      2.08E-09 Convergence criterion met
 Total energy in the final basis set = -1510.29342746
   12   -1510.2934669795      4.40E-09 Convergence criterion met
 Total energy in the final basis set = -1510.29346698
   13   -1510.2934707973      1.33E-09 Convergence criterion met
 Total energy in the final basis set = -1510.29347080
   12   -1510.2935045434      6.31E-09 Convergence criterion met
 Total energy in the final basis set = -1510.29350454
   10   -1510.2935027707      5.98E-09 Convergence criterion met
 Total energy in the final basis set = -1510.29350277
    9   -1510.2935043566      6.45E-09 Convergence criterion met
 Total energy in the final basis set = -1510.29350436

             Standard Nuclear Orientation (Angstroms)
    I     Atom           X                Y                Z
 ----------------------------------------------------------------
    1      O      -2.1983952598    -0.0317829467     1.4152896945
    2      C      -2.7516106652     0.8678667936     0.7372789662
    3      C      -4.0328254987     0.7089362069    -0.1498492341
    4      C      -4.1575495280    -0.7238980280    -0.8261311840
    5      C      -2.9049996375    -1.6407099171    -0.5912921198
    6      O      -1.8583036630    -1.1354690836    -1.4389300777
    7      C      -0.5450114440    -1.7102481677    -1.0548446367
    8      C       0.1466146148    -0.6170287138    -0.1754762992
    9      O       1.5363688375    -1.0202037761     0.1415941687
   10      C       2.1966984185     0.0678953442     0.7935213257
   11      C       3.6956328685    -0.3321157654     1.0192674863
   12      C       4.4224813140    -0.8095863412    -0.3075099346
   13      C       3.5137709472    -0.7580181409    -1.5834404570
   14      O       3.3061615703    -1.6752843572    -2.4060329772
   15      O      -2.3028283834     2.2171566039     0.6829169869
   16      O       2.9726858792     0.5665262771    -1.7002307463
   17      O       1.6370585362     1.1364807489     1.1288849094
   18      C       2.1433914287     0.6721501020    -2.9213817685
   19      C       4.5692677542     0.9263482253     1.4194303720
   20      C       5.9339006601     0.4127343580     2.0224673937
   21      C       6.6675204946    -0.0886272842     0.7227262046
   22      C       5.5983492283     0.2590895597    -0.3882464421
   23      O       4.9640442084     1.4995602478     0.1107080406
   24      H       3.7320446257    -1.1223747564     1.7920387637
   25      H       4.8078568917    -1.8396577660    -0.2125760083
   26      H       4.0208080776     1.6767057915     2.0214115336
   27      H       6.4798993324     1.2412871862     2.5009616427
   28      H       5.7860743933    -0.3884745945     2.7641447998
   29      H       7.6015616997     0.4677965468     0.5445053181
   30      H       6.8980641266    -1.1655622060     0.7525127231
   31      H       6.0087682514     0.4139627620    -1.4049072447
   32      O      -2.8097175246    -2.6559118891     0.1286132692
   33      C      -1.1391556622     2.4192307661     1.5880025424
   34      C      -5.3416472764     0.7079592856     0.7589479338
   35      C      -6.6059595698     0.8540001323    -0.1790502118
   36      C      -6.7136145119    -0.5978487689    -0.7781224424
   37      C      -5.4574799828    -1.2889121311    -0.1181045124
   38      O      -5.4111043721    -0.6898973197     1.2366562796
   39      H      -4.0516650199     1.5232812939    -0.8953621896
   40      H      -4.3008240458    -0.6163803469    -1.9165200248
   41      H      -0.2216569194     1.8840382115     1.2462126962
   42      H      -5.3069528472     1.4109521555     1.6140266407
   43      H      -7.4967635397     1.1156990576     0.4138379595
   44      H      -6.4577400195     1.6243152743    -0.9526495182
   45      H      -7.6413626622    -1.0974792630    -0.4570433501
   46      H      -6.6666260862    -0.6101585600    -1.8787383847
   47      H      -5.4925706826    -2.3933815789    -0.0492057971
   48      H      -1.3788624975     2.0895293621     2.6186777702
   49      H      -0.9505080063     3.5081259577     1.5847951468
   50      H       1.6448597080     1.6575051108    -2.8687042357
   51      H       1.3811222166    -0.1309904693    -2.9735093950
   52      H       2.7657124257     0.6230945923    -3.8386075630
   53      H       0.1492219385     0.3434258607    -0.7343078091
   54      H      -0.4648114693    -0.4672349341     0.7463896286
   55      H       0.0286614986    -1.9083710966    -1.9834811081
   56      H      -0.6904224553    -2.6540848016    -0.4878408879
 ----------------------------------------------------------------

    9   -1510.2935042236      3.25E-09 Convergence criterion met
 Total energy in the final basis set = -1510.29350422
 Final energy is   -1510.29350422356
 **  OPTIMIZATION CONVERGED  **

                    Orbital Energies (a.u.)
 --------------------------------------------------------------

 Alpha MOs
 -- Occupied --
-18.940 -18.937 -18.933 -18.925 -18.889 -18.888 -18.882 -18.878
-18.877 -18.873 -10.106 -10.103 -10.099 -10.098 -10.067 -10.064
-10.063 -10.061 -10.059 -10.059 -10.059 -10.050 -10.040 -10.040
-10.038 -10.038 -10.022 -10.021 -10.020 -10.020  -1.019  -1.015
 -1.007  -1.006  -0.971  -0.970  -0.942  -0.938  -0.935  -0.935
 -0.766  -0.764  -0.728  -0.724  -0.711  -0.707  -0.696  -0.661
 -0.659  -0.614  -0.598  -0.581  -0.547  -0.545  -0.538  -0.538
 -0.515  -0.510  -0.484  -0.478  -0.466  -0.461  -0.454  -0.443
 -0.437  -0.432  -0.428  -0.416  -0.412  -0.410  -0.407  -0.400
 -0.391  -0.382  -0.371  -0.369  -0.361  -0.357  -0.355  -0.351
 -0.346  -0.337  -0.336  -0.333  -0.332  -0.329  -0.325  -0.311
 -0.310  -0.307  -0.305  -0.300  -0.294  -0.292  -0.283  -0.278
 -0.271  -0.260  -0.251  -0.248  -0.247  -0.235  -0.235  -0.186
 -0.176  -0.175  -0.173  -0.160  -0.158  -0.152  -0.149  -0.145
 -0.144

          Ground-State Mulliken Net Atomic Charges

     Atom                 Charge (a.u.)
  ----------------------------------------
      1 O                    -0.216842
      2 C                     0.212367
      3 C                    -0.077969
      4 C                    -0.079193
      5 C                     0.214871
      6 O                    -0.181312
      7 C                    -0.053161
      8 C                    -0.062107
      9 O                    -0.173686
     10 C                     0.222009
     11 C                    -0.077893
     12 C                    -0.078717
     13 C                     0.211896
     14 O                    -0.214707
     15 O                    -0.167597
     16 O                    -0.169824
     17 O                    -0.214541
     18 C                    -0.128761
     19 C                     0.024589
     20 C                    -0.143852
     21 C                    -0.143900
     22 C                     0.025913
     23 O                    -0.185923
     24 H                     0.086555
     25 H                     0.085912
     26 H                     0.090203
     27 H                     0.078387
     28 H                     0.073621
     29 H                     0.078154
     30 H                     0.074138
     31 H                     0.082609
     32 O                    -0.204788
     33 C                    -0.142010
     34 C                     0.025833
     35 C                    -0.143912
     36 C                    -0.143650
     37 C                     0.025079
     38 O                    -0.186389
     39 H                     0.087462
     40 H                     0.085381
     41 H                     0.110293
     42 H                     0.083309
     43 H                     0.078592
     44 H                     0.074042
     45 H                     0.078611
     46 H                     0.073443
     47 H                     0.089901
     48 H                     0.085820
     49 H                     0.087734
     50 H                     0.091517
     51 H                     0.088234
     52 H                     0.086979
     53 H                     0.082098
     54 H                     0.105632
     55 H                     0.087337
     56 H                     0.102212
  ----------------------------------------
  Sum of atomic charges =     0.000000

                    Cartesian Multipole Moments
 -----------------------------------------------------------------
    Charge (ESU x 10^10)
                 0.0000
    Dipole Moment (Debye)
         X       0.2399      Y       1.3869      Z      -1.0052
       Tot       1.7296
    Quadrupole Moments (Debye-Ang)
        XX    -140.9871     XY      -9.7004     YY    -167.5947
        XZ      13.3728     YZ       0.7254     ZZ    -157.6353

 Total job time:  98.54s(wall), 4698.79s(cpu)
        *  Thank you very much for using Q-Chem.  Have a nice day.  *
