 Q-Chem 5.0, Q-Chem, Inc., Pleasanton, CA (2017)
 Q-Chem 5.0.1 for Intel X86 EM64T Linux

User input:
--------------------------------------------------------------
$molecule
0  1
O -3.94934 -3.66094 2.70899
C -3.26408 -4.56952 2.26188
C -3.36658 -6.02376 2.66595
C -4.57908 -6.43235 3.51845
C -5.64569 -5.37934 3.72243
O -5.17343 -4.39294 4.5406
C -6.03732 -3.2533 4.60532
C -5.80722 -2.35008 3.3981
O -6.40013 -1.06262 3.63004
C -6.32552 -0.19106 2.59373
C -6.60343 1.23562 3.00364
C -5.73406 1.75901 4.15626
C -4.50432 0.93576 4.48292
O -3.69385 1.19043 5.36203
O -2.27926 -4.28771 1.36892
O -3.94539 0.30777 3.41289
O -5.95093 -0.50302 1.46893
C -2.65723 -0.17957 3.34635
C -6.31491 2.29417 1.91986
C -7.12902 3.55596 2.20437
C -6.40801 4.0895 3.42578
C -5.25695 3.08288 3.52762
O -5.00298 2.72032 2.19081
H -7.68412 1.26957 3.26905
H -6.29812 1.90357 5.10369
H -6.51391 1.938 0.88589
H -6.95417 4.256 1.35595
H -8.22202 3.39901 2.32928
H -6.01959 5.10471 3.18782
H -7.01079 4.12032 4.35922
H -4.40071 3.52828 4.08105
O -6.77505 -5.41707 3.2444
C -1.90467 -3.02504 0.97426
C -3.58803 -6.92989 1.43355
C -3.13008 -8.35364 1.74475
C -4.22598 -8.80022 2.68648
C -5.14182 -7.57232 2.64498
O -4.983 -7.07065 1.3426
H -2.39648 -6.28984 3.14229
H -4.29447 -6.8097 4.52595
H -1.47698 -2.4839 1.84077
H -3.07737 -6.56665 0.51509
H -3.21371 -8.94067 0.80194
H -2.09566 -8.44175 2.14108
H -4.73774 -9.68046 2.23732
H -3.89698 -9.0391 3.72096
H -6.17537 -7.86383 2.93517
H -2.77304 -2.47675 0.54988
H -1.1173 -3.10764 0.19741
H -2.49348 -0.57584 2.32931
H -2.50896 -0.98541 4.0964
H -1.92623 0.63933 3.51692
H -4.77564 -1.97313 3.46278
H -6.16805 -2.81429 2.45044
H -5.7404 -2.67414 5.50639
H -7.10859 -3.5226 4.74596
$end

$opt
CONSTRAINT
tors           1           2           3           4     +11.152
tors           3           4           5           6     -70.290
tors           4           5           6           7    +170.239
tors           5           6           7           8     -81.346
tors           6           7           8           9    -165.029
tors           7           8           9          10    -176.520
tors           8           9          10          11    -163.952
tors           9          10          11          12     +54.280
tors          11          12          13          14    +179.965
ENDCONSTRAINT
$end

$rem
JOBTYPE                   OPT
METHOD                    B3LYP
DFT_D                     d3_op
BASIS                     STO-3G
GEOM_OPT_MAX_CYCLES       100
GEOM_OPT_TOL_GRADIENT     300
GEOM_OPT_TOL_DISPLACEMENT 1200
GEOM_OPT_TOL_ENERGY       100
SYMMETRY                  False
THRESH                    12
SCF_CONVERGENCE           8
MAX_SUB_FILE_NUM          128
MEM_STATIC                400
MEM_TOTAL                 4000
$end
--------------------------------------------------------------

   15   -1510.1168143270      6.48E-09 Convergence criterion met
 Total energy in the final basis set = -1510.11681433
   14   -1510.1876857017      8.93E-09 Convergence criterion met
 Total energy in the final basis set = -1510.18768570
   15   -1510.2343653578      1.61E-09 Convergence criterion met
 Total energy in the final basis set = -1510.23436536
   14   -1510.2577059257      5.16E-09 Convergence criterion met
 Total energy in the final basis set = -1510.25770593
   14   -1510.2685185345      3.88E-09 Convergence criterion met
 Total energy in the final basis set = -1510.26851853
   13   -1510.2731839916      7.78E-09 Convergence criterion met
 Total energy in the final basis set = -1510.27318399
   13   -1510.2744387279      5.20E-09 Convergence criterion met
 Total energy in the final basis set = -1510.27443873
   13   -1510.2756197917      3.96E-09 Convergence criterion met
   11   -1510.2791892708      3.50E-09 Convergence criterion met
 Total energy in the final basis set = -1510.27918927
   10   -1510.2792093204      4.41E-09 Convergence criterion met
 Total energy in the final basis set = -1510.27920932
    9   -1510.2792219503      9.68E-09 Convergence criterion met
 Total energy in the final basis set = -1510.27922195
    9   -1510.2792317169      8.45E-09 Convergence criterion met
 Total energy in the final basis set = -1510.27923172
   10   -1510.2792340339      3.86E-09 Convergence criterion met
 Total energy in the final basis set = -1510.27923403
   11   -1510.2792373578      2.09E-09 Convergence criterion met
 Total energy in the final basis set = -1510.27923736

             Standard Nuclear Orientation (Angstroms)
    I     Atom           X                Y                Z
 ----------------------------------------------------------------
    1      O      -1.9461899905    -0.4682491119    -1.0183174574
    2      C      -2.8364685455    -1.2380271892    -0.5964859662
    3      C      -4.0188381697    -0.8626801791     0.3605563332
    4      C      -4.1446095083     0.7023208298     0.5357571929
    5      C      -2.8574073869     1.5508113325     0.2069463895
    6      O      -1.8955831484     1.2829455708     1.2454015880
    7      C      -0.5653880642     1.8464302964     0.9150826151
    8      C       0.2560018369     0.9281038061    -0.0549633372
    9      O       1.6582741279     1.4097957307    -0.0032341887
   10      C       2.4587352278     0.6634250982    -0.9336392092
   11      C       3.9688880796     0.8934002918    -0.5709368198
   12      C       4.3940300104     0.5796915433     0.9199033543
   13      C       3.4740760600    -0.4024335388     1.7347108422
   14      O       3.6592195047    -0.7597129004     2.9188370641
   15      O      -2.9069352588    -2.6261018132    -0.9201289945
   16      O       2.4981166476    -1.0061057002     0.8800998627
   17      O       2.0071016728    -0.0192811961    -1.8767719675
   18      C       1.7354528062    -2.0399021985     1.6150212916
   19      C       4.9745313139    -0.0189916078    -1.3934376091
   20      C       6.3317140184     0.7734077485    -1.5112093357
   21      C       6.8222418574     0.7254958696    -0.0157594093
   22      C       5.7421593568    -0.2254251253     0.6396695225
   23      O       5.3230578941    -1.1206431300    -0.4647015512
   24      H       4.1816617713     1.9597926790    -0.7758341690
   25      H       4.5580515907     1.4963063808     1.5138471491
   26      H       4.5527997146    -0.4195462616    -2.3360528145
   27      H       7.0299429072     0.2436939299    -2.1790729168
   28      H       6.1919657616     1.8000864563    -1.8853033616
   29      H       7.8276932249     0.2842137861     0.0706532521
   30      H       6.8322726644     1.7200889768     0.4586322672
   31      H       6.0996997438    -0.8138993914     1.5071777224
   32      O      -2.7081650025     2.3896249042    -0.7055138518
   33      C      -1.8032494519    -2.9839991810    -1.8433474711
   34      C      -5.3758219225    -1.1639861885    -0.4091200128
   35      C      -6.6117672225    -0.8620985953     0.5287988134
   36      C      -6.6913379643     0.7084184914     0.4443285721
   37      C      -5.3923623082     1.0204627304    -0.3940189724
   38      O      -5.3929664322    -0.0649760706    -1.4039752402
   39      H      -3.9246964297    -1.4021953781     1.3202051455
   40      H      -4.3942634366     0.9229467070     1.5900719437
   41      H      -0.8109000804    -2.7919418185    -1.3863727684
   42      H      -5.3897780045    -2.1496866447    -0.9133969910
   43      H      -7.5230105710    -1.3394530280     0.1351617041
   44      H      -6.4413797896    -1.2217151299     1.5564536652
   45      H      -7.5889251970     1.0345219570    -0.1053409999
   46      H      -6.6853141633     1.1927945583     1.4336319600
   47      H      -5.3529266028     2.0108490367    -0.8879079068
   48      H      -1.8679968966    -2.4151452935    -2.7930495387
   49      H      -1.9160823219    -4.0644405781    -2.0479660867
   50      H       1.0295892653    -2.4728153011     0.8822556068
   51      H       1.1699575385    -1.6044968305     2.4642950211
   52      H       2.4026560765    -2.8354915725     2.0046567836
   53      H       0.2047697267    -0.1282227174     0.2827937306
   54      H      -0.1537773757     0.9761380877    -1.0850486461
   55      H      -0.0283416157     1.9305766455     1.8820106714
   56      H      -0.6705113755     2.8581046071     0.4678262204
 ----------------------------------------------------------------

    9   -1510.2792381867      5.28E-09 Convergence criterion met
 Total energy in the final basis set = -1510.27923819
 Final energy is   -1510.27923818669
 **  OPTIMIZATION CONVERGED  **

                    Orbital Energies (a.u.)
 --------------------------------------------------------------

 Alpha MOs
 -- Occupied --
-18.944 -18.941 -18.921 -18.917 -18.886 -18.886 -18.884 -18.874
-18.868 -18.865 -10.107 -10.101 -10.096 -10.094 -10.069 -10.069
-10.065 -10.061 -10.059 -10.057 -10.057 -10.055 -10.043 -10.039
-10.034 -10.032 -10.022 -10.020 -10.020 -10.018  -1.021  -1.016
 -1.002  -0.997  -0.971  -0.969  -0.945  -0.937  -0.931  -0.925
 -0.764  -0.761  -0.726  -0.723  -0.710  -0.703  -0.691  -0.666
 -0.665  -0.613  -0.597  -0.579  -0.544  -0.542  -0.537  -0.535
 -0.513  -0.509  -0.484  -0.479  -0.464  -0.456  -0.456  -0.443
 -0.436  -0.430  -0.421  -0.417  -0.415  -0.413  -0.408  -0.394
 -0.386  -0.378  -0.378  -0.370  -0.362  -0.357  -0.354  -0.343
 -0.342  -0.337  -0.337  -0.330  -0.329  -0.324  -0.320  -0.313
 -0.309  -0.308  -0.305  -0.302  -0.298  -0.290  -0.278  -0.275
 -0.269  -0.261  -0.247  -0.243  -0.240  -0.235  -0.233  -0.186
 -0.181  -0.169  -0.164  -0.162  -0.155  -0.147  -0.145  -0.143
 -0.142

          Ground-State Mulliken Net Atomic Charges

     Atom                 Charge (a.u.)
  ----------------------------------------
      1 O                    -0.209143
      2 C                     0.216579
      3 C                    -0.076527
      4 C                    -0.081378
      5 C                     0.216165
      6 O                    -0.180293
      7 C                    -0.049068
      8 C                    -0.049753
      9 O                    -0.182700
     10 C                     0.220247
     11 C                    -0.080576
     12 C                    -0.075649
     13 C                     0.213012
     14 O                    -0.216234
     15 O                    -0.169159
     16 O                    -0.166416
     17 O                    -0.214922
     18 C                    -0.126055
     19 C                     0.023560
     20 C                    -0.142229
     21 C                    -0.145147
     22 C                     0.024029
     23 O                    -0.192171
     24 H                     0.082393
     25 H                     0.086845
     26 H                     0.091067
     27 H                     0.077693
     28 H                     0.073513
     29 H                     0.078286
     30 H                     0.073794
     31 H                     0.084555
     32 O                    -0.213736
     33 C                    -0.127954
     34 C                     0.023822
     35 C                    -0.145179
     36 C                    -0.142284
     37 C                     0.023215
     38 O                    -0.192110
     39 H                     0.087833
     40 H                     0.082989
     41 H                     0.090514
     42 H                     0.087750
     43 H                     0.078472
     44 H                     0.073358
     45 H                     0.078220
     46 H                     0.073412
     47 H                     0.090537
     48 H                     0.095057
     49 H                     0.092395
     50 H                     0.090085
     51 H                     0.089547
     52 H                     0.093120
     53 H                     0.083274
     54 H                     0.103678
     55 H                     0.087180
     56 H                     0.092490
  ----------------------------------------
  Sum of atomic charges =    -0.000000

                    Cartesian Multipole Moments
 -----------------------------------------------------------------
    Charge (ESU x 10^10)
                 0.0000
    Dipole Moment (Debye)
         X      -0.5385      Y      -0.6954      Z       1.7180
       Tot       1.9300
    Quadrupole Moments (Debye-Ang)
        XX    -144.9400     XY      11.9703     YY    -155.7501
        XZ     -10.6974     YZ       2.8798     ZZ    -166.6076

 Total job time:  77.93s(wall), 3712.23s(cpu)
        *  Thank you very much for using Q-Chem.  Have a nice day.  *
