 Q-Chem 5.0, Q-Chem, Inc., Pleasanton, CA (2017)
 Q-Chem 5.0.1 for Intel X86 EM64T Linux

User input:
--------------------------------------------------------------
$molecule
0  1
O 1.993508867 0.6979573246 -0.8604468978
C 2.9080274174 1.3365222248 -0.2943760676
C 4.2336544078 0.7846404497 0.3255968094
C 4.2190650889 -0.7584745888 0.6679297087
C 2.8332129872 -1.4975631801 0.6428499805
O 1.8937149203 -0.7907885154 1.4634880198
C 0.5698259734 -1.457617424 1.4059050696
C -0.2400946509 -1.0917549147 0.1112846773
O -1.6638370293 -1.317300453 0.4578451751
C -2.5014747938 -1.0955430441 -0.6871045455
C -3.9923187044 -1.0926701048 -0.1868692924
C -4.3468198386 -0.0659415004 0.9631414798
C -3.3845873472 1.1675504026 1.1227252529
O -3.4955924148 2.0834237541 1.9669425444
O 2.9419403362 2.7646203652 -0.1725005665
O -2.4711771507 1.2201148317 0.0241557599
O -2.0946972712 -0.9955785865 -1.8629755776
C -1.6469625615 2.4452567509 0.0838294372
C -5.0497709313 -0.7043033062 -1.3045521701
C -6.4053996342 -1.4208658554 -0.9381866574
C -6.815844363 -0.6168736695 0.3517172832
C -5.7123021164 0.516970769 0.379794991
O -5.3612761567 0.7219463786 -1.0452814865
H -4.1988334378 -2.1153792421 0.1814869129
H -4.4755914316 -0.5555760298 1.9445850508
H -4.6835319956 -0.8435056694 -2.3405115169
H -7.1411395803 -1.2828130475 -1.7467196773
H -6.2798571571 -2.499473143 -0.7522004887
H -7.8209960682 -0.1765935841 0.2567318542
H -6.7870548021 -1.2350344672 1.2632786944
H -6.0283463881 1.4699829623 0.8471936942
O 2.5767027753 -2.5616671599 0.0395952947
C 1.7705131225 3.3713960162 -0.8453576489
C 5.3576725885 0.8069972673 -0.8060655578
C 6.7648235549 0.5032534904 -0.1526551233
C 6.6829769114 -1.0565128505 0.0462996226
C 5.2072296844 -1.3370267805 -0.4316041051
O 5.0460917752 -0.4145796666 -1.5802663669
H 4.508853793 1.4063310951 1.19536584
H 4.6405537698 -0.9068087305 1.6802119504
H 1.1452557888 3.8908272933 -0.0927093053
H 5.3244491594 1.7035192386 -1.4553015379
H 7.5773550015 0.7839957829 -0.8412900535
H 6.9035518246 1.0453219576 0.7967138545
H 7.4030110999 -1.582366941 -0.6008729895
H 6.8521406036 -1.3659365224 1.0898944394
H 4.975854575 -2.3777433752 -0.7318077855
H 1.1802968925 2.5768611704 -1.3450789842
H 2.130609514 4.1073035783 -1.5904705689
H -1.1552628904 2.5277207316 -0.9023755
H -0.874852755 2.3724806927 0.8776480849
H -2.2688711937 3.3429022402 0.2749508565
H -0.0543552272 -0.030986537 -0.165654657
H 0.0774562103 -1.7255830987 -0.7438619704
H 0.015145815 -1.084409947 2.2911565963
H 0.6824312549 -2.559484642 1.4828283417
$end

$rem
JOBTYPE                   OPT
METHOD                    B3LYP
DFT_D                     d3_op
BASIS                     STO-3G
GEOM_OPT_MAX_CYCLES       100
GEOM_OPT_TOL_GRADIENT     300
GEOM_OPT_TOL_DISPLACEMENT 1200
GEOM_OPT_TOL_ENERGY       100
SYMMETRY                  False
THRESH                    12
SCF_CONVERGENCE           8
MAX_SUB_FILE_NUM          128
MEM_STATIC                400
MEM_TOTAL                 4000
$end
--------------------------------------------------------------

   16   -1510.2817403101      5.36E-09 Convergence criterion met
 Total energy in the final basis set = -1510.28174031
   14   -1510.2822586454      4.80E-09 Convergence criterion met
 Total energy in the final basis set = -1510.28225865
   13   -1510.2841821600      6.17E-09 Convergence criterion met
 Total energy in the final basis set = -1510.28418216
   13   -1510.2852554497      6.86E-09 Convergence criterion met
 Total energy in the final basis set = -1510.28525545
   13   -1510.2864288980      3.76E-09 Convergence criterion met
 Total energy in the final basis set = -1510.28642890
   13   -1510.2869446445      4.10E-09 Convergence criterion met
 Total energy in the final basis set = -1510.28694464
   13   -1510.2876463419      4.65E-09 Convergence criterion met
 Total energy in the final basis set = -1510.28764634
   13   -1510.2884881578      2.96E-09 Convergence criterion met
   11   -1510.3084638624      9.34E-09 Convergence criterion met
 Total energy in the final basis set = -1510.30846386
   11   -1510.3084806905      1.00E-08 Convergence criterion met
 Total energy in the final basis set = -1510.30848069
   10   -1510.3084785898      8.11E-09 Convergence criterion met
 Total energy in the final basis set = -1510.30847859
   10   -1510.3084841110      4.52E-09 Convergence criterion met
 Total energy in the final basis set = -1510.30848411
   10   -1510.3084856312      7.04E-09 Convergence criterion met
 Total energy in the final basis set = -1510.30848563
   10   -1510.3084845169      5.94E-09 Convergence criterion met
 Total energy in the final basis set = -1510.30848452

             Standard Nuclear Orientation (Angstroms)
    I     Atom           X                Y                Z
 ----------------------------------------------------------------
    1      O      -1.3622968965    -0.6548277292     1.2863411050
    2      C      -1.6236177670     0.4834913106     0.8262247570
    3      C      -2.8739987920     0.8543971579    -0.0389571888
    4      C      -3.4415304990    -0.3640648042    -0.8776864970
    5      C      -2.6344085226    -1.7023740924    -0.7130402851
    6      O      -1.4200591147    -1.5946885237    -1.4858393870
    7      C      -0.5745512203    -2.7992606627    -1.3107708791
    8      C       0.2635217082    -2.7313433736     0.0140001883
    9      O       1.5677212817    -2.0842758605    -0.2871361770
   10      C       2.0905595698    -1.4513460171     0.8788134621
   11      C       3.4803269500    -0.8004386585     0.5442011848
   12      C       3.5764173305    -0.0287890259    -0.8400876239
   13      C       2.2804444130    -0.0662694131    -1.7269420748
   14      O       2.1333293373    -0.6618108399    -2.8169584347
   15      O      -0.8523170271     1.6540500181     1.0366738159
   16      O       1.3082115628     0.7919100987    -1.1319816760
   17      O       1.5292244571    -1.4477135446     1.9969857782
   18      C       0.0919396044     0.8587562134    -1.9779135147
   19      C       3.7900403876     0.3629520418     1.5719355216
   20      C       5.3260325222     0.7111841595     1.5076590237
   21      C       5.4044904428     1.4918523577     0.1422242461
   22      C       3.8991445917     1.4414332588    -0.3289763546
   23      O       3.1453123290     1.5425157771     0.9435434024
   24      H       4.2449685028    -1.5985723869     0.5929680850
   25      H       4.4019776863    -0.4348800984    -1.4502930942
   26      H       3.3689496205     0.1842754474     2.5806447887
   27      H       5.6133995690     1.3510512571     2.3570214628
   28      H       5.9551553249    -0.1930280526     1.5173158626
   29      H       5.7262506243     2.5347239962     0.2921632623
   30      H       6.0811599373     1.0142938383    -0.5841206826
   31      H       3.5924452230     2.2471864251    -1.0232604489
   32      O      -2.9943542617    -2.7465694078    -0.1329704996
   33      C       0.3380681374     1.3777708340     1.8844239743
   34      C      -4.1289602866     1.1807886010     0.8881413245
   35      C      -5.2267578933     1.8903921797    -0.0001544881
   36      C      -5.7893449907     0.6709042795    -0.8208059610
   37      C      -4.8969924778    -0.5062779795    -0.2646516442
   38      O      -4.7051939495    -0.1532076287     1.1618406982
   39      H      -2.6214458026     1.7155236115    -0.6811245961
   40      H      -3.4699417120    -0.1131890080    -1.9534169570
   41      H       1.2732170797     1.5377385732     1.2930423035
   42      H      -3.8770068236     1.7009616297     1.8326919629
   43      H      -6.0031640186     2.3421130397     0.6375171271
   44      H      -4.7945480129     2.6742695337    -0.6421533027
   45      H      -6.8518866200     0.4881039660    -0.5947377678
   46      H      -5.6763392196     0.8006282930    -1.9091805514
   47      H      -5.3254836773    -1.5232253277    -0.3540758079
   48      H       0.3151474403     0.3289458301     2.2436152138
   49      H       0.3088748652     2.0780015012     2.7409771048
   50      H      -0.4626096869     1.7479673187    -1.6289738673
   51      H      -0.5301409763    -0.0606134654    -1.8442894749
   52      H       0.3553061578     0.9751066747    -3.0476132510
   53      H      -0.2899004677    -2.1318741963     0.7764065048
   54      H       0.4420898101    -3.7566935140     0.4037438603
   55      H       0.1000781231    -2.8291801183    -2.1909466254
   56      H      -1.2162367564    -3.7054463951    -1.2917914772
 ----------------------------------------------------------------

    9   -1510.3084851929      4.24E-09 Convergence criterion met
 Total energy in the final basis set = -1510.30848519
 Final energy is   -1510.30848519293
 **  OPTIMIZATION CONVERGED  **

                    Orbital Energies (a.u.)
 --------------------------------------------------------------

 Alpha MOs
 -- Occupied --
-18.937 -18.936 -18.933 -18.920 -18.900 -18.889 -18.880 -18.876
-18.876 -18.860 -10.103 -10.102 -10.101 -10.090 -10.072 -10.065
-10.063 -10.062 -10.059 -10.059 -10.041 -10.040 -10.039 -10.036
-10.034 -10.028 -10.024 -10.023 -10.021 -10.020  -1.017  -1.011
 -1.007  -0.998  -0.977  -0.971  -0.942  -0.936  -0.934  -0.924
 -0.766  -0.764  -0.729  -0.724  -0.711  -0.708  -0.698  -0.651
 -0.645  -0.614  -0.598  -0.580  -0.549  -0.543  -0.541  -0.536
 -0.512  -0.511  -0.486  -0.468  -0.468  -0.459  -0.454  -0.441
 -0.435  -0.432  -0.427  -0.417  -0.406  -0.405  -0.402  -0.399
 -0.390  -0.371  -0.369  -0.363  -0.362  -0.358  -0.352  -0.349
 -0.340  -0.339  -0.337  -0.334  -0.331  -0.327  -0.323  -0.313
 -0.311  -0.310  -0.306  -0.298  -0.293  -0.286  -0.286  -0.277
 -0.272  -0.256  -0.248  -0.241  -0.238  -0.235  -0.234  -0.186
 -0.175  -0.170  -0.163  -0.158  -0.156  -0.152  -0.151  -0.145
 -0.140

          Ground-State Mulliken Net Atomic Charges

     Atom                 Charge (a.u.)
  ----------------------------------------
      1 O                    -0.218884
      2 C                     0.217501
      3 C                    -0.078418
      4 C                    -0.080476
      5 C                     0.218757
      6 O                    -0.177355
      7 C                    -0.050093
      8 C                    -0.063514
      9 O                    -0.172537
     10 C                     0.213767
     11 C                    -0.078837
     12 C                    -0.080387
     13 C                     0.211421
     14 O                    -0.220590
     15 O                    -0.167979
     16 O                    -0.176484
     17 O                    -0.212228
     18 C                    -0.151575
     19 C                     0.024335
     20 C                    -0.143717
     21 C                    -0.143626
     22 C                     0.027892
     23 O                    -0.187038
     24 H                     0.085580
     25 H                     0.084141
     26 H                     0.092405
     27 H                     0.079342
     28 H                     0.074930
     29 H                     0.078802
     30 H                     0.075174
     31 H                     0.086702
     32 O                    -0.205537
     33 C                    -0.155608
     34 C                     0.025880
     35 C                    -0.143632
     36 C                    -0.144102
     37 C                     0.025519
     38 O                    -0.186254
     39 H                     0.086055
     40 H                     0.085031
     41 H                     0.114638
     42 H                     0.084866
     43 H                     0.078748
     44 H                     0.074011
     45 H                     0.078794
     46 H                     0.073263
     47 H                     0.089631
     48 H                     0.101426
     49 H                     0.076828
     50 H                     0.080333
     51 H                     0.107347
     52 H                     0.080971
     53 H                     0.124092
     54 H                     0.083682
     55 H                     0.100612
     56 H                     0.096396
  ----------------------------------------
  Sum of atomic charges =    -0.000000

                    Cartesian Multipole Moments
 -----------------------------------------------------------------
    Charge (ESU x 10^10)
                -0.0000
    Dipole Moment (Debye)
         X       1.3731      Y       1.5729      Z      -1.4515
       Tot       2.5429
    Quadrupole Moments (Debye-Ang)
        XX    -142.1025     XY      -7.0300     YY    -158.8603
        XZ      11.2538     YZ       1.4522     ZZ    -165.7778

 Total job time:  142.10s(wall), 6779.43s(cpu)
        *  Thank you very much for using Q-Chem.  Have a nice day.  *
