 Q-Chem 5.0, Q-Chem, Inc., Pleasanton, CA (2017)
 Q-Chem 5.0.1 for Intel X86 EM64T Linux

User input:
--------------------------------------------------------------
$molecule
0  1
O -3.94934 -3.66094 2.70899
C -3.26408 -4.56952 2.26188
C -3.36658 -6.02376 2.66595
C -4.04188 -6.33305 4.01212
C -4.69767 -5.16873 4.72091
O -3.80928 -4.13822 4.84031
C -4.37214 -2.97884 5.46343
C -5.19263 -2.18473 4.45233
O -5.28616 -0.81293 4.8674
C -6.06079 -0.01912 4.08704
C -5.92762 1.44701 4.42376
C -4.49361 1.99442 4.37635
C -3.47608 1.12139 3.66982
O -2.29078 1.3859 3.52966
O -2.52971 -4.40561 1.12802
O -3.96907 0.30385 2.70743
O -6.73532 -0.43242 3.1502
C -3.2126 -0.37276 1.78629
C -6.63296 2.40752 3.44445
C -6.92276 3.73438 4.14532
C -5.52385 4.30511 4.26265
C -4.72715 3.24001 3.50138
O -5.62972 2.76963 2.52819
H -6.37146 1.5685 5.43759
H -4.08443 2.22886 5.38347
H -7.5695 1.99377 3.01174
H -7.50208 4.36124 3.42984
H -7.48512 3.65622 5.10057
H -5.49535 5.27718 3.72194
H -5.14769 4.43409 5.3007
H -3.7761 3.66925 3.11531
O -5.88348 -5.11524 5.02973
C -2.31857 -3.25401 0.41523
C -4.26373 -6.83409 1.71181
C -3.89107 -8.31382 1.7808
C -4.43385 -8.67887 3.14708
C -5.09586 -7.35584 3.54805
O -5.53097 -6.81183 2.32496
H -2.3266 -6.42309 2.65357
H -3.31667 -6.76406 4.73775
H -1.71944 -2.54726 1.01446
H -4.22271 -6.47651 0.65957
H -4.49443 -8.84218 1.00812
H -2.81413 -8.53673 1.6214
H -5.20331 -9.47237 3.01796
H -3.67348 -9.0047 3.88951
H -5.88194 -7.54094 4.31241
H -3.2861 -2.8299 0.08091
H -1.72219 -3.50047 -0.48687
H -3.89618 -0.95584 1.14175
H -2.51879 -1.04292 2.33081
H -2.64126 0.33876 1.15281
H -4.71038 -1.96991 3.51396
H -6.18722 -2.65675 4.29406
H -3.50475 -2.33753 5.72975
H -4.91447 -3.19445 6.41159
$end

$opt
CONSTRAINT
tors           1           2           3           4     -20.083
tors           3           4           5           6     -52.508
tors           4           5           6           7    +178.027
tors           5           6           7           8     -79.951
tors           6           7           8           9    -156.200
tors           7           8           9          10    -176.272
tors           8           9          10          11    -169.826
tors           9          10          11          12     +55.654
tors          11          12          13          14    +179.965
ENDCONSTRAINT
$end

$rem
JOBTYPE                   OPT
METHOD                    B3LYP
DFT_D                     d3_op
BASIS                     STO-3G
GEOM_OPT_MAX_CYCLES       100
GEOM_OPT_TOL_GRADIENT     300
GEOM_OPT_TOL_DISPLACEMENT 1200
GEOM_OPT_TOL_ENERGY       100
SYMMETRY                  False
THRESH                    12
SCF_CONVERGENCE           8
MAX_SUB_FILE_NUM          128
MEM_STATIC                400
MEM_TOTAL                 4000
$end
--------------------------------------------------------------

   15   -1510.1181675979      6.46E-09 Convergence criterion met
 Total energy in the final basis set = -1510.11816760
   14   -1510.1869719812      7.86E-09 Convergence criterion met
 Total energy in the final basis set = -1510.18697198
   14   -1510.2371620711      8.41E-09 Convergence criterion met
 Total energy in the final basis set = -1510.23716207
   14   -1510.2619037010      4.63E-09 Convergence criterion met
 Total energy in the final basis set = -1510.26190370
   14   -1510.2728257829      4.19E-09 Convergence criterion met
 Total energy in the final basis set = -1510.27282578
   13   -1510.2770333472      7.15E-09 Convergence criterion met
 Total energy in the final basis set = -1510.27703335
   13   -1510.2789591922      5.00E-09 Convergence criterion met
 Total energy in the final basis set = -1510.27895919
   12   -1510.2798559376      6.72E-09 Convergence criterion met
   12   -1510.2817121787      3.38E-09 Convergence criterion met
 Total energy in the final basis set = -1510.28171218
   11   -1510.2817205793      3.76E-09 Convergence criterion met
 Total energy in the final basis set = -1510.28172058
    9   -1510.2817247895      3.92E-09 Convergence criterion met
 Total energy in the final basis set = -1510.28172479
    9   -1510.2817276933      5.84E-09 Convergence criterion met
 Total energy in the final basis set = -1510.28172769
    9   -1510.2817289121      6.25E-09 Convergence criterion met
 Total energy in the final basis set = -1510.28172891
   10   -1510.2817327413      5.28E-09 Convergence criterion met
 Total energy in the final basis set = -1510.28173274

             Standard Nuclear Orientation (Angstroms)
    I     Atom           X                Y                Z
 ----------------------------------------------------------------
    1      O       1.9935088670     0.6979573246    -0.8604468978
    2      C       2.9080274174     1.3365222248    -0.2943760676
    3      C       4.2336544078     0.7846404497     0.3255968094
    4      C       4.2190650889    -0.7584745888     0.6679297087
    5      C       2.8332129872    -1.4975631801     0.6428499805
    6      O       1.8937149203    -0.7907885154     1.4634880198
    7      C       0.5698259734    -1.4576174240     1.4059050696
    8      C      -0.2400946509    -1.0917549147     0.1112846773
    9      O      -1.6638370293    -1.3173004530     0.4578451751
   10      C      -2.5014747938    -1.0955430441    -0.6871045455
   11      C      -3.9923187044    -1.0926701048    -0.1868692924
   12      C      -4.3468198386    -0.0659415004     0.9631414798
   13      C      -3.3845873472     1.1675504026     1.1227252529
   14      O      -3.4955924148     2.0834237541     1.9669425444
   15      O       2.9419403362     2.7646203652    -0.1725005665
   16      O      -2.4711771507     1.2201148317     0.0241557599
   17      O      -2.0946972712    -0.9955785865    -1.8629755776
   18      C      -1.6469625615     2.4452567509     0.0838294372
   19      C      -5.0497709313    -0.7043033062    -1.3045521701
   20      C      -6.4053996342    -1.4208658554    -0.9381866574
   21      C      -6.8158443630    -0.6168736695     0.3517172832
   22      C      -5.7123021164     0.5169707690     0.3797949910
   23      O      -5.3612761567     0.7219463786    -1.0452814865
   24      H      -4.1988334378    -2.1153792421     0.1814869129
   25      H      -4.4755914316    -0.5555760298     1.9445850508
   26      H      -4.6835319956    -0.8435056694    -2.3405115169
   27      H      -7.1411395803    -1.2828130475    -1.7467196773
   28      H      -6.2798571571    -2.4994731430    -0.7522004887
   29      H      -7.8209960682    -0.1765935841     0.2567318542
   30      H      -6.7870548021    -1.2350344672     1.2632786944
   31      H      -6.0283463881     1.4699829623     0.8471936942
   32      O       2.5767027753    -2.5616671599     0.0395952947
   33      C       1.7705131225     3.3713960162    -0.8453576489
   34      C       5.3576725885     0.8069972673    -0.8060655578
   35      C       6.7648235549     0.5032534904    -0.1526551233
   36      C       6.6829769114    -1.0565128505     0.0462996226
   37      C       5.2072296844    -1.3370267805    -0.4316041051
   38      O       5.0460917752    -0.4145796666    -1.5802663669
   39      H       4.5088537930     1.4063310951     1.1953658400
   40      H       4.6405537698    -0.9068087305     1.6802119504
   41      H       1.1452557888     3.8908272933    -0.0927093053
   42      H       5.3244491594     1.7035192386    -1.4553015379
   43      H       7.5773550015     0.7839957829    -0.8412900535
   44      H       6.9035518246     1.0453219576     0.7967138545
   45      H       7.4030110999    -1.5823669410    -0.6008729895
   46      H       6.8521406036    -1.3659365224     1.0898944394
   47      H       4.9758545750    -2.3777433752    -0.7318077855
   48      H       1.1802968925     2.5768611704    -1.3450789842
   49      H       2.1306095140     4.1073035783    -1.5904705689
   50      H      -1.1552628904     2.5277207316    -0.9023755000
   51      H      -0.8748527550     2.3724806927     0.8776480849
   52      H      -2.2688711937     3.3429022402     0.2749508565
   53      H      -0.0543552272    -0.0309865370    -0.1656546570
   54      H       0.0774562103    -1.7255830987    -0.7438619704
   55      H       0.0151458150    -1.0844099470     2.2911565963
   56      H       0.6824312549    -2.5594846420     1.4828283417
 ----------------------------------------------------------------

    9   -1510.2817329519      6.24E-09 Convergence criterion met
 Total energy in the final basis set = -1510.28173295
 Final energy is   -1510.28173295186
 **  OPTIMIZATION CONVERGED  **

                    Orbital Energies (a.u.)
 --------------------------------------------------------------

 Alpha MOs
 -- Occupied --
-18.941 -18.938 -18.932 -18.917 -18.889 -18.884 -18.883 -18.875
-18.873 -18.864 -10.106 -10.101 -10.100 -10.094 -10.068 -10.067
-10.064 -10.063 -10.059 -10.058 -10.058 -10.054 -10.043 -10.039
-10.038 -10.032 -10.023 -10.021 -10.019 -10.017  -1.018  -1.015
 -1.009  -0.997  -0.973  -0.968  -0.942  -0.937  -0.936  -0.926
 -0.766  -0.761  -0.727  -0.723  -0.712  -0.703  -0.692  -0.668
 -0.662  -0.613  -0.598  -0.581  -0.545  -0.542  -0.539  -0.535
 -0.514  -0.509  -0.484  -0.477  -0.465  -0.457  -0.455  -0.444
 -0.436  -0.431  -0.423  -0.418  -0.415  -0.412  -0.409  -0.395
 -0.386  -0.381  -0.375  -0.372  -0.361  -0.359  -0.356  -0.347
 -0.343  -0.341  -0.336  -0.333  -0.329  -0.325  -0.319  -0.313
 -0.308  -0.307  -0.305  -0.301  -0.298  -0.291  -0.283  -0.273
 -0.269  -0.255  -0.250  -0.245  -0.242  -0.236  -0.232  -0.183
 -0.180  -0.173  -0.165  -0.164  -0.155  -0.153  -0.146  -0.143
 -0.141

          Ground-State Mulliken Net Atomic Charges

     Atom                 Charge (a.u.)
  ----------------------------------------
      1 O                    -0.212805
      2 C                     0.216223
      3 C                    -0.076787
      4 C                    -0.080293
      5 C                     0.214707
      6 O                    -0.173971
      7 C                    -0.048451
      8 C                    -0.051549
      9 O                    -0.183128
     10 C                     0.221556
     11 C                    -0.080286
     12 C                    -0.075920
     13 C                     0.213539
     14 O                    -0.216639
     15 O                    -0.171573
     16 O                    -0.165055
     17 O                    -0.214783
     18 C                    -0.126885
     19 C                     0.023663
     20 C                    -0.142288
     21 C                    -0.145099
     22 C                     0.024045
     23 O                    -0.191699
     24 H                     0.081928
     25 H                     0.086363
     26 H                     0.091337
     27 H                     0.077846
     28 H                     0.073313
     29 H                     0.078094
     30 H                     0.073466
     31 H                     0.084461
     32 O                    -0.212758
     33 C                    -0.136887
     34 C                     0.025718
     35 C                    -0.144383
     36 C                    -0.143174
     37 C                     0.024121
     38 O                    -0.188973
     39 H                     0.088740
     40 H                     0.083752
     41 H                     0.084318
     42 H                     0.083887
     43 H                     0.078896
     44 H                     0.074056
     45 H                     0.078855
     46 H                     0.073448
     47 H                     0.092799
     48 H                     0.100765
     49 H                     0.087514
     50 H                     0.093636
     51 H                     0.085818
     52 H                     0.094842
     53 H                     0.094271
     54 H                     0.095585
     55 H                     0.089725
     56 H                     0.092097
  ----------------------------------------
  Sum of atomic charges =    -0.000000

                    Cartesian Multipole Moments
 -----------------------------------------------------------------
    Charge (ESU x 10^10)
                -0.0000
    Dipole Moment (Debye)
         X       1.1227      Y       0.6385      Z       2.3480
       Tot       2.6797
    Quadrupole Moments (Debye-Ang)
        XX    -139.8344     XY      11.2236     YY    -156.8839
        XZ       3.3700     YZ      -7.3236     ZZ    -167.1010

 Total job time:  104.88s(wall), 4999.76s(cpu)
        *  Thank you very much for using Q-Chem.  Have a nice day.  *
