 Q-Chem 5.0, Q-Chem, Inc., Pleasanton, CA (2017)
 Q-Chem 5.0.1 for Intel X86 EM64T Linux

User input:
--------------------------------------------------------------
$molecule
0  1
O -1.9626624346 0.9234908223 0.4626883208
C -3.0699866778 1.4202237982 0.1562875015
C -4.3727487551 0.6622736451 -0.2539931266
C -4.1174471194 -0.8307813302 -0.713824021
C -2.6501934576 -1.3519765403 -0.4623686074
O -1.8965290409 -1.0841667022 -1.6525260967
C -0.4829203048 -1.5284285906 -1.5528482915
C 0.279972515 -0.9995946706 -0.2875589281
O 1.6793116889 -1.4708180774 -0.4278181744
C 2.4589064776 -1.0298439577 0.6957997188
C 3.9736539855 -1.0875226999 0.2819626622
C 4.4564468925 -0.0691353436 -0.8331291568
C 3.5229074751 1.1433395554 -1.1933644721
O 3.7770498373 2.019977916 -2.0488087196
O -3.3501604419 2.8219503969 0.1730685618
O 2.4012927855 1.2127158126 -0.3112462269
O 1.9933310263 -0.7109587351 1.8094987519
C 1.6000573741 2.4267750332 -0.5847518342
C 4.9480985556 -0.7294643553 1.482067823
C 6.3311075597 -1.4351131397 1.2067777013
C 6.8623182805 -0.5763269245 -0.0001800958
C 5.7422587794 0.5347142639 -0.1088723474
O 5.263119981 0.7049438664 1.2814361923
H 4.1683749608 -2.1156522727 -0.0760187527
H 4.7201992708 -0.588800513 -1.7718470648
H 4.5048730634 -0.8926330316 2.4837064279
H 6.9898545832 -1.3444737378 2.0853044927
H 6.2172916087 -2.5019674032 0.9568629271
H 7.8392862304 -0.1191285055 0.2222604083
H 6.949562477 -1.1611609436 -0.9298808325
H 6.0795854226 1.50217685 -0.5296593549
O -2.2517778516 -2.0208587442 0.5150925437
C -2.1463450809 3.5777771838 0.5911746453
C -5.3826305997 0.4438387209 0.9598370729
C -6.8076764129 0.1513964392 0.3452792085
C -6.6014920769 -1.3091948485 -0.2043428819
C -5.1163620248 -1.602357572 0.2477358198
O -4.979939477 -0.8609650263 1.5244442755
H -4.8617962759 1.2464401314 -1.0541867546
H -4.360248995 -0.9641226145 -1.7825687057
H -1.354629768 3.5352857369 -0.1848266209
H -5.352464228 1.2349865986 1.734300352
H -7.5765468903 0.1814763102 1.1340456205
H -7.0804510606 0.8714142131 -0.4428606381
H -7.2973147723 -2.0216579311 0.2660946758
H -6.7188732224 -1.3711392831 -1.2980887682
H -4.8654360019 -2.6699367239 0.3984842175
H -1.7296134222 3.1905781293 1.5430728877
H -2.4728236396 4.6255002352 0.7239557378
H 0.8162106959 2.4509441735 0.194796076
H 1.1264909935 2.3837785425 -1.5872952478
H 2.2200460332 3.3440744739 -0.5250824468
H 0.2363243802 0.1070166851 -0.2386069858
H -0.2044394801 -1.4103357617 0.62350322
H 0.0019027434 -1.1516378847 -2.476137321
H -0.4332173761 -2.6402012614 -1.5583031011
$end

$rem
JOBTYPE                   OPT
METHOD                    B3LYP
DFT_D                     d3_op
BASIS                     STO-3G
GEOM_OPT_MAX_CYCLES       100
GEOM_OPT_TOL_GRADIENT     300
GEOM_OPT_TOL_DISPLACEMENT 1200
GEOM_OPT_TOL_ENERGY       100
SYMMETRY                  False
THRESH                    12
SCF_CONVERGENCE           8
MAX_SUB_FILE_NUM          128
MEM_STATIC                400
MEM_TOTAL                 4000
$end
--------------------------------------------------------------

   16   -1510.2799644885      5.99E-09 Convergence criterion met
 Total energy in the final basis set = -1510.27996449
   13   -1510.2818343724      8.02E-09 Convergence criterion met
 Total energy in the final basis set = -1510.28183437
   13   -1510.2833309692      8.49E-09 Convergence criterion met
 Total energy in the final basis set = -1510.28333097
   13   -1510.2845532242      8.50E-09 Convergence criterion met
 Total energy in the final basis set = -1510.28455322
   13   -1510.2855369236      3.93E-09 Convergence criterion met
 Total energy in the final basis set = -1510.28553692
   13   -1510.2864497347      3.71E-09 Convergence criterion met
 Total energy in the final basis set = -1510.28644973
   13   -1510.2874173009      3.42E-09 Convergence criterion met
 Total energy in the final basis set = -1510.28741730
   13   -1510.2884086875      7.08E-09 Convergence criterion met
   13   -1510.3065827990      2.61E-09 Convergence criterion met
 Total energy in the final basis set = -1510.30658280
   12   -1510.3066209631      7.97E-09 Convergence criterion met
 Total energy in the final basis set = -1510.30662096
   12   -1510.3066413162      7.92E-09 Convergence criterion met
 Total energy in the final basis set = -1510.30664132
   12   -1510.3066887112      4.75E-09 Convergence criterion met
 Total energy in the final basis set = -1510.30668871
   11   -1510.3067057703      7.45E-09 Convergence criterion met
 Total energy in the final basis set = -1510.30670577
   10   -1510.3067149959      7.65E-09 Convergence criterion met
 Total energy in the final basis set = -1510.30671500

             Standard Nuclear Orientation (Angstroms)
    I     Atom           X                Y                Z
 ----------------------------------------------------------------
    1      O      -1.7023036711    -0.7043724705     1.3464518986
    2      C      -2.0320854080     0.4422202252     0.9595001146
    3      C      -3.1481805675     0.7860510458    -0.0826411286
    4      C      -3.4796548010    -0.4161772176    -1.0586712129
    5      C      -2.6223282335    -1.7096712085    -0.8146288266
    6      O      -1.3132519329    -1.5071629835    -1.3909534580
    7      C      -0.4535246143    -2.6864429103    -1.1335112823
    8      C       0.3482364900    -2.5264592416     0.2079965051
    9      O       1.6945089612    -1.9887524446    -0.1094537389
   10      C       2.1539979662    -1.0839095967     0.8943841957
   11      C       3.6205747709    -0.6670239876     0.5222201915
   12      C       3.7605859939    -0.0433962386    -0.9289780535
   13      C       2.3820870663     0.1505207064    -1.6483582442
   14      O       2.0749340483    -0.1807685213    -2.8139169326
   15      O      -1.4467124256     1.6560186486     1.4083151562
   16      O       1.5137746276     0.8283076500    -0.7385092427
   17      O       1.5068494854    -0.7605403914     1.9156705408
   18      C       0.1814290965     1.0501241890    -1.3503616670
   19      C       4.1517830398     0.5202974985     1.4270134830
   20      C       5.7264172545     0.5426097683     1.3257125732
   21      C       5.9233916600     1.1048241851    -0.1319063400
   22      C       4.4257297984     1.3562863315    -0.5714031147
   23      O       3.7472298400     1.7383865263     0.6872314415
   24      H       4.2599860075    -1.5637207922     0.6205840515
   25      H       4.4077495281    -0.6563138057    -1.5801328617
   26      H       3.7289695436     0.5291596526     2.4505661815
   27      H       6.1508150887     1.2234663285     2.0807583630
   28      H       6.1683546031    -0.4572658786     1.4618607442
   29      H       6.4889121330     2.0500553768    -0.1286004820
   30      H       6.4338681746     0.3906000189    -0.7975710724
   31      H       4.2859675931     2.1404968119    -1.3405722560
   32      O      -3.0090266946    -2.7977028840    -0.3407403264
   33      C      -0.4262761671     1.3980275230     2.4574653886
   34      C      -4.5580446988     0.9815031056     0.6333362739
   35      C      -5.5449365208     1.6677277838    -0.3913101872
   36      C      -5.8748471968     0.4625894783    -1.3489450968
   37      C      -5.0019689318    -0.6841038841    -0.7064118924
   38      O      -5.0714513948    -0.4003663371     0.7469580684
   39      H      -2.8511064297     1.6960306897    -0.6322195375
   40      H      -3.3432556221    -0.1105154674    -2.1118176531
   41      H       0.2825079206     0.5849834373     2.1701319320
   42      H      -4.5014438845     1.4627010991     1.6290767410
   43      H      -6.4460378130     2.0300226843     0.1283935806
   44      H      -5.0752277178     2.5143248079    -0.9172682970
   45      H      -6.9436592055     0.1985267915    -1.3111098235
   46      H      -5.5973900339     0.6611753341    -2.3965162300
   47      H      -5.3364545094    -1.7195270988    -0.9112672507
   48      H      -0.9177960642     1.1255290846     3.4133440728
   49      H       0.1185214066     2.3510284484     2.5838568326
   50      H      -0.3347177744     1.7566237335    -0.6745781894
   51      H      -0.3962054241     0.0942317148    -1.4124856490
   52      H       0.2739783707     1.4918734243    -2.3619766911
   53      H      -0.2082930233    -1.8457273524     0.8970461385
   54      H       0.4678809461    -3.5185886655     0.6944190439
   55      H       0.2470362567    -2.7620649922    -1.9903210012
   56      H      -1.0942565179    -3.5915722667    -1.0760348836
 ----------------------------------------------------------------

    9   -1510.3067157828      4.62E-09 Convergence criterion met
 Total energy in the final basis set = -1510.30671578
 Final energy is   -1510.30671578276
 **  OPTIMIZATION CONVERGED  **

                    Orbital Energies (a.u.)
 --------------------------------------------------------------

 Alpha MOs
 -- Occupied --
-18.941 -18.936 -18.933 -18.923 -18.890 -18.886 -18.884 -18.879
-18.879 -18.865 -10.107 -10.106 -10.103 -10.091 -10.069 -10.064
-10.060 -10.059 -10.059 -10.057 -10.045 -10.042 -10.040 -10.037
-10.035 -10.034 -10.023 -10.022 -10.020 -10.019  -1.019  -1.014
 -1.010  -0.999  -0.973  -0.968  -0.942  -0.941  -0.936  -0.926
 -0.767  -0.763  -0.728  -0.723  -0.712  -0.706  -0.697  -0.658
 -0.647  -0.615  -0.598  -0.580  -0.549  -0.544  -0.539  -0.536
 -0.515  -0.509  -0.485  -0.472  -0.465  -0.463  -0.456  -0.438
 -0.435  -0.431  -0.429  -0.418  -0.408  -0.407  -0.404  -0.399
 -0.394  -0.374  -0.369  -0.366  -0.362  -0.358  -0.358  -0.350
 -0.344  -0.338  -0.337  -0.331  -0.329  -0.328  -0.320  -0.312
 -0.309  -0.306  -0.305  -0.300  -0.295  -0.287  -0.286  -0.276
 -0.273  -0.260  -0.251  -0.241  -0.237  -0.236  -0.233  -0.191
 -0.178  -0.170  -0.164  -0.161  -0.158  -0.154  -0.147  -0.143
 -0.142

          Ground-State Mulliken Net Atomic Charges

     Atom                 Charge (a.u.)
  ----------------------------------------
      1 O                    -0.213011
      2 C                     0.218344
      3 C                    -0.079011
      4 C                    -0.080826
      5 C                     0.218810
      6 O                    -0.177518
      7 C                    -0.052409
      8 C                    -0.063543
      9 O                    -0.176746
     10 C                     0.224909
     11 C                    -0.077999
     12 C                    -0.078707
     13 C                     0.209955
     14 O                    -0.217305
     15 O                    -0.168571
     16 O                    -0.173085
     17 O                    -0.218728
     18 C                    -0.152828
     19 C                     0.024328
     20 C                    -0.143585
     21 C                    -0.144261
     22 C                     0.025820
     23 O                    -0.186492
     24 H                     0.084286
     25 H                     0.084222
     26 H                     0.088597
     27 H                     0.077757
     28 H                     0.072923
     29 H                     0.077658
     30 H                     0.073715
     31 H                     0.082499
     32 O                    -0.207264
     33 C                    -0.143484
     34 C                     0.025866
     35 C                    -0.143544
     36 C                    -0.144124
     37 C                     0.025580
     38 O                    -0.186829
     39 H                     0.087331
     40 H                     0.086196
     41 H                     0.118942
     42 H                     0.084670
     43 H                     0.079112
     44 H                     0.074467
     45 H                     0.079031
     46 H                     0.073868
     47 H                     0.090153
     48 H                     0.081780
     49 H                     0.088661
     50 H                     0.085506
     51 H                     0.104387
     52 H                     0.080675
     53 H                     0.119870
     54 H                     0.083204
     55 H                     0.097335
     56 H                     0.099414
  ----------------------------------------
  Sum of atomic charges =    -0.000000

                    Cartesian Multipole Moments
 -----------------------------------------------------------------
    Charge (ESU x 10^10)
                -0.0000
    Dipole Moment (Debye)
         X       0.9454      Y       1.0587      Z      -0.8801
       Tot       1.6701
    Quadrupole Moments (Debye-Ang)
        XX    -144.2909     XY     -11.0659     YY    -160.1542
        XZ       9.5646     YZ       0.8692     ZZ    -163.2817

 Total job time:  158.05s(wall), 7538.87s(cpu)
        *  Thank you very much for using Q-Chem.  Have a nice day.  *
