 Q-Chem 5.0, Q-Chem, Inc., Pleasanton, CA (2017)
 Q-Chem 5.0.1 for Intel X86 EM64T Linux

User input:
--------------------------------------------------------------
$molecule
0  1
O -3.94934 -3.66094 2.70899
C -3.26408 -4.56952 2.26188
C -3.36658 -6.02376 2.66595
C -4.07582 -6.33571 3.99393
C -4.75932 -5.1751 4.68233
O -3.89761 -4.58487 5.56239
C -4.47457 -3.47329 6.25575
C -5.07987 -2.48939 5.25992
O -5.57595 -1.33376 5.95368
C -6.14111 -0.38159 5.17068
C -6.20639 0.96964 5.84192
C -4.84512 1.63598 6.08932
C -3.67325 1.0466 5.33033
O -2.51731 1.43927 5.39489
O -2.44613 -4.31013 1.20815
O -3.91316 0.25739 4.24847
O -6.56403 -0.594 4.03974
C -2.96361 -0.1762 3.34192
C -6.8897 2.07169 4.99892
C -7.41475 3.1713 5.92151
C -6.11537 3.80637 6.3739
C -5.11612 3.03149 5.50746
O -5.83567 2.72726 4.33706
H -6.79748 0.83374 6.77586
H -4.57002 1.62573 7.1666
H -7.71377 1.69376 4.35554
H -7.9585 3.89852 5.27633
H -8.08897 2.83658 6.73895
H -6.13553 4.88345 6.09586
H -5.8825 3.69369 7.45509
H -4.18228 3.61956 5.36641
O -5.98156 -5.12064 4.78158
C -2.24675 -3.05733 0.66751
C -4.20748 -6.8351 1.66966
C -3.83679 -8.31399 1.76002
C -4.46302 -8.67856 3.08858
C -5.12276 -7.34649 3.46267
O -5.49994 -6.80209 2.22098
H -2.3186 -6.39859 2.70164
H -3.41744 -6.83949 4.73807
H -1.81231 -2.37788 1.43114
H -4.11104 -6.4761 0.62138
H -4.38311 -8.85027 0.95141
H -2.74879 -8.52337 1.67343
H -5.24668 -9.4476 2.90605
H -3.75597 -9.03821 3.86697
H -5.94653 -7.53405 4.186
H -3.20751 -2.64196 0.29502
H -1.538 -3.13657 -0.18205
H -3.46012 -0.7964 2.56839
H -2.19408 -0.79033 3.85685
H -2.48273 0.69243 2.84399
H -4.27098 -2.17668 4.57853
H -5.91174 -2.89628 4.65858
H -3.67995 -2.97504 6.85056
H -5.265 -3.82356 6.95625
$end

$opt
CONSTRAINT
tors           1           2           3           4     -18.466
tors           3           4           5           6     -91.794
tors           4           5           6           7    -180.000
tors           5           6           7           8     -52.290
tors           6           7           8           9    -176.096
tors           7           8           9          10    -179.991
tors           8           9          10          11    -160.135
tors           9          10          11          12     +67.322
tors          11          12          13          14    +179.965
ENDCONSTRAINT
$end

$rem
JOBTYPE                   OPT
METHOD                    B3LYP
DFT_D                     d3_op
BASIS                     STO-3G
GEOM_OPT_MAX_CYCLES       100
GEOM_OPT_TOL_GRADIENT     300
GEOM_OPT_TOL_DISPLACEMENT 1200
GEOM_OPT_TOL_ENERGY       100
SYMMETRY                  False
THRESH                    12
SCF_CONVERGENCE           8
MAX_SUB_FILE_NUM          128
MEM_STATIC                400
MEM_TOTAL                 4000
$end
--------------------------------------------------------------

   15   -1510.1423950990      7.82E-09 Convergence criterion met
 Total energy in the final basis set = -1510.14239510
   13   -1510.2145655763      8.23E-09 Convergence criterion met
 Total energy in the final basis set = -1510.21456558
   14   -1510.2531446664      5.95E-09 Convergence criterion met
 Total energy in the final basis set = -1510.25314467
   14   -1510.2703223333      2.29E-09 Convergence criterion met
 Total energy in the final basis set = -1510.27032233
   14   -1510.2770167697      5.89E-09 Convergence criterion met
 Total energy in the final basis set = -1510.27701677
   13   -1510.2788012901      3.75E-09 Convergence criterion met
 Total energy in the final basis set = -1510.27880129
   13   -1510.2791150570      2.63E-09 Convergence criterion met
 Total energy in the final basis set = -1510.27911506
   13   -1510.2795769353      2.35E-09 Convergence criterion met
    9   -1510.2798229577      9.02E-09 Convergence criterion met
 Total energy in the final basis set = -1510.27982296
    9   -1510.2798293928      6.49E-09 Convergence criterion met
 Total energy in the final basis set = -1510.27982939
    9   -1510.2798355832      8.04E-09 Convergence criterion met
 Total energy in the final basis set = -1510.27983558
    9   -1510.2798398443      6.19E-09 Convergence criterion met
 Total energy in the final basis set = -1510.27983984
    9   -1510.2798413111      5.67E-09 Convergence criterion met
 Total energy in the final basis set = -1510.27984131
    9   -1510.2798401848      5.79E-09 Convergence criterion met
 Total energy in the final basis set = -1510.27984018

             Standard Nuclear Orientation (Angstroms)
    I     Atom           X                Y                Z
 ----------------------------------------------------------------
    1      O      -1.9626624346     0.9234908223     0.4626883208
    2      C      -3.0699866778     1.4202237982     0.1562875015
    3      C      -4.3727487551     0.6622736451    -0.2539931266
    4      C      -4.1174471194    -0.8307813302    -0.7138240210
    5      C      -2.6501934576    -1.3519765403    -0.4623686074
    6      O      -1.8965290409    -1.0841667022    -1.6525260967
    7      C      -0.4829203048    -1.5284285906    -1.5528482915
    8      C       0.2799725150    -0.9995946706    -0.2875589281
    9      O       1.6793116889    -1.4708180774    -0.4278181744
   10      C       2.4589064776    -1.0298439577     0.6957997188
   11      C       3.9736539855    -1.0875226999     0.2819626622
   12      C       4.4564468925    -0.0691353436    -0.8331291568
   13      C       3.5229074751     1.1433395554    -1.1933644721
   14      O       3.7770498373     2.0199779160    -2.0488087196
   15      O      -3.3501604419     2.8219503969     0.1730685618
   16      O       2.4012927855     1.2127158126    -0.3112462269
   17      O       1.9933310263    -0.7109587351     1.8094987519
   18      C       1.6000573741     2.4267750332    -0.5847518342
   19      C       4.9480985556    -0.7294643553     1.4820678230
   20      C       6.3311075597    -1.4351131397     1.2067777013
   21      C       6.8623182805    -0.5763269245    -0.0001800958
   22      C       5.7422587794     0.5347142639    -0.1088723474
   23      O       5.2631199810     0.7049438664     1.2814361923
   24      H       4.1683749608    -2.1156522727    -0.0760187527
   25      H       4.7201992708    -0.5888005130    -1.7718470648
   26      H       4.5048730634    -0.8926330316     2.4837064279
   27      H       6.9898545832    -1.3444737378     2.0853044927
   28      H       6.2172916087    -2.5019674032     0.9568629271
   29      H       7.8392862304    -0.1191285055     0.2222604083
   30      H       6.9495624770    -1.1611609436    -0.9298808325
   31      H       6.0795854226     1.5021768500    -0.5296593549
   32      O      -2.2517778516    -2.0208587442     0.5150925437
   33      C      -2.1463450809     3.5777771838     0.5911746453
   34      C      -5.3826305997     0.4438387209     0.9598370729
   35      C      -6.8076764129     0.1513964392     0.3452792085
   36      C      -6.6014920769    -1.3091948485    -0.2043428819
   37      C      -5.1163620248    -1.6023575720     0.2477358198
   38      O      -4.9799394770    -0.8609650263     1.5244442755
   39      H      -4.8617962759     1.2464401314    -1.0541867546
   40      H      -4.3602489950    -0.9641226145    -1.7825687057
   41      H      -1.3546297680     3.5352857369    -0.1848266209
   42      H      -5.3524642280     1.2349865986     1.7343003520
   43      H      -7.5765468903     0.1814763102     1.1340456205
   44      H      -7.0804510606     0.8714142131    -0.4428606381
   45      H      -7.2973147723    -2.0216579311     0.2660946758
   46      H      -6.7188732224    -1.3711392831    -1.2980887682
   47      H      -4.8654360019    -2.6699367239     0.3984842175
   48      H      -1.7296134222     3.1905781293     1.5430728877
   49      H      -2.4728236396     4.6255002352     0.7239557378
   50      H       0.8162106959     2.4509441735     0.1947960760
   51      H       1.1264909935     2.3837785425    -1.5872952478
   52      H       2.2200460332     3.3440744739    -0.5250824468
   53      H       0.2363243802     0.1070166851    -0.2386069858
   54      H      -0.2044394801    -1.4103357617     0.6235032200
   55      H       0.0019027434    -1.1516378847    -2.4761373210
   56      H      -0.4332173761    -2.6402012614    -1.5583031011
 ----------------------------------------------------------------

    9   -1510.2798400489      2.75E-09 Convergence criterion met
 Total energy in the final basis set = -1510.27984005
 Final energy is   -1510.27984004889
 **  OPTIMIZATION CONVERGED  **

                    Orbital Energies (a.u.)
 --------------------------------------------------------------

 Alpha MOs
 -- Occupied --
-18.945 -18.942 -18.925 -18.912 -18.890 -18.887 -18.883 -18.873
-18.867 -18.863 -10.109 -10.101 -10.096 -10.091 -10.073 -10.068
-10.066 -10.064 -10.059 -10.058 -10.053 -10.051 -10.042 -10.038
-10.036 -10.030 -10.022 -10.021 -10.018 -10.016  -1.022  -1.015
 -1.003  -0.994  -0.972  -0.967  -0.946  -0.937  -0.931  -0.923
 -0.765  -0.759  -0.726  -0.721  -0.711  -0.702  -0.691  -0.670
 -0.665  -0.613  -0.597  -0.579  -0.547  -0.541  -0.537  -0.534
 -0.515  -0.508  -0.483  -0.475  -0.463  -0.454  -0.449  -0.444
 -0.436  -0.434  -0.424  -0.420  -0.415  -0.414  -0.409  -0.393
 -0.382  -0.380  -0.376  -0.368  -0.363  -0.357  -0.353  -0.346
 -0.342  -0.340  -0.335  -0.329  -0.328  -0.324  -0.318  -0.314
 -0.306  -0.306  -0.305  -0.302  -0.296  -0.290  -0.278  -0.276
 -0.268  -0.262  -0.247  -0.245  -0.235  -0.235  -0.231  -0.188
 -0.180  -0.171  -0.164  -0.160  -0.154  -0.146  -0.143  -0.141
 -0.139

          Ground-State Mulliken Net Atomic Charges

     Atom                 Charge (a.u.)
  ----------------------------------------
      1 O                    -0.209715
      2 C                     0.212692
      3 C                    -0.079538
      4 C                    -0.080401
      5 C                     0.216631
      6 O                    -0.177091
      7 C                    -0.047695
      8 C                    -0.056281
      9 O                    -0.184561
     10 C                     0.220751
     11 C                    -0.080926
     12 C                    -0.076760
     13 C                     0.211555
     14 O                    -0.217193
     15 O                    -0.168215
     16 O                    -0.165181
     17 O                    -0.210598
     18 C                    -0.127260
     19 C                     0.023757
     20 C                    -0.143010
     21 C                    -0.144814
     22 C                     0.024585
     23 O                    -0.191207
     24 H                     0.082321
     25 H                     0.085870
     26 H                     0.090784
     27 H                     0.077570
     28 H                     0.073113
     29 H                     0.077965
     30 H                     0.073288
     31 H                     0.084434
     32 O                    -0.212023
     33 C                    -0.129052
     34 C                     0.026203
     35 C                    -0.142618
     36 C                    -0.145025
     37 C                     0.026207
     38 O                    -0.185318
     39 H                     0.086599
     40 H                     0.084919
     41 H                     0.085519
     42 H                     0.084703
     43 H                     0.078739
     44 H                     0.073883
     45 H                     0.078692
     46 H                     0.073474
     47 H                     0.087977
     48 H                     0.094071
     49 H                     0.093287
     50 H                     0.095268
     51 H                     0.087152
     52 H                     0.093079
     53 H                     0.090542
     54 H                     0.106936
     55 H                     0.087317
     56 H                     0.084603
  ----------------------------------------
  Sum of atomic charges =     0.000000

                    Cartesian Multipole Moments
 -----------------------------------------------------------------
    Charge (ESU x 10^10)
                 0.0000
    Dipole Moment (Debye)
         X      -1.4664      Y       0.8086      Z      -2.5592
       Tot       3.0584
    Quadrupole Moments (Debye-Ang)
        XX    -139.8426     XY     -11.4673     YY    -153.3393
        XZ       4.0511     YZ       6.0123     ZZ    -167.7762

 Total job time:  56.18s(wall), 2671.61s(cpu)
        *  Thank you very much for using Q-Chem.  Have a nice day.  *
