 Q-Chem 5.0, Q-Chem, Inc., Pleasanton, CA (2017)
 Q-Chem 5.0.1 for Intel X86 EM64T Linux

User input:
--------------------------------------------------------------
$molecule
0  1
O -3.94934 -3.66094 2.70899
C -3.26408 -4.56952 2.26188
C -3.36658 -6.02376 2.66595
C -4.35588 -6.37264 3.78997
C -5.26082 -5.25642 4.26244
O -4.51898 -4.28239 4.8677
C -5.30454 -3.1724 5.31498
C -5.75715 -2.33473 4.12352
O -6.50779 -1.19881 4.58081
C -7.02948 -0.41375 3.6058
C -7.5712 0.89456 4.13071
C -6.67596 1.59936 5.16031
C -5.24779 1.09967 5.24613
O -4.38921 1.53347 6.00059
O -2.36316 -4.28576 1.28512
O -4.71993 0.57611 4.10132
O -6.88259 -0.63668 2.40932
C -3.38045 0.31011 3.88125
C -7.73811 2.00739 3.07782
C -8.77238 3.02268 3.56289
C -8.00309 3.70156 4.67822
C -6.64366 3.00836 4.53776
O -6.54051 2.7397 3.15888
H -8.56079 0.64955 4.57772
H -7.09472 1.58352 6.19049
H -8.01841 1.63001 2.07068
H -8.9231 3.75676 2.73901
H -9.75516 2.59488 3.8562
H -7.91509 4.7838 4.43491
H -8.42831 3.57293 5.69717
H -5.83901 3.64306 4.97076
O -6.48415 -5.2619 4.16874
C -2.14922 -3.02353 0.77169
C -3.90941 -6.90073 1.52364
C -3.47593 -8.35079 1.73068
C -4.35667 -8.74401 2.89765
C -5.17887 -7.46238 3.07155
O -5.29433 -6.95673 1.76354
H -2.33371 -6.33703 2.939
H -3.84708 -6.77774 4.69321
H -1.81091 -2.33536 1.57586
H -3.60141 -6.54946 0.51445
H -3.79912 -8.92661 0.83396
H -2.38528 -8.49508 1.88758
H -5.01593 -9.57976 2.57291
H -3.8174 -9.02638 3.82762
H -6.13257 -7.6956 3.5939
H -3.08317 -2.63362 0.31314
H -1.36283 -3.07646 -0.00881
H -3.25612 -0.11657 2.86475
H -3.01032 -0.42599 4.62675
H -2.78578 1.24588 3.94783
H -4.88591 -1.91243 3.60047
H -6.38493 -2.93867 3.43368
H -4.66459 -2.52767 5.95425
H -6.16452 -3.50733 5.93868
$end

$opt
CONSTRAINT
tors           1           2           3           4      -3.828
tors           3           4           5           6     -66.268
tors           4           5           6           7    +178.584
tors           5           6           7           8     -73.074
tors           6           7           8           9    -178.129
tors           7           8           9          10    -176.520
tors           8           9          10          11    -168.839
tors           9          10          11          12     +43.598
tors          11          12          13          14    +179.965
ENDCONSTRAINT
$end

$rem
JOBTYPE                   OPT
METHOD                    B3LYP
DFT_D                     d3_op
BASIS                     STO-3G
GEOM_OPT_MAX_CYCLES       100
GEOM_OPT_TOL_GRADIENT     300
GEOM_OPT_TOL_DISPLACEMENT 1200
GEOM_OPT_TOL_ENERGY       100
SYMMETRY                  False
THRESH                    12
SCF_CONVERGENCE           8
MAX_SUB_FILE_NUM          128
MEM_STATIC                400
MEM_TOTAL                 4000
$end
--------------------------------------------------------------

   15   -1510.1393245520      6.34E-09 Convergence criterion met
 Total energy in the final basis set = -1510.13932455
   14   -1510.2106075204      7.70E-09 Convergence criterion met
 Total energy in the final basis set = -1510.21060752
   14   -1510.2477832127      7.71E-09 Convergence criterion met
 Total energy in the final basis set = -1510.24778321
   14   -1510.2672440805      7.97E-09 Convergence criterion met
 Total energy in the final basis set = -1510.26724408
   13   -1510.2738926380      7.46E-09 Convergence criterion met
 Total energy in the final basis set = -1510.27389264
   13   -1510.2764718561      5.96E-09 Convergence criterion met
 Total energy in the final basis set = -1510.27647186
   13   -1510.2776309082      4.70E-09 Convergence criterion met
 Total energy in the final basis set = -1510.27763091
   13   -1510.2786189710      3.71E-09 Convergence criterion met
   11   -1510.2806814458      4.40E-09 Convergence criterion met
 Total energy in the final basis set = -1510.28068145
   10   -1510.2806950207      4.41E-09 Convergence criterion met
 Total energy in the final basis set = -1510.28069502
    9   -1510.2807001758      9.94E-09 Convergence criterion met
 Total energy in the final basis set = -1510.28070018
    9   -1510.2807028242      5.22E-09 Convergence criterion met
 Total energy in the final basis set = -1510.28070282
    9   -1510.2807054385      2.72E-09 Convergence criterion met
 Total energy in the final basis set = -1510.28070544
    9   -1510.2807072790      3.17E-09 Convergence criterion met
 Total energy in the final basis set = -1510.28070728

             Standard Nuclear Orientation (Angstroms)
    I     Atom           X                Y                Z
 ----------------------------------------------------------------
    1      O       2.1445398128    -0.6267663506     0.8869422787
    2      C       3.1607263678    -1.2644074277     0.5326750700
    3      C       4.3896857202    -0.7059332916    -0.2589123642
    4      C       4.1875542709     0.8037155802    -0.6795199140
    5      C       2.7157054946     1.3526997008    -0.5772655690
    6      O       1.9172541207     0.6560116902    -1.5503899795
    7      C       0.5039175236     1.0988371606    -1.4890127802
    8      C      -0.2518656934     0.5593936070    -0.2240140433
    9      O      -1.6468434171     1.0497428552    -0.3388469541
   10      C      -2.3923422578     0.6667306315     0.8264765741
   11      C      -3.9131029208     0.9428493691     0.5499123485
   12      C      -4.4574855241     0.5118812399    -0.8678053479
   13      C      -3.6965374838    -0.6761422334    -1.5670137627
   14      O      -3.9714021717    -1.1636161574    -2.6855122750
   15      O       3.3773861117    -2.6462958997     0.8198918813
   16      O      -2.7955900956    -1.2993727682    -0.6442756580
   17      O      -1.8905784809     0.2051166058     1.8724801831
   18      C      -2.1946646032    -2.5083536397    -1.2483988228
   19      C      -4.9225695636     0.2049064210     1.5275343802
   20      C      -6.1912517700     1.1323711042     1.6581568354
   21      C      -6.7874406494     1.0056363450     0.2058774264
   22      C      -5.8583906076    -0.1092722335    -0.4214800635
   23      O      -5.4456486620    -0.9368375482     0.7387109441
   24      H      -4.0476797777     2.0370447299     0.6510817833
   25      H      -4.5574984175     1.3570587232    -1.5708454075
   26      H      -4.4665934644    -0.1443927088     2.4744745454
   27      H      -6.8862335944     0.7289072600     2.4122032503
   28      H      -5.9339472344     2.1689027019     1.9286848024
   29      H      -7.8360447263     0.6689308073     0.2226362975
   30      H      -6.7312788446     1.9501983860    -0.3592375077
   31      H      -6.3373370951    -0.7372077095    -1.1981067121
   32      O       2.3098402437     2.3008864230     0.1267807549
   33      C       2.2330716276    -3.1851052736     1.5932873208
   34      C       5.6111739502    -0.5566291818     0.7492281305
   35      C       6.9063490262    -0.1341636609    -0.0519263911
   36      C       6.6401188443     1.3993712130    -0.2869277718
   37      C       5.1869923657     1.5399547945     0.3090066055
   38      O       5.2342012095     0.6616212791     1.5028793452
   39      H       4.6201928976    -1.3662228446    -1.1138824367
   40      H       4.5103873041     0.9383764758    -1.7282583999
   41      H       1.2878352169    -3.1242089584     1.0159835861
   42      H       5.7376577756    -1.4187429472     1.4329602061
   43      H       7.8095329183    -0.3033993541     0.5554753125
   44      H       7.0056243553    -0.6953570678    -0.9950921419
   45      H       7.3495487754     2.0214941897     0.2819135542
   46      H       6.6899992825     1.6853474473    -1.3498272917
   47      H       4.8688068743     2.5622360448     0.5923695017
   48      H       2.0951285952    -2.6414406247     2.5500892168
   49      H       2.4749641824    -4.2441730518     1.7978690297
   50      H      -1.5639368323    -2.9587279404    -0.4598828184
   51      H      -1.5665286046    -2.2566058244    -2.1276623907
   52      H      -2.9713059227    -3.2338775517    -1.5654200614
   53      H      -0.2297045131    -0.5506911496    -0.1971745169
   54      H       0.2333794867     0.9356524523     0.7010251379
   55      H       0.0295746025     0.7017377107    -2.4091702033
   56      H       0.4391212077     2.2085202970    -1.4981061098
 ----------------------------------------------------------------

    9   -1510.2807082560      2.35E-09 Convergence criterion met
 Total energy in the final basis set = -1510.28070826
 Final energy is   -1510.28070825602
 **  OPTIMIZATION CONVERGED  **

                    Orbital Energies (a.u.)
 --------------------------------------------------------------

 Alpha MOs
 -- Occupied --
-18.943 -18.937 -18.923 -18.918 -18.887 -18.885 -18.883 -18.871
-18.868 -18.864 -10.106 -10.098 -10.096 -10.093 -10.069 -10.067
-10.066 -10.062 -10.058 -10.058 -10.057 -10.055 -10.042 -10.037
-10.035 -10.032 -10.022 -10.020 -10.019 -10.017  -1.020  -1.013
 -1.003  -0.997  -0.971  -0.967  -0.943  -0.935  -0.931  -0.925
 -0.764  -0.761  -0.726  -0.722  -0.710  -0.702  -0.691  -0.667
 -0.662  -0.612  -0.596  -0.580  -0.545  -0.541  -0.537  -0.535
 -0.513  -0.507  -0.484  -0.477  -0.464  -0.456  -0.452  -0.442
 -0.437  -0.430  -0.423  -0.416  -0.414  -0.411  -0.408  -0.394
 -0.385  -0.378  -0.376  -0.368  -0.362  -0.357  -0.355  -0.344
 -0.341  -0.339  -0.336  -0.330  -0.328  -0.324  -0.318  -0.312
 -0.308  -0.306  -0.303  -0.301  -0.296  -0.290  -0.278  -0.274
 -0.268  -0.260  -0.246  -0.245  -0.242  -0.235  -0.232  -0.186
 -0.179  -0.170  -0.163  -0.161  -0.153  -0.147  -0.145  -0.142
 -0.141

          Ground-State Mulliken Net Atomic Charges

     Atom                 Charge (a.u.)
  ----------------------------------------
      1 O                    -0.208297
      2 C                     0.216177
      3 C                    -0.077005
      4 C                    -0.081035
      5 C                     0.216558
      6 O                    -0.178589
      7 C                    -0.047749
      8 C                    -0.049182
      9 O                    -0.181317
     10 C                     0.220052
     11 C                    -0.080087
     12 C                    -0.075085
     13 C                     0.213914
     14 O                    -0.217396
     15 O                    -0.169113
     16 O                    -0.166148
     17 O                    -0.214562
     18 C                    -0.126126
     19 C                     0.023842
     20 C                    -0.141673
     21 C                    -0.145367
     22 C                     0.023548
     23 O                    -0.192148
     24 H                     0.081943
     25 H                     0.087009
     26 H                     0.091232
     27 H                     0.077616
     28 H                     0.073566
     29 H                     0.078149
     30 H                     0.073688
     31 H                     0.084314
     32 O                    -0.215269
     33 C                    -0.127856
     34 C                     0.024574
     35 C                    -0.144589
     36 C                    -0.142841
     37 C                     0.023753
     38 O                    -0.190565
     39 H                     0.087882
     40 H                     0.083259
     41 H                     0.088111
     42 H                     0.085366
     43 H                     0.078485
     44 H                     0.073578
     45 H                     0.078439
     46 H                     0.073297
     47 H                     0.091248
     48 H                     0.094454
     49 H                     0.092131
     50 H                     0.090049
     51 H                     0.087229
     52 H                     0.092837
     53 H                     0.084370
     54 H                     0.104179
     55 H                     0.086611
     56 H                     0.090538
  ----------------------------------------
  Sum of atomic charges =    -0.000000

                    Cartesian Multipole Moments
 -----------------------------------------------------------------
    Charge (ESU x 10^10)
                 0.0000
    Dipole Moment (Debye)
         X       1.1948      Y      -0.7631      Z      -1.6151
       Tot       2.1491
    Quadrupole Moments (Debye-Ang)
        XX    -142.5734     XY     -11.7855     YY    -154.3134
        XZ      -8.4663     YZ      -4.4111     ZZ    -166.3874

 Total job time:  59.54s(wall), 2833.16s(cpu)
        *  Thank you very much for using Q-Chem.  Have a nice day.  *
