 Q-Chem 5.0, Q-Chem, Inc., Pleasanton, CA (2017)
 Q-Chem 5.0.1 for Intel X86 EM64T Linux

User input:
--------------------------------------------------------------
$molecule
0  1
O 2.1445398128 -0.6267663506 0.8869422787
C 3.1607263678 -1.2644074277 0.53267507
C 4.3896857202 -0.7059332916 -0.2589123642
C 4.1875542709 0.8037155802 -0.679519914
C 2.7157054946 1.3526997008 -0.577265569
O 1.9172541207 0.6560116902 -1.5503899795
C 0.5039175236 1.0988371606 -1.4890127802
C -0.2518656934 0.559393607 -0.2240140433
O -1.6468434171 1.0497428552 -0.3388469541
C -2.3923422578 0.6667306315 0.8264765741
C -3.9131029208 0.9428493691 0.5499123485
C -4.4574855241 0.5118812399 -0.8678053479
C -3.6965374838 -0.6761422334 -1.5670137627
O -3.9714021717 -1.1636161574 -2.685512275
O 3.3773861117 -2.6462958997 0.8198918813
O -2.7955900956 -1.2993727682 -0.644275658
O -1.8905784809 0.2051166058 1.8724801831
C -2.1946646032 -2.5083536397 -1.2483988228
C -4.9225695636 0.204906421 1.5275343802
C -6.19125177 1.1323711042 1.6581568354
C -6.7874406494 1.005636345 0.2058774264
C -5.8583906076 -0.1092722335 -0.4214800635
O -5.445648662 -0.9368375482 0.7387109441
H -4.0476797777 2.0370447299 0.6510817833
H -4.5574984175 1.3570587232 -1.5708454075
H -4.4665934644 -0.1443927088 2.4744745454
H -6.8862335944 0.72890726 2.4122032503
H -5.9339472344 2.1689027019 1.9286848024
H -7.8360447263 0.6689308073 0.2226362975
H -6.7312788446 1.950198386 -0.3592375077
H -6.3373370951 -0.7372077095 -1.1981067121
O 2.3098402437 2.300886423 0.1267807549
C 2.2330716276 -3.1851052736 1.5932873208
C 5.6111739502 -0.5566291818 0.7492281305
C 6.9063490262 -0.1341636609 -0.0519263911
C 6.6401188443 1.399371213 -0.2869277718
C 5.1869923657 1.5399547945 0.3090066055
O 5.2342012095 0.6616212791 1.5028793452
H 4.6201928976 -1.3662228446 -1.1138824367
H 4.5103873041 0.9383764758 -1.7282583999
H 1.2878352169 -3.1242089584 1.0159835861
H 5.7376577756 -1.4187429472 1.4329602061
H 7.8095329183 -0.3033993541 0.5554753125
H 7.0056243553 -0.6953570678 -0.9950921419
H 7.3495487754 2.0214941897 0.2819135542
H 6.6899992825 1.6853474473 -1.3498272917
H 4.8688068743 2.5622360448 0.5923695017
H 2.0951285952 -2.6414406247 2.5500892168
H 2.4749641824 -4.2441730518 1.7978690297
H -1.5639368323 -2.9587279404 -0.4598828184
H -1.5665286046 -2.2566058244 -2.1276623907
H -2.9713059227 -3.2338775517 -1.5654200614
H -0.2297045131 -0.5506911496 -0.1971745169
H 0.2333794867 0.9356524523 0.7010251379
H 0.0295746025 0.7017377107 -2.4091702033
H 0.4391212077 2.208520297 -1.4981061098
$end

$rem
JOBTYPE                   OPT
METHOD                    B3LYP
DFT_D                     d3_op
BASIS                     STO-3G
GEOM_OPT_MAX_CYCLES       100
GEOM_OPT_TOL_GRADIENT     300
GEOM_OPT_TOL_DISPLACEMENT 1200
GEOM_OPT_TOL_ENERGY       100
SYMMETRY                  False
THRESH                    12
SCF_CONVERGENCE           8
MAX_SUB_FILE_NUM          128
MEM_STATIC                400
MEM_TOTAL                 4000
$end
--------------------------------------------------------------

   16   -1510.2807938147      5.27E-09 Convergence criterion met
 Total energy in the final basis set = -1510.28079381
   13   -1510.2828607840      9.76E-09 Convergence criterion met
 Total energy in the final basis set = -1510.28286078
   13   -1510.2844117778      2.90E-09 Convergence criterion met
 Total energy in the final basis set = -1510.28441178
   13   -1510.2857401317      4.64E-09 Convergence criterion met
 Total energy in the final basis set = -1510.28574013
   13   -1510.2864485639      4.65E-09 Convergence criterion met
 Total energy in the final basis set = -1510.28644856
   13   -1510.2875855669      2.55E-09 Convergence criterion met
 Total energy in the final basis set = -1510.28758557
   13   -1510.2884872810      3.65E-09 Convergence criterion met
 Total energy in the final basis set = -1510.28848728
   13   -1510.2892237396      6.05E-09 Convergence criterion met
   12   -1510.3085427879      7.57E-09 Convergence criterion met
 Total energy in the final basis set = -1510.30854279
   11   -1510.3085661547      6.61E-09 Convergence criterion met
 Total energy in the final basis set = -1510.30856615
   11   -1510.3085634341      7.55E-09 Convergence criterion met
 Total energy in the final basis set = -1510.30856343
   10   -1510.3085714247      7.03E-09 Convergence criterion met
 Total energy in the final basis set = -1510.30857142
   10   -1510.3085781409      9.53E-09 Convergence criterion met
 Total energy in the final basis set = -1510.30857814
    9   -1510.3085815739      7.18E-09 Convergence criterion met
 Total energy in the final basis set = -1510.30858157

             Standard Nuclear Orientation (Angstroms)
    I     Atom           X                Y                Z
 ----------------------------------------------------------------
    1      O      -1.4294890350    -0.3294423501     1.3259120078
    2      C      -1.6614666097     0.6742873175     0.6087673334
    3      C      -2.8611672832     0.8280858052    -0.3856870855
    4      C      -3.3999358686    -0.5609234053    -0.9263654519
    5      C      -2.6072230637    -1.8163661733    -0.4107567644
    6      O      -1.3635542438    -1.8908470066    -1.1403879172
    7      C      -0.5341516742    -3.0216928289    -0.6611183460
    8      C       0.2130602909    -2.6735606535     0.6745747575
    9      O       1.5498532266    -2.1185457083     0.3348556805
   10      C       1.9881970253    -1.2116667850     1.3446558921
   11      C       3.4082895976    -0.6586033194     0.9651331035
   12      C       3.6094185638    -0.2514511956    -0.5558690622
   13      C       2.3677784549    -0.4852953719    -1.4878268095
   14      O       2.2768337692    -1.3114427142    -2.4226373197
   15      O      -0.8959599261     1.8673012676     0.5909444164
   16      O       1.3773859211     0.4888289586    -1.1625545917
   17      O       1.3416391455    -0.9353452223     2.3795785233
   18      C       0.2206727258     0.3778397050    -2.0839162255
   19      C       3.6744135691     0.7207028123     1.6952133081
   20      C       5.2207221169     1.0247303691     1.6593288282
   21      C       5.4148258749     1.4393846583     0.1527149182
   22      C       3.9426418610     1.2952435527    -0.3992071494
   23      O       3.1092335838     1.7168955843     0.7525555748
   24      H       4.1550581483    -1.4192053942     1.2612048033
   25      H       4.4576032680    -0.8048600446    -0.9953487934
   26      H       3.1830941686     0.8013695777     2.6846110206
   27      H       5.4682239658     1.8532281004     2.3418351911
   28      H       5.8208735090     0.1443242531     1.9392747863
   29      H       5.7585956242     2.4820445086     0.0620089488
   30      H       6.1223528443     0.7858871726    -0.3819916598
   31      H       3.7076365309     1.9091908595    -1.2899543463
   32      O      -2.9961743511    -2.6946205557     0.3853621719
   33      C       0.2470930790     1.7940564857     1.5397958552
   34      C      -4.1559808155     1.3711143799     0.3663847037
   35      C      -5.2081831043     1.8289272924    -0.7196997879
   36      C      -5.7425643577     0.4396119572    -1.2311478631
   37      C      -4.8805467366    -0.5556716742    -0.3610573600
   38      O      -4.7510614538     0.1441056155     0.9387861664
   39      H      -2.5606697881     1.5033230794    -1.2049648383
   40      H      -3.3805166653    -0.5791514947    -2.0311916773
   41      H       0.1978024158     0.8523163308     2.1232407269
   42      H      -3.9455325244     2.1128723935     1.1611366875
   43      H      -6.0092505003     2.4229219894    -0.2517036456
   44      H      -4.7453847518     2.4287710323    -1.5196029821
   45      H      -6.8144823458     0.3136207527    -1.0105318805
   46      H      -5.5848933681     0.2929792645    -2.3117469028
   47      H      -5.3101805257    -1.5652048901    -0.2122739382
   48      H       0.1809093163     2.6695035495     2.2134215016
   49      H       1.2120629775     1.8173862254     0.9768966280
   50      H      -0.3250259889     1.3337935777    -1.9911187039
   51      H      -0.4391297290    -0.4738492508    -1.7845789568
   52      H       0.5571712558     0.2351778959    -3.1295935690
   53      H      -0.3747810937    -1.9174041983     1.2479888526
   54      H       0.3419374594    -3.5908333143     1.2886074499
   55      H       0.2002603180    -3.2205675917    -1.4686059425
   56      H      -1.1741618804    -3.9150267447    -0.5007950531
 ----------------------------------------------------------------

    9   -1510.3085804658      3.35E-09 Convergence criterion met
 Total energy in the final basis set = -1510.30858047
 Final energy is   -1510.30858046579
 **  OPTIMIZATION CONVERGED  **

                    Orbital Energies (a.u.)
 --------------------------------------------------------------

 Alpha MOs
 -- Occupied --
-18.936 -18.936 -18.933 -18.921 -18.900 -18.888 -18.879 -18.877
-18.876 -18.860 -10.103 -10.102 -10.102 -10.091 -10.072 -10.065
-10.063 -10.062 -10.059 -10.059 -10.041 -10.039 -10.038 -10.036
-10.035 -10.028 -10.024 -10.023 -10.021 -10.020  -1.017  -1.011
 -1.006  -0.999  -0.977  -0.971  -0.941  -0.935  -0.934  -0.924
 -0.766  -0.764  -0.729  -0.724  -0.711  -0.708  -0.698  -0.651
 -0.645  -0.615  -0.598  -0.580  -0.549  -0.543  -0.541  -0.536
 -0.512  -0.511  -0.485  -0.469  -0.468  -0.459  -0.454  -0.441
 -0.436  -0.432  -0.427  -0.417  -0.407  -0.405  -0.401  -0.399
 -0.390  -0.371  -0.369  -0.363  -0.362  -0.357  -0.351  -0.349
 -0.341  -0.339  -0.336  -0.334  -0.330  -0.327  -0.322  -0.313
 -0.311  -0.309  -0.305  -0.297  -0.293  -0.287  -0.285  -0.277
 -0.272  -0.256  -0.248  -0.241  -0.238  -0.235  -0.234  -0.186
 -0.174  -0.170  -0.163  -0.158  -0.155  -0.152  -0.151  -0.145
 -0.141

          Ground-State Mulliken Net Atomic Charges

     Atom                 Charge (a.u.)
  ----------------------------------------
      1 O                    -0.218253
      2 C                     0.217656
      3 C                    -0.078330
      4 C                    -0.080619
      5 C                     0.218735
      6 O                    -0.177678
      7 C                    -0.049849
      8 C                    -0.063464
      9 O                    -0.172780
     10 C                     0.214182
     11 C                    -0.078763
     12 C                    -0.080280
     13 C                     0.211391
     14 O                    -0.220792
     15 O                    -0.168196
     16 O                    -0.176490
     17 O                    -0.211560
     18 C                    -0.151703
     19 C                     0.024459
     20 C                    -0.143596
     21 C                    -0.143684
     22 C                     0.027830
     23 O                    -0.186916
     24 H                     0.085693
     25 H                     0.084240
     26 H                     0.092139
     27 H                     0.079259
     28 H                     0.074805
     29 H                     0.078782
     30 H                     0.075162
     31 H                     0.086418
     32 O                    -0.206026
     33 C                    -0.155955
     34 C                     0.025805
     35 C                    -0.143688
     36 C                    -0.144046
     37 C                     0.025447
     38 O                    -0.186578
     39 H                     0.086111
     40 H                     0.084823
     41 H                     0.102314
     42 H                     0.084986
     43 H                     0.078738
     44 H                     0.073998
     45 H                     0.078697
     46 H                     0.073194
     47 H                     0.089662
     48 H                     0.076741
     49 H                     0.114202
     50 H                     0.080508
     51 H                     0.107175
     52 H                     0.081258
     53 H                     0.124554
     54 H                     0.083835
     55 H                     0.101155
     56 H                     0.095290
  ----------------------------------------
  Sum of atomic charges =     0.000000

                    Cartesian Multipole Moments
 -----------------------------------------------------------------
    Charge (ESU x 10^10)
                -0.0000
    Dipole Moment (Debye)
         X       1.4762      Y       1.1558      Z      -1.6944
       Tot       2.5271
    Quadrupole Moments (Debye-Ang)
        XX    -143.5068     XY      -4.1054     YY    -158.6370
        XZ      14.0529     YZ      -0.4785     ZZ    -164.5329

 Total job time:  205.32s(wall), 9802.22s(cpu)
        *  Thank you very much for using Q-Chem.  Have a nice day.  *
