 Q-Chem 5.0, Q-Chem, Inc., Pleasanton, CA (2017)
 Q-Chem 5.0.1 for Intel X86 EM64T Linux

User input:
--------------------------------------------------------------
$molecule
0  1
O -2.2357861875 0.2490911128 1.1229724972
C -3.0512536893 1.05753937 0.621639198
C -4.3375564472 0.6909450095 -0.1904373962
C -4.2794167699 -0.7902071844 -0.7504404185
C -2.8959088254 -1.5001447945 -0.5123646395
O -1.9589628285 -0.9162070003 -1.4374734689
C -0.6229309188 -1.5359710835 -1.2747166519
C 0.2358325521 -0.6040270667 -0.3522643194
O 1.6071277514 -1.1583710892 -0.2794842399
C 2.3559823921 -0.4686594074 0.73375402
C 3.8695547573 -0.8378835731 0.540665394
C 4.5532483861 -0.3914495632 -0.8165129424
C 3.8614355583 0.7516901935 -1.6475960243
O 4.3288816806 1.2735373665 -2.6837144783
O -2.9417346804 2.4747722725 0.7359353124
O 2.6879227542 1.23500235 -0.9907291225
O 1.8592590319 0.2487445027 1.6272731859
C 2.1196486743 2.385656323 -1.7284601826
C 4.8243446443 -0.1635150285 1.6151453593
C 6.0738948729 -1.108366988 1.7950935562
C 6.7889612317 -0.9077552561 0.4066023071
C 5.9027691602 0.2294380433 -0.2415182104
O 5.40152292 1.0086685752 0.9147584851
H 3.9346476479 -1.9394312232 0.6161558868
H 4.73784674 -1.2493500388 -1.4878592052
H 4.3060992763 0.1519458207 2.5416717093
H 6.7056626402 -0.7569931311 2.6267047006
H 5.7888017989 -2.155677245 1.9835835063
H 7.8289887831 -0.5662584846 0.5277239425
H 6.7875487916 -1.8244787808 -0.2047876922
H 6.4300844391 0.8874942825 -0.9595928144
O -2.6619107048 -2.4969187973 0.2026134704
C -1.7380296 2.8221424153 1.5310799465
C -5.5908024856 0.5798447933 0.7860446553
C -6.9022757017 0.4620587974 -0.089349015
C -6.8210639724 -1.0368371513 -0.5646839821
C -5.446349307 -1.4784474113 0.0710294834
O -5.4288765381 -0.768086556 1.3722474962
H -4.4984720569 1.4430078512 -0.9825370078
H -4.4829798015 -0.8012878252 -1.8363236454
H -0.8205556512 2.3726903624 1.0992983161
H -5.6220967065 1.3512886797 1.5802817893
H -7.7958597104 0.645397465 0.5282800785
H -6.9012732625 1.1742527205 -0.9300155662
H -7.6470948644 -1.6362808199 -0.1501291031
H -6.8256130832 -1.1367383441 -1.6618030583
H -5.3085871021 -2.5663281297 0.2250595219
H -1.8340907587 2.4791785083 2.5814219117
H -1.6641358028 3.9247331813 1.5062551191
H 1.2762001508 2.7525098358 -1.1149618483
H 1.7480612543 2.0835793821 -2.7292825116
H 2.8675484316 3.1939780396 -1.8575497416
H 0.2688343198 0.4183764725 -0.786772585
H -0.2419419054 -0.5300966225 0.6497318497
H -0.1699394487 -1.6164028893 -2.2837079629
H -0.7248608506 -2.5427880867 -0.8168501779
$end

$rem
JOBTYPE                   OPT
METHOD                    B3LYP
DFT_D                     d3_op
BASIS                     STO-3G
GEOM_OPT_MAX_CYCLES       100
GEOM_OPT_TOL_GRADIENT     300
GEOM_OPT_TOL_DISPLACEMENT 1200
GEOM_OPT_TOL_ENERGY       100
SYMMETRY                  False
THRESH                    12
SCF_CONVERGENCE           8
MAX_SUB_FILE_NUM          128
MEM_STATIC                400
MEM_TOTAL                 4000
$end
--------------------------------------------------------------

   16   -1510.2840740540      6.16E-09 Convergence criterion met
 Total energy in the final basis set = -1510.28407405
   14   -1510.2853625381      2.21E-09 Convergence criterion met
 Total energy in the final basis set = -1510.28536254
   14   -1510.2860222081      7.10E-09 Convergence criterion met
 Total energy in the final basis set = -1510.28602221
   14   -1510.2866349583      2.37E-09 Convergence criterion met
 Total energy in the final basis set = -1510.28663496
   14   -1510.2877805382      4.21E-09 Convergence criterion met
 Total energy in the final basis set = -1510.28778054
   14   -1510.2862314744      3.02E-09 Convergence criterion met
 Total energy in the final basis set = -1510.28623147
   14   -1510.2882612789      3.94E-09 Convergence criterion met
 Total energy in the final basis set = -1510.28826128
   14   -1510.2899417144      5.10E-09 Convergence criterion met
   13   -1510.2935957658      4.21E-09 Convergence criterion met
 Total energy in the final basis set = -1510.29359577
   12   -1510.2935991594      2.44E-09 Convergence criterion met
 Total energy in the final basis set = -1510.29359916
   12   -1510.2935650297      4.89E-09 Convergence criterion met
 Total energy in the final basis set = -1510.29356503
   10   -1510.2935886390      9.67E-09 Convergence criterion met
 Total energy in the final basis set = -1510.29358864
   10   -1510.2935916933      3.36E-09 Convergence criterion met
 Total energy in the final basis set = -1510.29359169
    9   -1510.2935836466      7.64E-09 Convergence criterion met
 Total energy in the final basis set = -1510.29358365

             Standard Nuclear Orientation (Angstroms)
    I     Atom           X                Y                Z
 ----------------------------------------------------------------
    1      O      -2.2640602878    -0.5633400622     1.3270539265
    2      C      -2.7676673392     0.5306141681     0.9752512308
    3      C      -4.0285858412     0.7240560199     0.0651574505
    4      C      -4.1486788289    -0.3635166758    -1.0885614184
    5      C      -2.9148211200    -1.3301042944    -1.1655390649
    6      O      -1.8319854183    -0.5766374566    -1.7385468060
    7      C      -0.5391654312    -1.2795001499    -1.5474064524
    8      C       0.1287787923    -0.5973101359    -0.3074409915
    9      O       1.5233560511    -1.0718849648    -0.1570731692
   10      C       2.1896824226    -0.2669702836     0.8202072784
   11      C       3.6915264619    -0.7131656225     0.8691386966
   12      C       4.3968445266    -0.6758591400    -0.5516957160
   13      C       3.4738473905    -0.1547258516    -1.7055123568
   14      O       3.2662678152    -0.6924354992    -2.8140813406
   15      O      -2.2806817970     1.8041053809     1.3846211250
   16      O       2.9153101112     1.1050387201    -1.3034781925
   17      O       1.6323919552     0.6160478052     1.5106722449
   18      C       2.0713012388     1.6592573708    -2.3853795504
   19      C       4.5791782493     0.3135446401     1.6852694230
   20      C       5.9460443726    -0.3888329476     2.0433052589
   21      C       6.6597127526    -0.3905899800     0.6399467618
   22      C       5.5822328361     0.3429759723    -0.2539099039
   23      O       4.9644877139     1.3206300866     0.6692449090
   24      H       3.7359607137    -1.7299603056     1.3015939427
   25      H       4.7738600820    -1.6708833463    -0.8455515112
   26      H       4.0450844356     0.7973933270     2.5262408651
   27      H       6.5058731448     0.2096776238     2.7794784633
   28      H       5.8009773211    -1.4028168630     2.4490977807
   29      H       7.5980792115     0.1857924533     0.6622596704
   30      H       6.8769458860    -1.4070230367     0.2748041324
   31      H       5.9831416537     0.8548631493    -1.1502456686
   32      O      -2.8565705707    -2.5378932699    -0.8562879172
   33      C      -1.1506479653     1.6507277174     2.3406830287
   34      C      -5.3555993167     0.4105801360     0.8904602861
   35      C      -6.5995027610     0.9131104226     0.0562128565
   36      C      -6.7049378080    -0.2094057559    -1.0426759655
   37      C      -5.4730019400    -1.1202626729    -0.6625362977
   38      O      -5.4498689652    -1.0633967940     0.8183552424
   39      H      -4.0269074443     1.7536907756    -0.3332708063
   40      H      -4.2562398615     0.1326733930    -2.0701597392
   41      H      -0.2195014624     1.2696372091     1.8576912338
   42      H      -5.3287415625     0.7482980290     1.9448437410
   43      H      -7.4995430036     0.9456791955     0.6904701474
   44      H      -6.4332667044     1.9145741001    -0.3720233441
   45      H      -7.6451438869    -0.7761039199    -0.9496504757
   46      H      -6.6312168461     0.1882492082    -2.0674974543
   47      H      -5.5246028937    -2.1717588037    -1.0055564356
   48      H      -1.4253895866     0.9684599700     3.1695487333
   49      H      -0.9659009428     2.6635712441     2.7424294927
   50      H       1.5532172695     2.5344743291    -1.9518762706
   51      H       1.3254566572     0.9225105452    -2.7456181443
   52      H       2.6858355949     1.9859352252    -3.2493821114
   53      H       0.1172437399     0.5035968825    -0.4578577972
   54      H      -0.4887992471    -0.8165102641     0.5957553814
   55      H       0.0688236962    -1.1356810765    -2.4642763647
   56      H      -0.7129989144    -2.3619337161    -1.3704114172
 ----------------------------------------------------------------

    9   -1510.2935906194      2.13E-09 Convergence criterion met
 Total energy in the final basis set = -1510.29359062
 Final energy is   -1510.29359061942
 **  OPTIMIZATION CONVERGED  **

                    Orbital Energies (a.u.)
 --------------------------------------------------------------

 Alpha MOs
 -- Occupied --
-18.938 -18.937 -18.934 -18.926 -18.889 -18.888 -18.883 -18.878
-18.877 -18.874 -10.107 -10.102 -10.099 -10.099 -10.068 -10.064
-10.062 -10.062 -10.060 -10.059 -10.058 -10.049 -10.040 -10.040
-10.038 -10.038 -10.022 -10.022 -10.020 -10.020  -1.020  -1.015
 -1.008  -1.006  -0.971  -0.971  -0.942  -0.937  -0.935  -0.935
 -0.766  -0.763  -0.729  -0.724  -0.711  -0.707  -0.696  -0.661
 -0.658  -0.614  -0.598  -0.581  -0.548  -0.545  -0.538  -0.538
 -0.515  -0.510  -0.484  -0.478  -0.465  -0.461  -0.454  -0.443
 -0.437  -0.432  -0.429  -0.416  -0.413  -0.410  -0.407  -0.399
 -0.391  -0.382  -0.370  -0.369  -0.361  -0.358  -0.355  -0.351
 -0.346  -0.337  -0.335  -0.333  -0.332  -0.329  -0.325  -0.311
 -0.310  -0.307  -0.305  -0.299  -0.295  -0.293  -0.283  -0.278
 -0.271  -0.260  -0.252  -0.248  -0.247  -0.235  -0.235  -0.186
 -0.177  -0.176  -0.173  -0.160  -0.158  -0.152  -0.150  -0.145
 -0.145

          Ground-State Mulliken Net Atomic Charges

     Atom                 Charge (a.u.)
  ----------------------------------------
      1 O                    -0.217433
      2 C                     0.211244
      3 C                    -0.077997
      4 C                    -0.079181
      5 C                     0.214754
      6 O                    -0.181163
      7 C                    -0.053099
      8 C                    -0.061509
      9 O                    -0.174345
     10 C                     0.222494
     11 C                    -0.077869
     12 C                    -0.078543
     13 C                     0.211841
     14 O                    -0.214482
     15 O                    -0.168142
     16 O                    -0.169568
     17 O                    -0.214100
     18 C                    -0.128779
     19 C                     0.024851
     20 C                    -0.143824
     21 C                    -0.143969
     22 C                     0.025827
     23 O                    -0.185887
     24 H                     0.086604
     25 H                     0.086099
     26 H                     0.090062
     27 H                     0.078452
     28 H                     0.073678
     29 H                     0.078298
     30 H                     0.074241
     31 H                     0.082580
     32 O                    -0.204558
     33 C                    -0.142795
     34 C                     0.025888
     35 C                    -0.143938
     36 C                    -0.143655
     37 C                     0.025105
     38 O                    -0.186144
     39 H                     0.087238
     40 H                     0.085365
     41 H                     0.110013
     42 H                     0.083138
     43 H                     0.078583
     44 H                     0.074059
     45 H                     0.078523
     46 H                     0.073363
     47 H                     0.089780
     48 H                     0.085828
     49 H                     0.087201
     50 H                     0.091959
     51 H                     0.088703
     52 H                     0.087167
     53 H                     0.083029
     54 H                     0.105005
     55 H                     0.087934
     56 H                     0.102074
  ----------------------------------------
  Sum of atomic charges =     0.000000

                    Cartesian Multipole Moments
 -----------------------------------------------------------------
    Charge (ESU x 10^10)
                 0.0000
    Dipole Moment (Debye)
         X       0.3780      Y       1.6232      Z      -0.4854
       Tot       1.7359
    Quadrupole Moments (Debye-Ang)
        XX    -141.4562     XY     -14.3917     YY    -166.6522
        XZ       9.1798     YZ      -2.8342     ZZ    -158.4964

 Total job time:  110.63s(wall), 5276.52s(cpu)
        *  Thank you very much for using Q-Chem.  Have a nice day.  *
