 Q-Chem 5.0, Q-Chem, Inc., Pleasanton, CA (2017)
 Q-Chem 5.0.1 for Intel X86 EM64T Linux

User input:
--------------------------------------------------------------
$molecule
0  1
O -3.94934 -3.66094 2.70899
C -3.26408 -4.56952 2.26188
C -3.36658 -6.02376 2.66595
C -4.05589 -6.33411 4.00475
C -4.72315 -5.17128 4.70525
O -3.77571 -4.35286 5.25111
C -4.33213 -3.22457 5.9342
C -4.32587 -2.00231 5.02197
O -4.78146 -0.84873 5.74623
C -5.02128 0.25439 4.99472
C -5.18055 1.50722 5.8228
C -3.93353 1.92036 6.61813
C -2.63613 1.25454 6.20564
O -1.52997 1.51881 6.65412
O -2.44358 -4.30665 1.21116
O -2.5673 0.50864 5.06979
O -5.07797 0.24575 3.77004
C -1.40463 0.02775 4.4917
C -5.41708 2.79614 5.00401
C -6.11639 3.8373 5.87727
C -4.9968 4.20783 6.82897
C -3.84266 3.40239 6.22165
O -4.13785 3.35979 4.84603
H -6.06413 1.34002 6.47954
H -4.05577 1.74102 7.70863
H -6.00017 2.63141 4.07199
H -6.33033 4.71369 5.22393
H -7.06015 3.50575 6.36121
H -4.80932 5.30103 6.74146
H -5.16606 3.93203 7.89251
H -2.86455 3.85571 6.49619
O -5.93668 -5.0258 4.81379
C -2.25778 -3.05285 0.66712
C -4.2346 -6.82486 1.68463
C -3.88213 -8.30893 1.76918
C -4.49331 -8.66632 3.10705
C -5.12689 -7.3254 3.49262
O -5.51703 -6.77457 2.25766
H -2.32182 -6.40867 2.67962
H -3.39242 -6.83502 4.74507
H -1.84805 -2.36064 1.43381
H -4.15101 -6.4671 0.6348
H -4.4472 -8.83814 0.96886
H -2.79825 -8.53186 1.66637
H -5.29176 -9.42264 2.93598
H -3.7797 -9.03771 3.8739
H -5.94092 -7.49629 4.23116
H -3.22069 -2.6564 0.27986
H -1.53674 -3.12373 -0.17281
H -1.65594 -0.52457 3.56318
H -0.88572 -0.66104 5.1921
H -0.73275 0.87075 4.2234
H -3.314 -1.84372 4.60687
H -5.04875 -2.21463 4.20625
H -3.6713 -3.00826 6.80022
H -5.34409 -3.39409 6.36774
$end

$opt
CONSTRAINT
tors           1           2           3           4     -19.418
tors           3           4           5           6     -73.762
tors           4           5           6           7    -180.000
tors           5           6           7           8     -97.219
tors           6           7           8           9    -175.254
tors           7           8           9          10    -170.064
tors           8           9          10          11    -166.564
tors           9          10          11          12     +63.244
tors          11          12          13          14    +174.688
ENDCONSTRAINT
$end

$rem
JOBTYPE                   OPT
METHOD                    B3LYP
DFT_D                     d3_op
BASIS                     STO-3G
GEOM_OPT_MAX_CYCLES       100
GEOM_OPT_TOL_GRADIENT     300
GEOM_OPT_TOL_DISPLACEMENT 1200
GEOM_OPT_TOL_ENERGY       100
SYMMETRY                  False
THRESH                    12
SCF_CONVERGENCE           8
MAX_SUB_FILE_NUM          128
MEM_STATIC                400
MEM_TOTAL                 4000
$end
--------------------------------------------------------------

   15   -1510.1495306898      6.72E-09 Convergence criterion met
 Total energy in the final basis set = -1510.14953069
   14   -1510.2210900984      6.42E-09 Convergence criterion met
 Total energy in the final basis set = -1510.22109010
   13   -1510.2595203054      6.80E-09 Convergence criterion met
 Total energy in the final basis set = -1510.25952031
   13   -1510.2759990192      7.41E-09 Convergence criterion met
 Total energy in the final basis set = -1510.27599902
   13   -1510.2801652982      9.55E-09 Convergence criterion met
 Total energy in the final basis set = -1510.28016530
   13   -1510.2822232288      8.20E-09 Convergence criterion met
 Total energy in the final basis set = -1510.28222323
   12   -1510.2830252592      7.11E-09 Convergence criterion met
 Total energy in the final basis set = -1510.28302526
   13   -1510.2834485824      2.99E-09 Convergence criterion met
   11   -1510.2839875400      4.17E-09 Convergence criterion met
 Total energy in the final basis set = -1510.28398754
   11   -1510.2840112678      3.48E-09 Convergence criterion met
 Total energy in the final basis set = -1510.28401127
    9   -1510.2840271965      9.28E-09 Convergence criterion met
 Total energy in the final basis set = -1510.28402720
   10   -1510.2840369122      9.41E-09 Convergence criterion met
 Total energy in the final basis set = -1510.28403691
    9   -1510.2840397447      6.92E-09 Convergence criterion met
 Total energy in the final basis set = -1510.28403974
    9   -1510.2840428078      3.51E-09 Convergence criterion met
 Total energy in the final basis set = -1510.28404281

             Standard Nuclear Orientation (Angstroms)
    I     Atom           X                Y                Z
 ----------------------------------------------------------------
    1      O      -2.2357861875     0.2490911128     1.1229724972
    2      C      -3.0512536893     1.0575393700     0.6216391980
    3      C      -4.3375564472     0.6909450095    -0.1904373962
    4      C      -4.2794167699    -0.7902071844    -0.7504404185
    5      C      -2.8959088254    -1.5001447945    -0.5123646395
    6      O      -1.9589628285    -0.9162070003    -1.4374734689
    7      C      -0.6229309188    -1.5359710835    -1.2747166519
    8      C       0.2358325521    -0.6040270667    -0.3522643194
    9      O       1.6071277514    -1.1583710892    -0.2794842399
   10      C       2.3559823921    -0.4686594074     0.7337540200
   11      C       3.8695547573    -0.8378835731     0.5406653940
   12      C       4.5532483861    -0.3914495632    -0.8165129424
   13      C       3.8614355583     0.7516901935    -1.6475960243
   14      O       4.3288816806     1.2735373665    -2.6837144783
   15      O      -2.9417346804     2.4747722725     0.7359353124
   16      O       2.6879227542     1.2350023500    -0.9907291225
   17      O       1.8592590319     0.2487445027     1.6272731859
   18      C       2.1196486743     2.3856563230    -1.7284601826
   19      C       4.8243446443    -0.1635150285     1.6151453593
   20      C       6.0738948729    -1.1083669880     1.7950935562
   21      C       6.7889612317    -0.9077552561     0.4066023071
   22      C       5.9027691602     0.2294380433    -0.2415182104
   23      O       5.4015229200     1.0086685752     0.9147584851
   24      H       3.9346476479    -1.9394312232     0.6161558868
   25      H       4.7378467400    -1.2493500388    -1.4878592052
   26      H       4.3060992763     0.1519458207     2.5416717093
   27      H       6.7056626402    -0.7569931311     2.6267047006
   28      H       5.7888017989    -2.1556772450     1.9835835063
   29      H       7.8289887831    -0.5662584846     0.5277239425
   30      H       6.7875487916    -1.8244787808    -0.2047876922
   31      H       6.4300844391     0.8874942825    -0.9595928144
   32      O      -2.6619107048    -2.4969187973     0.2026134704
   33      C      -1.7380296000     2.8221424153     1.5310799465
   34      C      -5.5908024856     0.5798447933     0.7860446553
   35      C      -6.9022757017     0.4620587974    -0.0893490150
   36      C      -6.8210639724    -1.0368371513    -0.5646839821
   37      C      -5.4463493070    -1.4784474113     0.0710294834
   38      O      -5.4288765381    -0.7680865560     1.3722474962
   39      H      -4.4984720569     1.4430078512    -0.9825370078
   40      H      -4.4829798015    -0.8012878252    -1.8363236454
   41      H      -0.8205556512     2.3726903624     1.0992983161
   42      H      -5.6220967065     1.3512886797     1.5802817893
   43      H      -7.7958597104     0.6453974650     0.5282800785
   44      H      -6.9012732625     1.1742527205    -0.9300155662
   45      H      -7.6470948644    -1.6362808199    -0.1501291031
   46      H      -6.8256130832    -1.1367383441    -1.6618030583
   47      H      -5.3085871021    -2.5663281297     0.2250595219
   48      H      -1.8340907587     2.4791785083     2.5814219117
   49      H      -1.6641358028     3.9247331813     1.5062551191
   50      H       1.2762001508     2.7525098358    -1.1149618483
   51      H       1.7480612543     2.0835793821    -2.7292825116
   52      H       2.8675484316     3.1939780396    -1.8575497416
   53      H       0.2688343198     0.4183764725    -0.7867725850
   54      H      -0.2419419054    -0.5300966225     0.6497318497
   55      H      -0.1699394487    -1.6164028893    -2.2837079629
   56      H      -0.7248608506    -2.5427880867    -0.8168501779
 ----------------------------------------------------------------

    9   -1510.2840437835      3.59E-09 Convergence criterion met
 Total energy in the final basis set = -1510.28404378
 Final energy is   -1510.28404378348
 **  OPTIMIZATION CONVERGED  **

                    Orbital Energies (a.u.)
 --------------------------------------------------------------

 Alpha MOs
 -- Occupied --
-18.945 -18.943 -18.921 -18.918 -18.889 -18.886 -18.884 -18.874
-18.868 -18.864 -10.107 -10.102 -10.095 -10.094 -10.070 -10.068
-10.063 -10.062 -10.058 -10.058 -10.056 -10.054 -10.042 -10.039
-10.036 -10.032 -10.022 -10.020 -10.019 -10.017  -1.021  -1.017
 -1.003  -0.998  -0.972  -0.968  -0.944  -0.938  -0.931  -0.925
 -0.765  -0.761  -0.726  -0.722  -0.710  -0.703  -0.691  -0.667
 -0.666  -0.612  -0.597  -0.578  -0.546  -0.542  -0.538  -0.535
 -0.513  -0.509  -0.485  -0.478  -0.464  -0.456  -0.454  -0.445
 -0.436  -0.431  -0.423  -0.417  -0.416  -0.413  -0.410  -0.394
 -0.392  -0.380  -0.376  -0.366  -0.362  -0.358  -0.353  -0.346
 -0.342  -0.339  -0.336  -0.331  -0.329  -0.326  -0.319  -0.312
 -0.308  -0.306  -0.305  -0.301  -0.297  -0.291  -0.280  -0.274
 -0.268  -0.260  -0.246  -0.244  -0.240  -0.235  -0.232  -0.186
 -0.182  -0.168  -0.164  -0.160  -0.156  -0.149  -0.146  -0.143
 -0.143

          Ground-State Mulliken Net Atomic Charges

     Atom                 Charge (a.u.)
  ----------------------------------------
      1 O                    -0.207951
      2 C                     0.215392
      3 C                    -0.078038
      4 C                    -0.080252
      5 C                     0.216301
      6 O                    -0.182326
      7 C                    -0.052251
      8 C                    -0.053674
      9 O                    -0.180541
     10 C                     0.221181
     11 C                    -0.081069
     12 C                    -0.076027
     13 C                     0.212802
     14 O                    -0.216193
     15 O                    -0.167397
     16 O                    -0.166608
     17 O                    -0.216589
     18 C                    -0.125996
     19 C                     0.023277
     20 C                    -0.142428
     21 C                    -0.145098
     22 C                     0.024223
     23 O                    -0.192362
     24 H                     0.083211
     25 H                     0.086703
     26 H                     0.090589
     27 H                     0.077711
     28 H                     0.073473
     29 H                     0.078257
     30 H                     0.073613
     31 H                     0.085605
     32 O                    -0.213523
     33 C                    -0.128995
     34 C                     0.025536
     35 C                    -0.143863
     36 C                    -0.143648
     37 C                     0.024794
     38 O                    -0.187979
     39 H                     0.087312
     40 H                     0.084628
     41 H                     0.094484
     42 H                     0.083705
     43 H                     0.078599
     44 H                     0.073770
     45 H                     0.078642
     46 H                     0.073461
     47 H                     0.090709
     48 H                     0.093045
     49 H                     0.091995
     50 H                     0.090657
     51 H                     0.089221
     52 H                     0.094405
     53 H                     0.077040
     54 H                     0.104679
     55 H                     0.084705
     56 H                     0.099087
  ----------------------------------------
  Sum of atomic charges =    -0.000000

                    Cartesian Multipole Moments
 -----------------------------------------------------------------
    Charge (ESU x 10^10)
                 0.0000
    Dipole Moment (Debye)
         X      -1.0263      Y       0.8456      Z      -1.8534
       Tot       2.2811
    Quadrupole Moments (Debye-Ang)
        XX    -145.2721     XY     -14.2484     YY    -157.4597
        XZ       9.9463     YZ       3.7767     ZZ    -164.3788

 Total job time:  51.95s(wall), 2469.83s(cpu)
        *  Thank you very much for using Q-Chem.  Have a nice day.  *
