 Q-Chem 5.0, Q-Chem, Inc., Pleasanton, CA (2017)
 Q-Chem 5.0.1 for Intel X86 EM64T Linux

User input:
--------------------------------------------------------------
$molecule
0  1
O -3.94934 -3.66094 2.70899
C -3.26408 -4.56952 2.26188
C -3.36658 -6.02376 2.66595
C -3.90047 -6.3253 4.07588
C -4.43912 -5.14858 4.859
O -3.42309 -4.53931 5.53862
C -3.85613 -3.41161 6.30674
C -3.79633 -2.14458 5.45986
O -4.12505 -1.00167 6.2652
C -4.59097 0.07571 5.58599
C -4.61259 1.33362 6.42136
C -3.23872 1.80048 6.92414
C -2.03822 1.17418 6.2435
O -0.87155 1.48263 6.43923
O -2.354 -4.2857 1.29361
O -2.19313 0.42406 5.11912
O -4.92077 0.05311 4.4053
C -1.17261 -0.01342 4.2932
C -5.07136 2.6027 5.66913
C -5.60027 3.62931 6.67008
C -4.31366 4.0522 7.35001
C -3.29169 3.27933 6.50873
O -3.87942 3.20861 5.2316
H -5.32225 1.14181 7.25775
H -3.11441 1.63255 8.01624
H -5.83812 2.40576 4.88876
H -5.986 4.48904 6.07615
H -6.40101 3.26971 7.35151
H -4.19051 5.14985 7.21618
H -4.23515 3.78637 8.42657
H -2.29465 3.77017 6.55967
O -5.63141 -4.89684 5.00627
C -2.13265 -3.0242 0.78221
C -4.41016 -6.74668 1.79587
C -4.13909 -8.25015 1.79468
C -4.57441 -8.6121 3.19712
C -5.07878 -7.25129 3.68978
O -5.60029 -6.64593 2.53352
H -2.36628 -6.48131 2.49233
H -3.19307 -6.8865 4.72712
H -1.79722 -2.33822 1.58865
H -4.44813 -6.36457 0.75159
H -4.84589 -8.71783 1.0723
H -3.09843 -8.53672 1.53031
H -5.42269 -9.32911 3.12638
H -3.77884 -9.03034 3.85087
H -5.7955 -7.40066 4.52765
H -3.06195 -2.63131 0.31689
H -1.34089 -3.07938 0.00731
H -1.60669 -0.58923 3.45084
H -0.47692 -0.66992 4.85813
H -0.61871 0.85445 3.87599
H -2.7886 -2.03811 5.0161
H -4.55071 -2.28934 4.65804
H -3.12632 -3.28074 7.13373
H -4.84641 -3.55287 6.79704
$end

$opt
CONSTRAINT
tors           1           2           3           4     -26.594
tors           3           4           5           6     -87.211
tors           4           5           6           7    -180.000
tors           5           6           7           8     -89.196
tors           6           7           8           9    -175.254
tors           7           8           9          10    -156.446
tors           8           9          10          11    -166.564
tors           9          10          11          12     +61.848
tors          11          12          13          14    +174.688
ENDCONSTRAINT
$end

$rem
JOBTYPE                   OPT
METHOD                    B3LYP
DFT_D                     d3_op
BASIS                     STO-3G
GEOM_OPT_MAX_CYCLES       100
GEOM_OPT_TOL_GRADIENT     300
GEOM_OPT_TOL_DISPLACEMENT 1200
GEOM_OPT_TOL_ENERGY       100
SYMMETRY                  False
THRESH                    12
SCF_CONVERGENCE           8
MAX_SUB_FILE_NUM          128
MEM_STATIC                400
MEM_TOTAL                 4000
$end
--------------------------------------------------------------

   15   -1510.1492977260      6.45E-09 Convergence criterion met
 Total energy in the final basis set = -1510.14929773
   13   -1510.2210368532      8.60E-09 Convergence criterion met
 Total energy in the final basis set = -1510.22103685
   13   -1510.2599311439      8.35E-09 Convergence criterion met
 Total energy in the final basis set = -1510.25993114
   13   -1510.2766813201      9.17E-09 Convergence criterion met
 Total energy in the final basis set = -1510.27668132
   13   -1510.2809724035      9.85E-09 Convergence criterion met
 Total energy in the final basis set = -1510.28097240
   12   -1510.2816543524      9.38E-09 Convergence criterion met
 Total energy in the final basis set = -1510.28165435
   13   -1510.2819219060      1.76E-09 Convergence criterion met
 Total energy in the final basis set = -1510.28192191
   12   -1510.2821099786      4.01E-09 Convergence criterion met
   11   -1510.2822328786      6.00E-09 Convergence criterion met
 Total energy in the final basis set = -1510.28223288
   10   -1510.2822549070      9.26E-09 Convergence criterion met
 Total energy in the final basis set = -1510.28225491
   10   -1510.2822698992      6.97E-09 Convergence criterion met
 Total energy in the final basis set = -1510.28226990
    9   -1510.2822770572      9.07E-09 Convergence criterion met
 Total energy in the final basis set = -1510.28227706
   10   -1510.2822816305      7.33E-09 Convergence criterion met
 Total energy in the final basis set = -1510.28228163
    9   -1510.2822837196      7.24E-09 Convergence criterion met
 Total energy in the final basis set = -1510.28228372

             Standard Nuclear Orientation (Angstroms)
    I     Atom           X                Y                Z
 ----------------------------------------------------------------
    1      O      -2.1268958032     0.4809277348     0.9699613891
    2      C      -3.0608664703     1.1774160640     0.5119552251
    3      C      -4.3877103134     0.6659926201    -0.1372491144
    4      C      -4.2397248644    -0.7703886508    -0.7914690669
    5      C      -2.8256826382    -1.4245170341    -0.5672888688
    6      O      -1.9767497124    -0.9693203539    -1.6360749643
    7      C      -0.6180311995    -1.5443786482    -1.4965630889
    8      C       0.2580246609    -0.5917386402    -0.6111024289
    9      O       1.6386987313    -1.1258049142    -0.5810691096
   10      C       2.3258794621    -0.6589319400     0.5921122807
   11      C       3.8537701961    -0.9607554307     0.3954939353
   12      C       4.5715656313    -0.2496574345    -0.8239243231
   13      C       3.8827910057     1.0278762145    -1.4334281331
   14      O       4.3668800258     1.7527707100    -2.3303610391
   15      O      -3.0769620429     2.6058482414     0.5429854367
   16      O       2.6907807420     1.3617584536    -0.7195979903
   17      O       1.7750221513    -0.1644022892     1.5976514832
   18      C       2.1204114750     2.6300439602    -1.2244558002
   19      C       4.7580748302    -0.4999510396     1.6148161869
   20      C       6.0191308448    -1.4460434695     1.6493731720
   21      C       6.7778060674    -0.9622997532     0.3578571072
   22      C       5.8882105243     0.2656528949    -0.0886284270
   23      O       5.3342112951     0.7950883264     1.1800917152
   24      H       3.9388613645    -2.0549536939     0.2565742154
   25      H       4.7957181932    -0.9565839853    -1.6427872178
   26      H       4.2042494971    -0.3811982816     2.5665826633
   27      H       6.6152073563    -1.2610246678     2.5575891920
   28      H       5.7477710829    -2.5131956384     1.6135264851
   29      H       7.8027564723    -0.6309202911     0.5877626402
   30      H       6.8271484341    -1.7389239254    -0.4226551931
   31      H       6.4268415225     1.0593419140    -0.6426966427
   32      O      -2.5103296154    -2.3040069300     0.2610021467
   33      C      -1.8428371811     3.1069501941     1.1941743683
   34      C      -5.5257570616     0.3899265407     0.9428763151
   35      C      -6.9042441576     0.2919117453     0.1767200044
   36      C      -6.7717263915    -1.1212812397    -0.5034436030
   37      C      -5.3483638805    -1.5749195487     0.0072651487
   38      O      -5.2653469498    -1.0006359075     1.3712425426
   39      H      -4.7214325172     1.4175891616    -0.8747239324
   40      H      -4.4388931394    -0.7345339797    -1.8770481757
   41      H      -0.9345511927     2.7867764413     0.6437872962
   42      H      -5.5145665613     1.0774969002     1.8109119371
   43      H      -7.7421923749     0.3202329925     0.8914644086
   44      H      -7.0334637796     1.1070885472    -0.5529260221
   45      H      -7.5490864937    -1.8155254105    -0.1466990353
   46      H      -6.8211028008    -1.0707915123    -1.6030427566
   47      H      -5.1774202287    -2.6681127251     0.0424575149
   48      H      -1.7602902877     2.7500123533     2.2409305223
   49      H      -1.9169034580     4.2097697764     1.1809847356
   50      H       1.2704969342     2.8657473905    -0.5576905752
   51      H       1.7569004869     2.5259129684    -2.2676304907
   52      H       2.8636690844     3.4521144114    -1.1895179105
   53      H       0.2665526455     0.4262725923    -1.0575190565
   54      H      -0.1710116426    -0.5132864988     0.4118060965
   55      H      -0.1984021148    -1.6206625655    -2.5199475300
   56      H      -0.6702530996    -2.5511972715    -1.0305139802
 ----------------------------------------------------------------

    9   -1510.2822833423      4.44E-09 Convergence criterion met
 Total energy in the final basis set = -1510.28228334
 Final energy is   -1510.28228334230
 **  OPTIMIZATION CONVERGED  **

                    Orbital Energies (a.u.)
 --------------------------------------------------------------

 Alpha MOs
 -- Occupied --
-18.943 -18.943 -18.922 -18.916 -18.889 -18.884 -18.884 -18.874
-18.868 -18.865 -10.106 -10.102 -10.094 -10.094 -10.070 -10.070
-10.063 -10.063 -10.059 -10.058 -10.055 -10.054 -10.041 -10.039
-10.036 -10.032 -10.022 -10.021 -10.019 -10.017  -1.020  -1.016
 -1.003  -0.997  -0.971  -0.968  -0.943  -0.938  -0.931  -0.925
 -0.765  -0.761  -0.726  -0.722  -0.710  -0.703  -0.691  -0.668
 -0.666  -0.613  -0.597  -0.578  -0.546  -0.542  -0.537  -0.535
 -0.513  -0.508  -0.484  -0.476  -0.464  -0.457  -0.453  -0.444
 -0.435  -0.432  -0.422  -0.418  -0.417  -0.413  -0.409  -0.395
 -0.389  -0.379  -0.376  -0.366  -0.362  -0.357  -0.352  -0.345
 -0.342  -0.341  -0.335  -0.330  -0.329  -0.326  -0.319  -0.312
 -0.307  -0.306  -0.305  -0.301  -0.297  -0.292  -0.278  -0.274
 -0.268  -0.260  -0.245  -0.244  -0.238  -0.235  -0.232  -0.185
 -0.182  -0.171  -0.162  -0.159  -0.155  -0.147  -0.146  -0.143
 -0.142

          Ground-State Mulliken Net Atomic Charges

     Atom                 Charge (a.u.)
  ----------------------------------------
      1 O                    -0.207722
      2 C                     0.212011
      3 C                    -0.079196
      4 C                    -0.080196
      5 C                     0.214101
      6 O                    -0.180160
      7 C                    -0.051134
      8 C                    -0.055063
      9 O                    -0.181923
     10 C                     0.221999
     11 C                    -0.080695
     12 C                    -0.075956
     13 C                     0.213071
     14 O                    -0.216286
     15 O                    -0.168100
     16 O                    -0.165971
     17 O                    -0.213967
     18 C                    -0.125441
     19 C                     0.023333
     20 C                    -0.142402
     21 C                    -0.145128
     22 C                     0.024169
     23 O                    -0.192184
     24 H                     0.083018
     25 H                     0.086759
     26 H                     0.091056
     27 H                     0.077758
     28 H                     0.073426
     29 H                     0.078127
     30 H                     0.073483
     31 H                     0.085338
     32 O                    -0.210036
     33 C                    -0.128007
     34 C                     0.026034
     35 C                    -0.143130
     36 C                    -0.144485
     37 C                     0.025962
     38 O                    -0.185563
     39 H                     0.086428
     40 H                     0.085261
     41 H                     0.087752
     42 H                     0.083992
     43 H                     0.078653
     44 H                     0.073965
     45 H                     0.078576
     46 H                     0.073476
     47 H                     0.088651
     48 H                     0.094144
     49 H                     0.091834
     50 H                     0.089674
     51 H                     0.088558
     52 H                     0.094661
     53 H                     0.075952
     54 H                     0.109402
     55 H                     0.085832
     56 H                     0.096292
  ----------------------------------------
  Sum of atomic charges =    -0.000000

                    Cartesian Multipole Moments
 -----------------------------------------------------------------
    Charge (ESU x 10^10)
                -0.0000
    Dipole Moment (Debye)
         X      -1.1714      Y       0.8591      Z      -2.1326
       Tot       2.5803
    Quadrupole Moments (Debye-Ang)
        XX    -143.6229     XY     -13.9204     YY    -155.3510
        XZ       7.5233     YZ       5.2707     ZZ    -165.3495

 Total job time:  45.54s(wall), 2163.83s(cpu)
        *  Thank you very much for using Q-Chem.  Have a nice day.  *
