 Q-Chem 5.0, Q-Chem, Inc., Pleasanton, CA (2017)
 Q-Chem 5.0.1 for Intel X86 EM64T Linux

User input:
--------------------------------------------------------------
$molecule
0  1
O -2.1268958032 0.4809277348 0.9699613891
C -3.0608664703 1.177416064 0.5119552251
C -4.3877103134 0.6659926201 -0.1372491144
C -4.2397248644 -0.7703886508 -0.7914690669
C -2.8256826382 -1.4245170341 -0.5672888688
O -1.9767497124 -0.9693203539 -1.6360749643
C -0.6180311995 -1.5443786482 -1.4965630889
C 0.2580246609 -0.5917386402 -0.6111024289
O 1.6386987313 -1.1258049142 -0.5810691096
C 2.3258794621 -0.65893194 0.5921122807
C 3.8537701961 -0.9607554307 0.3954939353
C 4.5715656313 -0.2496574345 -0.8239243231
C 3.8827910057 1.0278762145 -1.4334281331
O 4.3668800258 1.75277071 -2.3303610391
O -3.0769620429 2.6058482414 0.5429854367
O 2.690780742 1.3617584536 -0.7195979903
O 1.7750221513 -0.1644022892 1.5976514832
C 2.120411475 2.6300439602 -1.2244558002
C 4.7580748302 -0.4999510396 1.6148161869
C 6.0191308448 -1.4460434695 1.649373172
C 6.7778060674 -0.9622997532 0.3578571072
C 5.8882105243 0.2656528949 -0.088628427
O 5.3342112951 0.7950883264 1.1800917152
H 3.9388613645 -2.0549536939 0.2565742154
H 4.7957181932 -0.9565839853 -1.6427872178
H 4.2042494971 -0.3811982816 2.5665826633
H 6.6152073563 -1.2610246678 2.557589192
H 5.7477710829 -2.5131956384 1.6135264851
H 7.8027564723 -0.6309202911 0.5877626402
H 6.8271484341 -1.7389239254 -0.4226551931
H 6.4268415225 1.059341914 -0.6426966427
O -2.5103296154 -2.30400693 0.2610021467
C -1.8428371811 3.1069501941 1.1941743683
C -5.5257570616 0.3899265407 0.9428763151
C -6.9042441576 0.2919117453 0.1767200044
C -6.7717263915 -1.1212812397 -0.503443603
C -5.3483638805 -1.5749195487 0.0072651487
O -5.2653469498 -1.0006359075 1.3712425426
H -4.7214325172 1.4175891616 -0.8747239324
H -4.4388931394 -0.7345339797 -1.8770481757
H -0.9345511927 2.7867764413 0.6437872962
H -5.5145665613 1.0774969002 1.8109119371
H -7.7421923749 0.3202329925 0.8914644086
H -7.0334637796 1.1070885472 -0.5529260221
H -7.5490864937 -1.8155254105 -0.1466990353
H -6.8211028008 -1.0707915123 -1.6030427566
H -5.1774202287 -2.6681127251 0.0424575149
H -1.7602902877 2.7500123533 2.2409305223
H -1.916903458 4.2097697764 1.1809847356
H 1.2704969342 2.8657473905 -0.5576905752
H 1.7569004869 2.5259129684 -2.2676304907
H 2.8636690844 3.4521144114 -1.1895179105
H 0.2665526455 0.4262725923 -1.0575190565
H -0.1710116426 -0.5132864988 0.4118060965
H -0.1984021148 -1.6206625655 -2.51994753
H -0.6702530996 -2.5511972715 -1.0305139802
$end

$rem
JOBTYPE                   OPT
METHOD                    B3LYP
DFT_D                     d3_op
BASIS                     STO-3G
GEOM_OPT_MAX_CYCLES       100
GEOM_OPT_TOL_GRADIENT     300
GEOM_OPT_TOL_DISPLACEMENT 1200
GEOM_OPT_TOL_ENERGY       100
SYMMETRY                  False
THRESH                    12
SCF_CONVERGENCE           8
MAX_SUB_FILE_NUM          128
MEM_STATIC                400
MEM_TOTAL                 4000
$end
--------------------------------------------------------------

   16   -1510.2822791668      5.22E-09 Convergence criterion met
 Total energy in the final basis set = -1510.28227917
   13   -1510.2825150876      7.46E-09 Convergence criterion met
 Total energy in the final basis set = -1510.28251509
   14   -1510.2843872395      2.75E-09 Convergence criterion met
 Total energy in the final basis set = -1510.28438724
   14   -1510.2856189665      2.46E-09 Convergence criterion met
 Total energy in the final basis set = -1510.28561897
   13   -1510.2868209673      9.53E-09 Convergence criterion met
 Total energy in the final basis set = -1510.28682097
   13   -1510.2883665242      4.15E-09 Convergence criterion met
 Total energy in the final basis set = -1510.28836652
   13   -1510.2898141494      8.80E-09 Convergence criterion met
 Total energy in the final basis set = -1510.28981415
   13   -1510.2904925108      3.45E-09 Convergence criterion met
   12   -1510.2936872840      4.12E-09 Convergence criterion met
 Total energy in the final basis set = -1510.29368728
   11   -1510.2936836774      6.97E-09 Convergence criterion met
 Total energy in the final basis set = -1510.29368368
   11   -1510.2936955021      4.66E-09 Convergence criterion met
 Total energy in the final basis set = -1510.29369550
   11   -1510.2936926498      9.88E-09 Convergence criterion met
 Total energy in the final basis set = -1510.29369265
   10   -1510.2936974479      9.47E-09 Convergence criterion met
 Total energy in the final basis set = -1510.29369745
    9   -1510.2936964407      4.28E-09 Convergence criterion met
 Total energy in the final basis set = -1510.29369644

             Standard Nuclear Orientation (Angstroms)
    I     Atom           X                Y                Z
 ----------------------------------------------------------------
    1      O      -2.1261122662    -0.5611924662     1.1283555090
    2      C      -2.7611111227     0.5060548686     0.9437471211
    3      C      -4.0989002521     0.6602153610     0.1430209330
    4      C      -4.2309621833    -0.3795497481    -1.0515001246
    5      C      -2.9226760951    -1.2053412527    -1.3183796540
    6      O      -1.9730479083    -0.2996152238    -1.9080044091
    7      C      -0.6131509733    -0.8950823228    -1.9144750727
    8      C       0.1175010706    -0.2910251759    -0.6703555849
    9      O       1.4945555847    -0.8291804034    -0.5760107064
   10      C       2.1274039084    -0.2713880777     0.5791449895
   11      C       3.5940834570    -0.8214966087     0.6503485358
   12      C       4.4443516494    -0.5353784998    -0.6576569551
   13      C       3.6648383320     0.2528718300    -1.7634726493
   14      O       3.5626487588    -0.0396325630    -2.9739668117
   15      O      -2.3668763720     1.7707620151     1.4610169721
   16      O       3.0923146365     1.4269402152    -1.1695846588
   17      O       1.5628011981     0.4909380263     1.3961560248
   18      C       2.3490161069     2.1995066400    -2.1901801085
   19      C       4.4407978101    -0.0556482539     1.7465555749
   20      C       5.7337552697    -0.9036917251     2.0586416822
   21      C       6.5877766466    -0.6391723174     0.7620467598
   22      C       5.6322691547     0.3287779926    -0.0427477146
   23      O       4.9666566217     1.1208463660     1.0142970529
   24      H       3.5448788999    -1.9073554940     0.8530275331
   25      H       4.8128683475    -1.4704638292    -1.1142011282
   26      H       3.8468498852     0.2690903634     2.6229494216
   27      H       6.2385310540    -0.5191411744     2.9590354241
   28      H       5.5060591948    -1.9711485098     2.2088308338
   29      H       7.5356857908    -0.1305580674     0.9995057584
   30      H       6.8131555382    -1.5616084735     0.2028764040
   31      H       6.1383722777     0.9953378083    -0.7677886432
   32      O      -2.7256820039    -2.4247018553    -1.1372456408
   33      C      -1.1582582194     1.6355487851     2.3186803183
   34      C      -5.3273394180     0.2064103329     1.0493576064
   35      C      -6.6734913429     0.6105708737     0.3264575727
   36      C      -6.7724612512    -0.5009978639    -0.7844613607
   37      C      -5.4261973878    -1.2869530522    -0.5408617649
   38      O      -5.2860486111    -1.2675310108     0.9347183419
   39      H      -4.1969237391     1.7060310773    -0.1970510014
   40      H      -4.4946414709     0.1493320377    -1.9852757638
   41      H      -0.2710217618     1.2332303586     1.7753206127
   42      H      -5.2515883071     0.5179346034     2.1094260418
   43      H      -7.5188507733     0.5578578643     1.0305740231
   44      H      -6.6265930848     1.6283870437    -0.0930403460
   45      H      -7.6386532750    -1.1606543203    -0.6159841221
   46      H      -6.8368634505    -0.0842441241    -1.8021925821
   47      H      -5.3959339291    -2.3283679195    -0.9159697697
   48      H      -1.3658785371     0.9801186054     3.1884099036
   49      H      -0.9387811577     2.6577897968     2.6767759177
   50      H       1.8644781783     3.0331523908    -1.6493511208
   51      H       1.5776587325     1.5806798325    -2.6919804424
   52      H       3.0289942580     2.6077154225    -2.9658321051
   53      H       0.1439675774     0.8161589335    -0.7619204435
   54      H      -0.4835480488    -0.5415846941     0.2369916340
   55      H      -0.1183713953    -0.6069008370    -2.8641812718
   56      H      -0.6808369417    -2.0011800383    -1.8381243345
 ----------------------------------------------------------------

    9   -1510.2936955133      3.10E-09 Convergence criterion met
 Total energy in the final basis set = -1510.29369551
 Final energy is   -1510.29369551331
 **  OPTIMIZATION CONVERGED  **

                    Orbital Energies (a.u.)
 --------------------------------------------------------------

 Alpha MOs
 -- Occupied --
-18.941 -18.934 -18.934 -18.925 -18.889 -18.888 -18.879 -18.879
-18.877 -18.874 -10.104 -10.104 -10.099 -10.098 -10.066 -10.064
-10.063 -10.061 -10.058 -10.058 -10.057 -10.051 -10.041 -10.039
-10.037 -10.037 -10.022 -10.021 -10.020 -10.020  -1.018  -1.016
 -1.007  -1.005  -0.971  -0.970  -0.940  -0.939  -0.935  -0.934
 -0.765  -0.763  -0.728  -0.724  -0.711  -0.706  -0.695  -0.661
 -0.659  -0.614  -0.598  -0.580  -0.547  -0.545  -0.538  -0.538
 -0.514  -0.510  -0.483  -0.477  -0.465  -0.460  -0.454  -0.443
 -0.437  -0.431  -0.428  -0.416  -0.413  -0.410  -0.407  -0.399
 -0.391  -0.380  -0.371  -0.369  -0.360  -0.358  -0.357  -0.351
 -0.345  -0.337  -0.335  -0.333  -0.331  -0.329  -0.325  -0.311
 -0.309  -0.306  -0.305  -0.299  -0.293  -0.292  -0.283  -0.278
 -0.270  -0.260  -0.251  -0.247  -0.245  -0.235  -0.234  -0.186
 -0.177  -0.173  -0.173  -0.159  -0.158  -0.152  -0.149  -0.145
 -0.144

          Ground-State Mulliken Net Atomic Charges

     Atom                 Charge (a.u.)
  ----------------------------------------
      1 O                    -0.215921
      2 C                     0.214146
      3 C                    -0.077575
      4 C                    -0.079343
      5 C                     0.214908
      6 O                    -0.181240
      7 C                    -0.053347
      8 C                    -0.063358
      9 O                    -0.174948
     10 C                     0.222035
     11 C                    -0.077978
     12 C                    -0.078932
     13 C                     0.211772
     14 O                    -0.213592
     15 O                    -0.167224
     16 O                    -0.168800
     17 O                    -0.215559
     18 C                    -0.128286
     19 C                     0.024734
     20 C                    -0.143979
     21 C                    -0.143767
     22 C                     0.025948
     23 O                    -0.186331
     24 H                     0.086489
     25 H                     0.086008
     26 H                     0.090194
     27 H                     0.078296
     28 H                     0.073744
     29 H                     0.078076
     30 H                     0.074122
     31 H                     0.082552
     32 O                    -0.205784
     33 C                    -0.141320
     34 C                     0.025702
     35 C                    -0.144091
     36 C                    -0.143404
     37 C                     0.024861
     38 O                    -0.186806
     39 H                     0.087708
     40 H                     0.085278
     41 H                     0.111860
     42 H                     0.083193
     43 H                     0.078671
     44 H                     0.074063
     45 H                     0.078591
     46 H                     0.073461
     47 H                     0.090296
     48 H                     0.085077
     49 H                     0.087922
     50 H                     0.091668
     51 H                     0.087846
     52 H                     0.088113
     53 H                     0.079170
     54 H                     0.106800
     55 H                     0.086406
     56 H                     0.101873
  ----------------------------------------
  Sum of atomic charges =     0.000000

                    Cartesian Multipole Moments
 -----------------------------------------------------------------
    Charge (ESU x 10^10)
                 0.0000
    Dipole Moment (Debye)
         X      -0.1485      Y       1.5540      Z      -0.3504
       Tot       1.5999
    Quadrupole Moments (Debye-Ang)
        XX    -140.4888     XY     -13.6464     YY    -164.2636
        XZ       7.2144     YZ      -3.1256     ZZ    -160.5828

 Total job time:  80.04s(wall), 3813.07s(cpu)
        *  Thank you very much for using Q-Chem.  Have a nice day.  *
