 Q-Chem 5.0, Q-Chem, Inc., Pleasanton, CA (2017)
 Q-Chem 5.0.1 for Intel X86 EM64T Linux

User input:
--------------------------------------------------------------
$molecule
0  1
O -3.94934 -3.66094 2.70899
C -3.26408 -4.56952 2.26188
C -3.36658 -6.02376 2.66595
C -4.23927 -6.35361 3.88802
C -5.0538 -5.21556 4.46201
O -4.23608 -4.35279 5.13459
C -4.93707 -3.24456 5.70879
C -4.53817 -1.95009 5.00782
O -5.06551 -0.82276 5.7247
C -4.95987 0.372 5.09184
C -5.1203 1.54839 6.02514
C -4.0465 1.6593 7.11736
C -2.80234 0.81956 6.90851
O -1.81589 0.82231 7.63065
O -2.39979 -4.29585 1.24973
O -2.55279 0.27395 5.68731
O -4.72359 0.49002 3.8947
C -1.35729 -0.30079 5.29147
C -4.96515 2.93104 5.35295
C -5.68603 3.99012 6.18625
C -4.77673 4.06681 7.39612
C -3.64598 3.13353 6.94894
O -3.61521 3.27488 5.54883
H -6.1477 1.47613 6.44846
H -4.44562 1.40101 8.12251
H -5.33268 2.9604 4.30423
H -5.60932 4.94878 5.62432
H -6.75504 3.78366 6.40858
H -4.41336 5.11363 7.49618
H -5.2283 3.72491 8.35269
H -2.70244 3.38003 7.48429
O -6.27577 -5.13424 4.38803
C -2.19719 -3.03777 0.72198
C -4.03775 -6.87335 1.57621
C -3.63739 -8.33876 1.73798
C -4.43081 -8.71153 2.97187
C -5.17443 -7.39767 3.2342
O -5.39395 -6.8767 1.94538
H -2.32008 -6.35911 2.84451
H -3.67492 -6.81719 4.72816
H -1.82436 -2.34821 1.50962
H -3.81048 -6.52342 0.54529
H -4.0486 -8.90104 0.86928
H -2.54181 -8.51233 1.80621
H -5.15956 -9.50512 2.6926
H -3.8281 -9.043 3.84485
H -6.08388 -7.59933 3.84204
H -3.14483 -2.64396 0.29617
H -1.44064 -3.0999 -0.08685
H -1.44922 -0.65009 4.24247
H -1.11719 -1.1703 5.94022
H -0.53683 0.44631 5.34302
H -3.4375 -1.89482 4.94022
H -4.98057 -1.97866 3.99058
H -4.62085 -3.18199 6.77176
H -6.04787 -3.30892 5.72384
$end

$opt
CONSTRAINT
tors           1           2           3           4     -10.264
tors           3           4           5           6     -73.762
tors           4           5           6           7    -180.000
tors           5           6           7           8    -112.541
tors           6           7           8           9    -170.400
tors           7           8           9          10    -170.064
tors           8           9          10          11    -162.123
tors           9          10          11          12     +63.087
tors          11          12          13          14    +176.278
ENDCONSTRAINT
$end

$rem
JOBTYPE                   OPT
METHOD                    B3LYP
DFT_D                     d3_op
BASIS                     STO-3G
GEOM_OPT_MAX_CYCLES       100
GEOM_OPT_TOL_GRADIENT     300
GEOM_OPT_TOL_DISPLACEMENT 1200
GEOM_OPT_TOL_ENERGY       100
SYMMETRY                  False
THRESH                    12
SCF_CONVERGENCE           8
MAX_SUB_FILE_NUM          128
MEM_STATIC                400
MEM_TOTAL                 4000
$end
--------------------------------------------------------------

   15   -1510.1478843896      6.03E-09 Convergence criterion met
 Total energy in the final basis set = -1510.14788439
   13   -1510.2193419173      9.37E-09 Convergence criterion met
 Total energy in the final basis set = -1510.21934192
   13   -1510.2578776843      7.62E-09 Convergence criterion met
 Total energy in the final basis set = -1510.25787768
   14   -1510.2746525382      6.19E-09 Convergence criterion met
 Total energy in the final basis set = -1510.27465254
   13   -1510.2798330555      6.60E-09 Convergence criterion met
 Total energy in the final basis set = -1510.27983306
   13   -1510.2808856396      5.89E-09 Convergence criterion met
 Total energy in the final basis set = -1510.28088564
   13   -1510.2816000155      1.95E-09 Convergence criterion met
 Total energy in the final basis set = -1510.28160002
   13   -1510.2822442717      2.94E-09 Convergence criterion met
   11   -1510.2828803561      8.53E-09 Convergence criterion met
 Total energy in the final basis set = -1510.28288036
   10   -1510.2829274681      8.57E-09 Convergence criterion met
 Total energy in the final basis set = -1510.28292747
    9   -1510.2829474240      7.91E-09 Convergence criterion met
 Total energy in the final basis set = -1510.28294742
    9   -1510.2829641290      9.28E-09 Convergence criterion met
 Total energy in the final basis set = -1510.28296413
    9   -1510.2829734674      7.31E-09 Convergence criterion met
 Total energy in the final basis set = -1510.28297347
    9   -1510.2829767868      6.52E-09 Convergence criterion met
 Total energy in the final basis set = -1510.28297679

             Standard Nuclear Orientation (Angstroms)
    I     Atom           X                Y                Z
 ----------------------------------------------------------------
    1      O      -2.3333339343     0.4328797807     1.2171112020
    2      C      -3.1488365411     1.1564991918     0.6001730469
    3      C      -4.3150998659     0.6771227050    -0.3283425344
    4      C      -4.2363864230    -0.8723071881    -0.6454419929
    5      C      -2.9297596004    -1.5688957714    -0.1170745396
    6      O      -1.8533299996    -1.1553052123    -0.9769920082
    7      C      -0.5798159070    -1.7739395379    -0.5411102787
    8      C       0.3388631103    -0.6237411607    -0.0076858076
    9      O       1.6933427382    -1.1805402457     0.2141555738
   10      C       2.5082159504    -0.2285918620     0.9182967718
   11      C       4.0082570120    -0.6505642538     0.7231248893
   12      C       4.5740923447    -0.6313662094    -0.7559792133
   13      C       3.8032177657     0.2257307472    -1.8257809735
   14      O       4.1613382506     0.3931984405    -3.0123594154
   15      O      -3.1531533844     2.5816563410     0.6582876795
   16      O       2.7101639923     0.9311593498    -1.2339608321
   17      O       2.0708959278     0.7226509177     1.5990189283
   18      C       2.0885248272     1.8404425821    -2.2233913223
   19      C       5.0364161801     0.2989458932     1.4715652720
   20      C       6.3084378995    -0.5645889251     1.8200935770
   21      C       6.9096926160    -0.7856046390     0.3811730514
   22      C       5.9567432988     0.1189157317    -0.4989513351
   23      O       5.5401987612     1.2079782454     0.4145070469
   24      H       4.0955394926    -1.6820350179     1.1128641372
   25      H       4.7173864103    -1.6505332493    -1.1577393095
   26      H       4.5904373031     0.8782385873     2.3034990020
   27      H       6.9986872389     0.0086301664     2.4597659774
   28      H       6.0537182711    -1.5080969720     2.3282826839
   29      H       7.9500093616    -0.4298851755     0.3139747220
   30      H       6.8773253200    -1.8409878959     0.0660858443
   31      H       6.4164801427     0.5317317354    -1.4182548510
   32      O      -2.8363439548    -2.4379505115     0.7755621733
   33      C      -2.0692176245     3.0532496542     1.5541659339
   34      C      -5.7026082434     0.7442502731     0.4494185244
   35      C      -6.8753697873     0.5091794185    -0.5834414414
   36      C      -6.7853213506    -1.0467696971    -0.8037093556
   37      C      -5.5357930947    -1.4037155243     0.0915722454
   38      O      -5.6817285903    -0.4966584696     1.2550577133
   39      H      -4.3279168858     1.2973120383    -1.2421475979
   40      H      -4.2914846515    -1.0429708836    -1.7356095988
   41      H      -1.0763749313     2.6883023060     1.2205323404
   42      H      -5.8172412224     1.6334944813     1.0995992167
   43      H      -7.8409792465     0.8006741306    -0.1406200287
   44      H      -6.7272285873     1.0804065991    -1.5139432719
   45      H      -7.6861113960    -1.5587949274    -0.4293094996
   46      H      -6.6351096492    -1.3211190674    -1.8601487659
   47      H      -5.4650004997    -2.4555248909     0.4304757600
   48      H      -2.2333977748     2.7197218615     2.5991112186
   49      H      -2.0958736178     4.1573452835     1.5086984734
   50      H       1.3046248750     2.3948231902    -1.6752651780
   51      H       1.6299011051     1.2778878333    -3.0624315319
   52      H       2.8293116457     2.5534704554    -2.6385033513
   53      H       0.3901000868     0.1889775021    -0.7636406720
   54      H      -0.0961960208    -0.1998197169     0.9242673366
   55      H      -0.1134021521    -2.2677341380    -1.4192826019
   56      H      -0.7888427427    -2.5234800424     0.2518309850
 ----------------------------------------------------------------

    9   -1510.2829776753      3.29E-09 Convergence criterion met
 Total energy in the final basis set = -1510.28297768
 Final energy is   -1510.28297767525
 **  OPTIMIZATION CONVERGED  **

                    Orbital Energies (a.u.)
 --------------------------------------------------------------

 Alpha MOs
 -- Occupied --
-18.945 -18.943 -18.919 -18.917 -18.888 -18.887 -18.885 -18.874
-18.867 -18.866 -10.108 -10.102 -10.095 -10.095 -10.069 -10.069
-10.063 -10.060 -10.059 -10.058 -10.058 -10.055 -10.042 -10.039
-10.036 -10.033 -10.022 -10.020 -10.020 -10.018  -1.021  -1.017
 -1.002  -0.998  -0.971  -0.969  -0.944  -0.938  -0.931  -0.926
 -0.765  -0.761  -0.726  -0.723  -0.711  -0.704  -0.691  -0.667
 -0.666  -0.612  -0.597  -0.577  -0.546  -0.542  -0.538  -0.536
 -0.513  -0.509  -0.486  -0.478  -0.463  -0.456  -0.455  -0.445
 -0.436  -0.431  -0.423  -0.417  -0.416  -0.413  -0.410  -0.394
 -0.392  -0.380  -0.377  -0.367  -0.362  -0.357  -0.353  -0.345
 -0.342  -0.338  -0.336  -0.332  -0.329  -0.326  -0.320  -0.313
 -0.308  -0.307  -0.305  -0.302  -0.298  -0.291  -0.280  -0.274
 -0.269  -0.260  -0.248  -0.242  -0.239  -0.235  -0.233  -0.187
 -0.182  -0.166  -0.165  -0.161  -0.156  -0.149  -0.146  -0.144
 -0.143

          Ground-State Mulliken Net Atomic Charges

     Atom                 Charge (a.u.)
  ----------------------------------------
      1 O                    -0.207669
      2 C                     0.215674
      3 C                    -0.077628
      4 C                    -0.080682
      5 C                     0.218184
      6 O                    -0.182320
      7 C                    -0.053292
      8 C                    -0.051118
      9 O                    -0.181664
     10 C                     0.221271
     11 C                    -0.080854
     12 C                    -0.076131
     13 C                     0.212620
     14 O                    -0.216005
     15 O                    -0.168232
     16 O                    -0.166811
     17 O                    -0.215975
     18 C                    -0.126451
     19 C                     0.023353
     20 C                    -0.142473
     21 C                    -0.145058
     22 C                     0.024379
     23 O                    -0.192191
     24 H                     0.083259
     25 H                     0.086942
     26 H                     0.090388
     27 H                     0.077722
     28 H                     0.073501
     29 H                     0.078267
     30 H                     0.073688
     31 H                     0.085349
     32 O                    -0.215059
     33 C                    -0.128929
     34 C                     0.025148
     35 C                    -0.143979
     36 C                    -0.143593
     37 C                     0.024686
     38 O                    -0.188919
     39 H                     0.087282
     40 H                     0.084518
     41 H                     0.094464
     42 H                     0.084684
     43 H                     0.078588
     44 H                     0.073729
     45 H                     0.078509
     46 H                     0.073367
     47 H                     0.090540
     48 H                     0.092495
     49 H                     0.092422
     50 H                     0.092058
     51 H                     0.089428
     52 H                     0.094050
     53 H                     0.079958
     54 H                     0.099621
     55 H                     0.082862
     56 H                     0.102026
  ----------------------------------------
  Sum of atomic charges =    -0.000000

                    Cartesian Multipole Moments
 -----------------------------------------------------------------
    Charge (ESU x 10^10)
                -0.0000
    Dipole Moment (Debye)
         X      -0.7626      Y       0.6590      Z      -1.7818
       Tot       2.0471
    Quadrupole Moments (Debye-Ang)
        XX    -146.9801     XY     -13.1442     YY    -157.2578
        XZ      13.7788     YZ       2.5580     ZZ    -164.4023

 Total job time:  49.11s(wall), 2332.34s(cpu)
        *  Thank you very much for using Q-Chem.  Have a nice day.  *
