 Q-Chem 5.0, Q-Chem, Inc., Pleasanton, CA (2017)
 Q-Chem 5.0.1 for Intel X86 EM64T Linux

User input:
--------------------------------------------------------------
$molecule
0  1
O -2.3333339343 0.4328797807 1.217111202
C -3.1488365411 1.1564991918 0.6001730469
C -4.3150998659 0.677122705 -0.3283425344
C -4.236386423 -0.8723071881 -0.6454419929
C -2.9297596004 -1.5688957714 -0.1170745396
O -1.8533299996 -1.1553052123 -0.9769920082
C -0.579815907 -1.7739395379 -0.5411102787
C 0.3388631103 -0.6237411607 -0.0076858076
O 1.6933427382 -1.1805402457 0.2141555738
C 2.5082159504 -0.228591862 0.9182967718
C 4.008257012 -0.6505642538 0.7231248893
C 4.5740923447 -0.6313662094 -0.7559792133
C 3.8032177657 0.2257307472 -1.8257809735
O 4.1613382506 0.3931984405 -3.0123594154
O -3.1531533844 2.581656341 0.6582876795
O 2.7101639923 0.9311593498 -1.2339608321
O 2.0708959278 0.7226509177 1.5990189283
C 2.0885248272 1.8404425821 -2.2233913223
C 5.0364161801 0.2989458932 1.471565272
C 6.3084378995 -0.5645889251 1.820093577
C 6.909692616 -0.785604639 0.3811730514
C 5.9567432988 0.1189157317 -0.4989513351
O 5.5401987612 1.2079782454 0.4145070469
H 4.0955394926 -1.6820350179 1.1128641372
H 4.7173864103 -1.6505332493 -1.1577393095
H 4.5904373031 0.8782385873 2.303499002
H 6.9986872389 0.0086301664 2.4597659774
H 6.0537182711 -1.508096972 2.3282826839
H 7.9500093616 -0.4298851755 0.313974722
H 6.87732532 -1.8409878959 0.0660858443
H 6.4164801427 0.5317317354 -1.418254851
O -2.8363439548 -2.4379505115 0.7755621733
C -2.0692176245 3.0532496542 1.5541659339
C -5.7026082434 0.7442502731 0.4494185244
C -6.8753697873 0.5091794185 -0.5834414414
C -6.7853213506 -1.0467696971 -0.8037093556
C -5.5357930947 -1.4037155243 0.0915722454
O -5.6817285903 -0.4966584696 1.2550577133
H -4.3279168858 1.2973120383 -1.2421475979
H -4.2914846515 -1.0429708836 -1.7356095988
H -1.0763749313 2.688302306 1.2205323404
H -5.8172412224 1.6334944813 1.0995992167
H -7.8409792465 0.8006741306 -0.1406200287
H -6.7272285873 1.0804065991 -1.5139432719
H -7.686111396 -1.5587949274 -0.4293094996
H -6.6351096492 -1.3211190674 -1.8601487659
H -5.4650004997 -2.4555248909 0.43047576
H -2.2333977748 2.7197218615 2.5991112186
H -2.0958736178 4.1573452835 1.5086984734
H 1.304624875 2.3948231902 -1.675265178
H 1.6299011051 1.2778878333 -3.0624315319
H 2.8293116457 2.5534704554 -2.6385033513
H 0.3901000868 0.1889775021 -0.763640672
H -0.0961960208 -0.1998197169 0.9242673366
H -0.1134021521 -2.267734138 -1.4192826019
H -0.7888427427 -2.5234800424 0.251830985
$end

$rem
JOBTYPE                   OPT
METHOD                    B3LYP
DFT_D                     d3_op
BASIS                     STO-3G
GEOM_OPT_MAX_CYCLES       100
GEOM_OPT_TOL_GRADIENT     300
GEOM_OPT_TOL_DISPLACEMENT 1200
GEOM_OPT_TOL_ENERGY       100
SYMMETRY                  False
THRESH                    12
SCF_CONVERGENCE           8
MAX_SUB_FILE_NUM          128
MEM_STATIC                400
MEM_TOTAL                 4000
$end
--------------------------------------------------------------

   16   -1510.2828868539      6.57E-09 Convergence criterion met
 Total energy in the final basis set = -1510.28288685
   14   -1510.2847172908      1.81E-09 Convergence criterion met
 Total energy in the final basis set = -1510.28471729
   14   -1510.2861363159      3.77E-09 Convergence criterion met
 Total energy in the final basis set = -1510.28613632
   14   -1510.2861924738      3.81E-09 Convergence criterion met
 Total energy in the final basis set = -1510.28619247
   13   -1510.2879851080      3.89E-09 Convergence criterion met
 Total energy in the final basis set = -1510.28798511
   13   -1510.2898134564      7.52E-09 Convergence criterion met
 Total energy in the final basis set = -1510.28981346
   13   -1510.2893517037      7.42E-09 Convergence criterion met
 Total energy in the final basis set = -1510.28935170
   13   -1510.2879167484      9.02E-09 Convergence criterion met
   12   -1510.2936634467      9.33E-09 Convergence criterion met
 Total energy in the final basis set = -1510.29366345
   12   -1510.2936861228      7.39E-09 Convergence criterion met
 Total energy in the final basis set = -1510.29368612
   12   -1510.2936977394      5.96E-09 Convergence criterion met
 Total energy in the final basis set = -1510.29369774
   11   -1510.2937119853      4.98E-09 Convergence criterion met
 Total energy in the final basis set = -1510.29371199
   10   -1510.2937138121      8.23E-09 Convergence criterion met
 Total energy in the final basis set = -1510.29371381
   10   -1510.2937167390      4.13E-09 Convergence criterion met
 Total energy in the final basis set = -1510.29371674

             Standard Nuclear Orientation (Angstroms)
    I     Atom           X                Y                Z
 ----------------------------------------------------------------
    1      O      -2.0207564975     0.2457619825     1.0970827154
    2      C      -2.7133351336     0.9906531098     0.3608403037
    3      C      -4.0857031902     0.6247287668    -0.2988560126
    4      C      -4.2329360977    -0.9231198828    -0.6225827481
    5      C      -2.9174446973    -1.7472797293    -0.3828437057
    6      O      -2.0141508562    -1.4087050607    -1.4504203708
    7      C      -0.6425419366    -1.8946978587    -1.1529126153
    8      C       0.1349190805    -0.6511012855    -0.6092335176
    9      O       1.5025275320    -1.0388312062    -0.1897360324
   10      C       2.0980519671     0.0609919831     0.5055084384
   11      C       3.5373830086    -0.3645110847     0.9607395799
   12      C       4.4926467428    -0.7794192853    -0.2366584062
   13      C       3.8225502637    -0.6731725650    -1.6463777822
   14      O       3.8225103950    -1.5317062253    -2.5543625618
   15      O      -2.3605640404     2.3241627415     0.0167702034
   16      O       3.2054329222     0.6168047754    -1.7600510647
   17      O       1.5189853031     1.1450716182     0.7442483927
   18      C       2.5480307504     0.7519632124    -3.0793164495
   19      C       4.3264127054     0.8600721444     1.5784383976
   20      C       5.5626653190     0.3000678045     2.3836505965
   21      C       6.5179575904    -0.1288934372     1.2082185826
   22      C       5.6608348149     0.2882554965    -0.0522390072
   23      O       4.9454230558     1.5027463341     0.3951062760
   24      H       3.4359782185    -1.1953087663     1.6831015433
   25      H       4.8637112282    -1.8126874805    -0.1210314454
   26      H       3.6809160479     1.5821398278     2.1152637255
   27      H       6.0135996692     1.0935144190     3.0004540249
   28      H       5.2864000801    -0.5428984624     3.0369268322
   29      H       7.4654822545     0.4324124652     1.2312096597
   30      H       6.7456300162    -1.2067549820     1.2155025769
   31      H       6.2433813353     0.4956753251    -0.9709818335
   32      O      -2.6866155021    -2.5969692258     0.5021194310
   33      C      -1.1189838388     2.7381676774     0.7253745508
   34      C      -5.2617896278     0.8081023282     0.7590630374
   35      C      -6.6450111178     0.7159395489    -0.0013255790
   36      C      -6.7630918393    -0.8361077068    -0.2370410996
   37      C      -5.3959157628    -1.3369210915     0.3727401639
   38      O      -5.1987085154    -0.4459524590     1.5403416226
   39      H      -4.2334010459     1.2557491700    -1.1928757528
   40      H      -4.5326451502    -1.0630124158    -1.6769243654
   41      H      -0.2567938463     2.0530959542     0.5487615676
   42      H      -5.1462321445     1.6877749604     1.4217835784
   43      H      -7.4606100778     1.0931833087     0.6357996293
   44      H      -6.6361964878     1.2908602128    -0.9411691601
   45      H      -7.6116613502    -1.2640080630     0.3202306862
   46      H      -6.8689893649    -1.1006155649    -1.3012726074
   47      H      -5.3656769509    -2.3976766664     0.6888374937
   48      H      -1.2981016645     2.8013928216     1.8177930749
   49      H      -0.8813118580     3.7451391824     0.3372220770
   50      H       1.9882283124     1.7047293119    -3.0457912183
   51      H       1.8507108204    -0.0873428473    -3.2763604366
   52      H       3.2921819515     0.7897546703    -3.9012721435
   53      H       0.1813493893     0.1312292925    -1.3973198523
   54      H      -0.4463760100    -0.2400214110     0.2508508818
   55      H      -0.2051559060    -2.2814112632    -2.0956987923
   56      H      -0.6829429765    -2.7016747408    -0.3902771069
 ----------------------------------------------------------------

    9   -1510.2937162118      5.96E-09 Convergence criterion met
 Total energy in the final basis set = -1510.29371621
 Final energy is   -1510.29371621181
 **  OPTIMIZATION CONVERGED  **

                    Orbital Energies (a.u.)
 --------------------------------------------------------------

 Alpha MOs
 -- Occupied --
-18.941 -18.935 -18.932 -18.924 -18.889 -18.888 -18.880 -18.877
-18.876 -18.875 -10.105 -10.103 -10.099 -10.098 -10.065 -10.065
-10.063 -10.061 -10.059 -10.057 -10.055 -10.051 -10.041 -10.038
-10.037 -10.037 -10.022 -10.021 -10.020 -10.019  -1.017  -1.016
 -1.007  -1.005  -0.971  -0.970  -0.939  -0.938  -0.936  -0.933
 -0.765  -0.763  -0.727  -0.723  -0.710  -0.706  -0.695  -0.661
 -0.659  -0.613  -0.598  -0.579  -0.547  -0.545  -0.538  -0.537
 -0.514  -0.510  -0.482  -0.477  -0.465  -0.460  -0.454  -0.444
 -0.436  -0.431  -0.427  -0.416  -0.414  -0.410  -0.407  -0.398
 -0.391  -0.378  -0.371  -0.368  -0.360  -0.358  -0.357  -0.350
 -0.345  -0.338  -0.334  -0.333  -0.331  -0.328  -0.324  -0.311
 -0.309  -0.306  -0.305  -0.299  -0.293  -0.292  -0.282  -0.278
 -0.269  -0.260  -0.251  -0.246  -0.244  -0.235  -0.234  -0.185
 -0.177  -0.173  -0.171  -0.159  -0.157  -0.152  -0.149  -0.145
 -0.144

          Ground-State Mulliken Net Atomic Charges

     Atom                 Charge (a.u.)
  ----------------------------------------
      1 O                    -0.215380
      2 C                     0.214851
      3 C                    -0.077795
      4 C                    -0.079366
      5 C                     0.214959
      6 O                    -0.181346
      7 C                    -0.053511
      8 C                    -0.064021
      9 O                    -0.175935
     10 C                     0.222351
     11 C                    -0.078004
     12 C                    -0.078932
     13 C                     0.211587
     14 O                    -0.212694
     15 O                    -0.167183
     16 O                    -0.167860
     17 O                    -0.216334
     18 C                    -0.128241
     19 C                     0.024866
     20 C                    -0.144017
     21 C                    -0.143785
     22 C                     0.025941
     23 O                    -0.186350
     24 H                     0.086388
     25 H                     0.086032
     26 H                     0.090265
     27 H                     0.078276
     28 H                     0.073849
     29 H                     0.078071
     30 H                     0.074147
     31 H                     0.082435
     32 O                    -0.206217
     33 C                    -0.141619
     34 C                     0.025718
     35 C                    -0.143934
     36 C                    -0.143580
     37 C                     0.025116
     38 O                    -0.186779
     39 H                     0.087734
     40 H                     0.085306
     41 H                     0.113650
     42 H                     0.083339
     43 H                     0.078624
     44 H                     0.074048
     45 H                     0.078590
     46 H                     0.073485
     47 H                     0.090048
     48 H                     0.084503
     49 H                     0.087617
     50 H                     0.091777
     51 H                     0.089189
     52 H                     0.088095
     53 H                     0.076857
     54 H                     0.107629
     55 H                     0.085928
     56 H                     0.101609
  ----------------------------------------
  Sum of atomic charges =     0.000000

                    Cartesian Multipole Moments
 -----------------------------------------------------------------
    Charge (ESU x 10^10)
                 0.0000
    Dipole Moment (Debye)
         X      -0.3218      Y       0.9706      Z      -1.1988
       Tot       1.5757
    Quadrupole Moments (Debye-Ang)
        XX    -140.9108     XY      -6.4967     YY    -164.7120
        XZ      13.4819     YZ      -0.2420     ZZ    -159.3482

 Total job time:  72.84s(wall), 3472.58s(cpu)
        *  Thank you very much for using Q-Chem.  Have a nice day.  *
