 Q-Chem 5.0, Q-Chem, Inc., Pleasanton, CA (2017)
 Q-Chem 5.0.1 for Intel X86 EM64T Linux

User input:
--------------------------------------------------------------
$molecule
0  1
O -2.2707276322 0.4918813929 1.0564011901
C -3.1728573699 1.1878004405 0.5353253955
C -4.4001405767 0.6668923849 -0.2842780157
C -4.2685200738 -0.8670803306 -0.6539298841
C -2.887649748 -1.5078298539 -0.2566345573
O -1.9246523732 -1.0842469973 -1.2402875325
C -0.5932868511 -1.6537575655 -0.9271478131
C 0.2718663213 -0.535224859 -0.2522811579
O 1.6354875283 -1.0767819513 -0.0481195205
C 2.3989289168 -0.1793958247 0.7721231861
C 3.8908221688 -0.6686557121 0.7463176701
C 4.6262637427 -0.6402967784 -0.6563109224
C 3.9900479441 0.2306608174 -1.8004650196
O 4.4585074185 0.3655232137 -2.9523099712
O -3.2375407013 2.6089434314 0.6294376991
O 2.8760168972 0.9828086285 -1.3154851585
O 1.9208437085 0.7685279532 1.4297276221
C 2.3456757659 1.8674193626 -2.3767307492
C 4.8568289183 0.2271876817 1.6309847507
C 6.0613722247 -0.6813265569 2.0884581138
C 6.8176308271 -0.8698379902 0.7206207767
C 5.9843300102 0.0779230768 -0.2315697293
O 5.4932328384 1.1519093461 0.6620213843
H 3.8876599212 -1.7094284608 1.1208230684
H 4.7992384455 -1.6575202031 -1.0510077458
H 4.3385305522 0.7958945608 2.4276646488
H 6.6869264882 -0.149551037 2.823216222
H 5.7271915041 -1.6339137144 2.5294922509
H 7.8637152556 -0.5305276064 0.7826312283
H 6.8071558698 -1.9146140312 0.3702827594
H 6.5501900677 0.5029148828 -1.0835924929
O -2.6713192184 -2.3639093427 0.6270485314
C -2.0936912603 3.1135110379 1.4281894463
C -5.7061552695 0.6372690232 0.6255206625
C -6.9600607382 0.3743368004 -0.3002512176
C -6.8100089882 -1.1657550262 -0.590666472
C -5.4684743846 -1.4869638033 0.1751207536
O -5.5489697586 -0.6258990621 1.3797947078
H -4.5356133288 1.3057335975 -1.1752053585
H -4.4078367769 -1.0121125286 -1.7401967459
H -1.1228189543 2.8256075633 0.9757381671
H -5.8010178434 1.4986749884 1.3151372186
H -7.8924177118 0.5966953756 0.2427910905
H -6.9308253242 0.9853824215 -1.2166280141
H -7.6462455593 -1.7396157513 -0.1605009913
H -6.7407150859 -1.3929696189 -1.6664388
H -5.3170516615 -2.5439812751 0.4677898325
H -2.1241009157 2.7289048251 2.4679728509
H -2.1905941795 4.2145438779 1.4359210535
H 1.5370731585 2.4549997717 -1.9043948736
H 1.9346371243 1.2831721862 -3.2255225482
H 3.1281368855 2.5513769976 -2.7636025445
H 0.3156835731 0.3553663533 -0.9162296793
H -0.2041988417 -0.2231794268 0.703437551
H -0.1348769088 -1.9801317726 -1.8830752347
H -0.7099026444 -2.5201559009 -0.2415384345
$end

$rem
JOBTYPE                   OPT
METHOD                    B3LYP
DFT_D                     d3_op
BASIS                     STO-3G
GEOM_OPT_MAX_CYCLES       100
GEOM_OPT_TOL_GRADIENT     300
GEOM_OPT_TOL_DISPLACEMENT 1200
GEOM_OPT_TOL_ENERGY       100
SYMMETRY                  False
THRESH                    12
SCF_CONVERGENCE           8
MAX_SUB_FILE_NUM          128
MEM_STATIC                400
MEM_TOTAL                 4000
$end
--------------------------------------------------------------

   16   -1510.2849055579      6.65E-09 Convergence criterion met
 Total energy in the final basis set = -1510.28490556
   14   -1510.2856801933      1.92E-09 Convergence criterion met
 Total energy in the final basis set = -1510.28568019
   14   -1510.2868964457      5.54E-09 Convergence criterion met
 Total energy in the final basis set = -1510.28689645
   13   -1510.2875018542      5.81E-09 Convergence criterion met
 Total energy in the final basis set = -1510.28750185
   13   -1510.2888564201      2.81E-09 Convergence criterion met
 Total energy in the final basis set = -1510.28885642
   13   -1510.2902121801      9.49E-09 Convergence criterion met
 Total energy in the final basis set = -1510.29021218
   13   -1510.2903393580      7.16E-09 Convergence criterion met
 Total energy in the final basis set = -1510.29033936
   13   -1510.2915959536      7.94E-09 Convergence criterion met
   13   -1510.2936508684      4.88E-09 Convergence criterion met
 Total energy in the final basis set = -1510.29365087
   13   -1510.2935061412      3.94E-09 Convergence criterion met
 Total energy in the final basis set = -1510.29350614
   13   -1510.2936900062      1.58E-09 Convergence criterion met
 Total energy in the final basis set = -1510.29369001
   12   -1510.2936540152      6.30E-09 Convergence criterion met
 Total energy in the final basis set = -1510.29365402
   12   -1510.2936874480      5.84E-09 Convergence criterion met
 Total energy in the final basis set = -1510.29368745
   10   -1510.2936873773      7.67E-09 Convergence criterion met
 Total energy in the final basis set = -1510.29368738

             Standard Nuclear Orientation (Angstroms)
    I     Atom           X                Y                Z
 ----------------------------------------------------------------
    1      O      -2.0377878412     0.2955915629     1.0824931226
    2      C      -2.7294833684     0.9954377604     0.3026002644
    3      C      -4.0990872630     0.5900144389    -0.3393808914
    4      C      -4.2372894097    -0.9718227362    -0.5942592120
    5      C      -2.9211263210    -1.7787539409    -0.3055837550
    6      O      -2.0115418590    -1.4942798479    -1.3833997900
    7      C      -0.6410902176    -1.9610709459    -1.0509121279
    8      C       0.1283761765    -0.6905963758    -0.5613477087
    9      O       1.4927282621    -1.0529258206    -0.1094976695
   10      C       2.0735242244     0.0785318907     0.5461227766
   11      C       3.5109292702    -0.3159790781     1.0344222581
   12      C       4.4832127783    -0.7706265987    -0.1347475855
   13      C       3.8251722265    -0.7386911151    -1.5538114682
   14      O       3.8405227815    -1.6394214892    -2.4198241209
   15      O      -2.3777579689     2.3069195055    -0.1191042775
   16      O       3.1975126070     0.5384934625    -1.7355075718
   17      O       1.4850758993     1.1675677588     0.7340407015
   18      C       2.5525667228     0.6028331590    -3.0662942994
   19      C       4.2809634169     0.9413775231     1.6079541418
   20      C       5.5188960906     0.4320118765     2.4437884251
   21      C       6.4891469863    -0.0311885012     1.2940044000
   22      C       5.6352345745     0.3205919217     0.0117779953
   23      O       4.9006107227     1.5427616480     0.4032115388
   24      H       3.4082993210    -1.1174335598     1.7890791101
   25      H       4.8669972271    -1.7922423032     0.0313240944
   26      H       3.6230834049     1.6770003649     2.1102718676
   27      H       5.9540514636     1.2572413954     3.0295071280
   28      H       5.2505551472    -0.3865876819     3.1304747505
   29      H       7.4279651422     0.5449514916     1.2998359661
   30      H       6.7325452063    -1.1042877096     1.3476997392
   31      H       6.2211202824     0.4973708996    -0.9112674419
   32      O      -2.6931210467    -2.5783259217     0.6256710863
   33      C      -1.1398782699     2.7666424157     0.5673662243
   34      C      -5.2785349341     0.8140782020     0.7072466786
   35      C      -6.6590988956     0.6866347354    -0.0531186175
   36      C      -6.7701839350    -0.8739560502    -0.2274334358
   37      C      -5.4057093322    -1.3454975027     0.4105879296
   38      O      -5.2155113674    -0.4058383417     1.5405174187
   39      H      -4.2501491598     1.1790648100    -1.2611133384
   40      H      -4.5281737758    -1.1601471337    -1.6434395629
   41      H      -0.2824171346     2.0619635608     0.4581834247
   42      H      -5.1676627623     1.7209336647     1.3331819934
   43      H      -7.4781135485     1.0852061359     0.5663963723
   44      H      -6.6499034435     1.2240970827    -1.0148377350
   45      H      -7.6213312001    -1.2825735831     0.3402134506
   46      H      -6.8673564950    -1.1806751337    -1.2811215532
   47      H      -5.3756347014    -2.3918893185     0.7715002676
   48      H      -1.3312681635     2.9211228401     1.6486017249
   49      H      -0.8882974090     3.7364141790     0.1010639334
   50      H       1.9820432028     1.5496226250    -3.0842298560
   51      H       1.8664861519    -0.2528268046    -3.2298300326
   52      H       3.3047452595     0.6096921469    -3.8817862002
   53      H       0.1817162792     0.0525438536    -1.3860986784
   54      H      -0.4620396440    -0.2388111764     0.2717838798
   55      H      -0.1948897629    -2.3918742209    -1.9701428876
   56      H      -0.6864850937    -2.7302091789    -0.2503572081
 ----------------------------------------------------------------

    9   -1510.2936881448      6.48E-09 Convergence criterion met
 Total energy in the final basis set = -1510.29368814
 Final energy is   -1510.29368814480
 **  OPTIMIZATION CONVERGED  **

                    Orbital Energies (a.u.)
 --------------------------------------------------------------

 Alpha MOs
 -- Occupied --
-18.941 -18.935 -18.932 -18.924 -18.889 -18.888 -18.880 -18.877
-18.876 -18.875 -10.105 -10.103 -10.099 -10.098 -10.065 -10.065
-10.063 -10.061 -10.059 -10.058 -10.055 -10.050 -10.041 -10.038
-10.037 -10.037 -10.022 -10.021 -10.020 -10.019  -1.017  -1.015
 -1.007  -1.005  -0.971  -0.970  -0.939  -0.938  -0.936  -0.933
 -0.765  -0.763  -0.727  -0.723  -0.710  -0.706  -0.695  -0.661
 -0.659  -0.613  -0.598  -0.579  -0.547  -0.545  -0.538  -0.537
 -0.514  -0.510  -0.482  -0.477  -0.465  -0.460  -0.454  -0.444
 -0.436  -0.431  -0.427  -0.416  -0.414  -0.410  -0.407  -0.398
 -0.391  -0.378  -0.371  -0.368  -0.360  -0.358  -0.357  -0.350
 -0.345  -0.338  -0.334  -0.333  -0.331  -0.329  -0.324  -0.311
 -0.309  -0.306  -0.305  -0.299  -0.293  -0.292  -0.282  -0.278
 -0.269  -0.260  -0.251  -0.246  -0.243  -0.235  -0.234  -0.185
 -0.177  -0.173  -0.171  -0.159  -0.157  -0.152  -0.149  -0.145
 -0.144

          Ground-State Mulliken Net Atomic Charges

     Atom                 Charge (a.u.)
  ----------------------------------------
      1 O                    -0.215415
      2 C                     0.214668
      3 C                    -0.077877
      4 C                    -0.079338
      5 C                     0.214775
      6 O                    -0.181122
      7 C                    -0.053558
      8 C                    -0.064162
      9 O                    -0.175841
     10 C                     0.222449
     11 C                    -0.078000
     12 C                    -0.078983
     13 C                     0.211545
     14 O                    -0.212703
     15 O                    -0.167284
     16 O                    -0.167968
     17 O                    -0.216133
     18 C                    -0.128274
     19 C                     0.024872
     20 C                    -0.144047
     21 C                    -0.143789
     22 C                     0.026001
     23 O                    -0.186371
     24 H                     0.086457
     25 H                     0.086008
     26 H                     0.090333
     27 H                     0.078289
     28 H                     0.073887
     29 H                     0.078068
     30 H                     0.074141
     31 H                     0.082431
     32 O                    -0.206030
     33 C                    -0.141795
     34 C                     0.025794
     35 C                    -0.143911
     36 C                    -0.143646
     37 C                     0.025177
     38 O                    -0.186637
     39 H                     0.087681
     40 H                     0.085308
     41 H                     0.114031
     42 H                     0.083310
     43 H                     0.078613
     44 H                     0.074050
     45 H                     0.078595
     46 H                     0.073480
     47 H                     0.089969
     48 H                     0.084192
     49 H                     0.087475
     50 H                     0.091658
     51 H                     0.089241
     52 H                     0.088037
     53 H                     0.076845
     54 H                     0.107874
     55 H                     0.085982
     56 H                     0.101648
  ----------------------------------------
  Sum of atomic charges =     0.000000

                    Cartesian Multipole Moments
 -----------------------------------------------------------------
    Charge (ESU x 10^10)
                 0.0000
    Dipole Moment (Debye)
         X      -0.3091      Y       0.9025      Z      -1.2625
       Tot       1.5824
    Quadrupole Moments (Debye-Ang)
        XX    -140.9610     XY      -5.6733     YY    -164.7058
        XZ      13.8949     YZ       0.0059     ZZ    -159.2075

 Total job time:  66.65s(wall), 3175.61s(cpu)
        *  Thank you very much for using Q-Chem.  Have a nice day.  *
