 Q-Chem 5.0, Q-Chem, Inc., Pleasanton, CA (2017)
 Q-Chem 5.0.1 for Intel X86 EM64T Linux

User input:
--------------------------------------------------------------
$molecule
0  1
O -3.94934 -3.66094 2.70899
C -3.26408 -4.56952 2.26188
C -3.36658 -6.02376 2.66595
C -4.22157 -6.35123 3.90111
C -5.02212 -5.21032 4.48892
O -4.20292 -4.39557 5.21729
C -4.89089 -3.28779 5.80786
C -4.64477 -2.02174 4.99382
O -5.24454 -0.89366 5.65002
C -5.27794 0.25235 4.92567
C -5.70016 1.45151 5.74078
C -4.75007 1.82042 6.88949
C -3.37447 1.18651 6.83869
O -2.47954 1.36888 7.65135
O -2.40605 -4.29753 1.24392
O -2.95073 0.5458 5.71518
O -4.98132 0.31754 3.7378
C -1.67673 0.05139 5.50314
C -5.71429 2.78898 4.96658
C -6.66258 3.7699 5.65539
C -5.88116 4.08346 6.91571
C -4.58086 3.32432 6.6285
O -4.45829 3.36777 5.22676
H -6.7334 1.24072 6.09863
H -5.18512 1.56345 7.88004
H -5.9937 2.68141 3.89602
H -6.69391 4.68522 5.02143
H -7.69955 3.40538 5.81853
H -5.70246 5.18094 6.95397
H -6.34895 3.73809 7.86321
H -3.7365 3.76176 7.20587
O -6.24058 -5.09814 4.39703
C -2.2078 -3.04074 0.71151
C -4.05576 -6.86672 1.58315
C -3.66525 -8.33554 1.73877
C -4.45145 -8.70419 2.97823
C -5.17645 -7.38269 3.2533
O -5.40699 -6.85736 1.96825
H -2.31889 -6.36236 2.83057
H -3.65684 -6.83283 4.73089
H -1.831 -2.34865 1.49498
H -3.83705 -6.51701 0.55029
H -4.08621 -8.8948 0.87284
H -2.57011 -8.51485 1.79898
H -5.19436 -9.48551 2.70154
H -3.84523 -9.05007 3.84311
H -6.08076 -7.57674 3.87136
H -3.1583 -2.64901 0.29019
H -1.45595 -3.10439 -0.10157
H -1.62564 -0.40695 4.4943
H -1.43657 -0.72332 6.26239
H -0.93227 0.87428 5.55404
H -3.55821 -1.8609 4.84459
H -5.15334 -2.16623 4.01885
H -4.46742 -3.14145 6.82405
H -5.98446 -3.43181 5.95987
$end

$opt
CONSTRAINT
tors           1           2           3           4     -11.192
tors           3           4           5           6     -77.400
tors           4           5           6           7    -180.000
tors           5           6           7           8    -101.480
tors           6           7           8           9    -175.254
tors           7           8           9          10    -170.064
tors           8           9          10          11    -170.248
tors           9          10          11          12     +63.244
tors          11          12          13          14    +179.176
ENDCONSTRAINT
$end

$rem
JOBTYPE                   OPT
METHOD                    B3LYP
DFT_D                     d3_op
BASIS                     STO-3G
GEOM_OPT_MAX_CYCLES       100
GEOM_OPT_TOL_GRADIENT     300
GEOM_OPT_TOL_DISPLACEMENT 1200
GEOM_OPT_TOL_ENERGY       100
SYMMETRY                  False
THRESH                    12
SCF_CONVERGENCE           8
MAX_SUB_FILE_NUM          128
MEM_STATIC                400
MEM_TOTAL                 4000
$end
--------------------------------------------------------------

   15   -1510.1520759525      8.98E-09 Convergence criterion met
 Total energy in the final basis set = -1510.15207595
   14   -1510.2231789801      6.23E-09 Convergence criterion met
 Total energy in the final basis set = -1510.22317898
   13   -1510.2613597089      8.71E-09 Convergence criterion met
 Total energy in the final basis set = -1510.26135971
   14   -1510.2775590529      6.36E-09 Convergence criterion met
 Total energy in the final basis set = -1510.27755905
   13   -1510.2815983316      9.99E-09 Convergence criterion met
 Total energy in the final basis set = -1510.28159833
   13   -1510.2836635393      5.08E-09 Convergence criterion met
 Total energy in the final basis set = -1510.28366354
   12   -1510.2842088163      5.79E-09 Convergence criterion met
 Total energy in the final basis set = -1510.28420882
   13   -1510.2844630318      3.14E-09 Convergence criterion met
   11   -1510.2848717754      6.27E-09 Convergence criterion met
 Total energy in the final basis set = -1510.28487178
   11   -1510.2848921951      3.00E-09 Convergence criterion met
 Total energy in the final basis set = -1510.28489220
   10   -1510.2849058699      6.30E-09 Convergence criterion met
 Total energy in the final basis set = -1510.28490587
    9   -1510.2849167583      6.31E-09 Convergence criterion met
 Total energy in the final basis set = -1510.28491676
    9   -1510.2849235849      6.99E-09 Convergence criterion met
 Total energy in the final basis set = -1510.28492358
    9   -1510.2849256366      6.25E-09 Convergence criterion met
 Total energy in the final basis set = -1510.28492564

             Standard Nuclear Orientation (Angstroms)
    I     Atom           X                Y                Z
 ----------------------------------------------------------------
    1      O      -2.2707276322     0.4918813929     1.0564011901
    2      C      -3.1728573699     1.1878004405     0.5353253955
    3      C      -4.4001405767     0.6668923849    -0.2842780157
    4      C      -4.2685200738    -0.8670803306    -0.6539298841
    5      C      -2.8876497480    -1.5078298539    -0.2566345573
    6      O      -1.9246523732    -1.0842469973    -1.2402875325
    7      C      -0.5932868511    -1.6537575655    -0.9271478131
    8      C       0.2718663213    -0.5352248590    -0.2522811579
    9      O       1.6354875283    -1.0767819513    -0.0481195205
   10      C       2.3989289168    -0.1793958247     0.7721231861
   11      C       3.8908221688    -0.6686557121     0.7463176701
   12      C       4.6262637427    -0.6402967784    -0.6563109224
   13      C       3.9900479441     0.2306608174    -1.8004650196
   14      O       4.4585074185     0.3655232137    -2.9523099712
   15      O      -3.2375407013     2.6089434314     0.6294376991
   16      O       2.8760168972     0.9828086285    -1.3154851585
   17      O       1.9208437085     0.7685279532     1.4297276221
   18      C       2.3456757659     1.8674193626    -2.3767307492
   19      C       4.8568289183     0.2271876817     1.6309847507
   20      C       6.0613722247    -0.6813265569     2.0884581138
   21      C       6.8176308271    -0.8698379902     0.7206207767
   22      C       5.9843300102     0.0779230768    -0.2315697293
   23      O       5.4932328384     1.1519093461     0.6620213843
   24      H       3.8876599212    -1.7094284608     1.1208230684
   25      H       4.7992384455    -1.6575202031    -1.0510077458
   26      H       4.3385305522     0.7958945608     2.4276646488
   27      H       6.6869264882    -0.1495510370     2.8232162220
   28      H       5.7271915041    -1.6339137144     2.5294922509
   29      H       7.8637152556    -0.5305276064     0.7826312283
   30      H       6.8071558698    -1.9146140312     0.3702827594
   31      H       6.5501900677     0.5029148828    -1.0835924929
   32      O      -2.6713192184    -2.3639093427     0.6270485314
   33      C      -2.0936912603     3.1135110379     1.4281894463
   34      C      -5.7061552695     0.6372690232     0.6255206625
   35      C      -6.9600607382     0.3743368004    -0.3002512176
   36      C      -6.8100089882    -1.1657550262    -0.5906664720
   37      C      -5.4684743846    -1.4869638033     0.1751207536
   38      O      -5.5489697586    -0.6258990621     1.3797947078
   39      H      -4.5356133288     1.3057335975    -1.1752053585
   40      H      -4.4078367769    -1.0121125286    -1.7401967459
   41      H      -1.1228189543     2.8256075633     0.9757381671
   42      H      -5.8010178434     1.4986749884     1.3151372186
   43      H      -7.8924177118     0.5966953756     0.2427910905
   44      H      -6.9308253242     0.9853824215    -1.2166280141
   45      H      -7.6462455593    -1.7396157513    -0.1605009913
   46      H      -6.7407150859    -1.3929696189    -1.6664388000
   47      H      -5.3170516615    -2.5439812751     0.4677898325
   48      H      -2.1241009157     2.7289048251     2.4679728509
   49      H      -2.1905941795     4.2145438779     1.4359210535
   50      H       1.5370731585     2.4549997717    -1.9043948736
   51      H       1.9346371243     1.2831721862    -3.2255225482
   52      H       3.1281368855     2.5513769976    -2.7636025445
   53      H       0.3156835731     0.3553663533    -0.9162296793
   54      H      -0.2041988417    -0.2231794268     0.7034375510
   55      H      -0.1348769088    -1.9801317726    -1.8830752347
   56      H      -0.7099026444    -2.5201559009    -0.2415384345
 ----------------------------------------------------------------

    9   -1510.2849259224      2.59E-09 Convergence criterion met
 Total energy in the final basis set = -1510.28492592
 Final energy is   -1510.28492592237
 **  OPTIMIZATION CONVERGED  **

                    Orbital Energies (a.u.)
 --------------------------------------------------------------

 Alpha MOs
 -- Occupied --
-18.946 -18.942 -18.919 -18.918 -18.888 -18.888 -18.884 -18.873
-18.866 -18.863 -10.108 -10.101 -10.094 -10.094 -10.069 -10.069
-10.063 -10.060 -10.058 -10.058 -10.056 -10.054 -10.042 -10.038
-10.035 -10.032 -10.022 -10.021 -10.019 -10.017  -1.022  -1.016
 -1.002  -0.997  -0.971  -0.968  -0.945  -0.937  -0.930  -0.925
 -0.765  -0.760  -0.726  -0.722  -0.711  -0.703  -0.690  -0.667
 -0.665  -0.612  -0.597  -0.577  -0.546  -0.541  -0.537  -0.535
 -0.513  -0.509  -0.484  -0.477  -0.463  -0.456  -0.454  -0.444
 -0.435  -0.431  -0.423  -0.416  -0.416  -0.413  -0.410  -0.393
 -0.392  -0.380  -0.377  -0.366  -0.361  -0.358  -0.353  -0.344
 -0.341  -0.337  -0.336  -0.331  -0.328  -0.326  -0.319  -0.313
 -0.307  -0.306  -0.305  -0.302  -0.297  -0.291  -0.279  -0.274
 -0.268  -0.260  -0.245  -0.242  -0.239  -0.235  -0.232  -0.187
 -0.181  -0.167  -0.164  -0.161  -0.155  -0.148  -0.146  -0.143
 -0.142

          Ground-State Mulliken Net Atomic Charges

     Atom                 Charge (a.u.)
  ----------------------------------------
      1 O                    -0.207280
      2 C                     0.216264
      3 C                    -0.077843
      4 C                    -0.080746
      5 C                     0.216806
      6 O                    -0.181823
      7 C                    -0.052744
      8 C                    -0.052859
      9 O                    -0.180554
     10 C                     0.221394
     11 C                    -0.080832
     12 C                    -0.076420
     13 C                     0.212664
     14 O                    -0.216371
     15 O                    -0.167607
     16 O                    -0.165915
     17 O                    -0.217936
     18 C                    -0.125953
     19 C                     0.023509
     20 C                    -0.142741
     21 C                    -0.144860
     22 C                     0.024457
     23 O                    -0.191737
     24 H                     0.083255
     25 H                     0.086639
     26 H                     0.090385
     27 H                     0.077682
     28 H                     0.073461
     29 H                     0.078091
     30 H                     0.073645
     31 H                     0.084877
     32 O                    -0.215183
     33 C                    -0.128777
     34 C                     0.025234
     35 C                    -0.143843
     36 C                    -0.143676
     37 C                     0.024734
     38 O                    -0.188507
     39 H                     0.087354
     40 H                     0.084562
     41 H                     0.094585
     42 H                     0.084710
     43 H                     0.078641
     44 H                     0.073768
     45 H                     0.078526
     46 H                     0.073440
     47 H                     0.090315
     48 H                     0.093325
     49 H                     0.092563
     50 H                     0.091846
     51 H                     0.089032
     52 H                     0.093741
     53 H                     0.077655
     54 H                     0.103402
     55 H                     0.083582
     56 H                     0.100060
  ----------------------------------------
  Sum of atomic charges =    -0.000000

                    Cartesian Multipole Moments
 -----------------------------------------------------------------
    Charge (ESU x 10^10)
                 0.0000
    Dipole Moment (Debye)
         X      -1.1549      Y       0.6347      Z      -1.6401
       Tot       2.1039
    Quadrupole Moments (Debye-Ang)
        XX    -146.6217     XY     -12.4393     YY    -156.7332
        XZ      13.2112     YZ       1.7263     ZZ    -163.5325

 Total job time:  49.07s(wall), 2332.17s(cpu)
        *  Thank you very much for using Q-Chem.  Have a nice day.  *
