 Q-Chem 5.0, Q-Chem, Inc., Pleasanton, CA (2017)
 Q-Chem 5.0.1 for Intel X86 EM64T Linux

User input:
--------------------------------------------------------------
$molecule
0  1
O -3.94934 -3.66094 2.70899
C -3.26408 -4.56952 2.26188
C -3.36658 -6.02376 2.66595
C -4.17221 -6.34518 3.9354
C -4.93352 -5.19687 4.55981
O -4.11328 -4.49828 5.39921
C -4.76487 -3.39111 6.03077
C -4.28874 -2.07976 5.41451
O -4.59772 -0.98581 6.2924
C -4.66207 0.23414 5.70357
C -4.61668 1.37029 6.69742
C -3.31661 1.46901 7.50881
C -2.14331 0.671 6.97657
O -1.02715 0.63425 7.47396
O -2.41801 -4.30056 1.23311
O -2.18047 0.17113 5.71124
O -4.72182 0.40783 4.49146
C -1.11678 -0.40547 5.04128
C -4.64721 2.78208 6.06918
C -5.16891 3.78831 7.0945
C -4.00169 3.84163 8.0598
C -2.992 2.95821 7.31844
O -3.29499 3.15478 5.9579
H -5.51334 1.25549 7.3477
H -3.46583 1.15523 8.5651
H -5.25203 2.84281 5.13846
H -5.2421 4.76985 6.57304
H -6.15213 3.54579 7.55197
H -3.64339 4.89325 8.11954
H -4.20944 3.44909 9.07892
H -1.95287 3.20773 7.62766
O -6.14513 -5.03371 4.45446
C -2.22153 -3.04447 0.69837
C -4.10622 -6.85246 1.60709
C -3.73388 -8.32787 1.74532
C -4.48664 -8.6884 3.00738
C -5.17223 -7.35341 3.3156
O -5.4413 -6.81931 2.04171
H -2.31666 -6.37235 2.79049
H -3.59392 -6.85821 4.73684
H -1.8322 -2.35409 1.47728
H -3.91859 -6.50241 0.5682
H -4.18791 -8.88009 0.89174
H -2.63961 -8.52022 1.77253
H -5.25857 -9.44764 2.74903
H -3.86108 -9.05924 3.84775
H -6.05692 -7.5331 3.96583
H -3.17554 -2.64889 0.2888
H -1.47997 -3.11093 -0.12389
H -1.45051 -0.71966 4.03089
H -0.75556 -1.2994 5.5934
H -0.29028 0.32832 4.93043
H -3.19012 -2.1303 5.28693
H -4.77757 -1.98922 4.42012
H -4.43953 -3.41456 7.09274
H -5.8773 -3.41213 6.05942
$end

$opt
CONSTRAINT
tors           1           2           3           4     -13.723
tors           3           4           5           6     -85.528
tors           4           5           6           7    -180.000
tors           5           6           7           8    -106.379
tors           6           7           8           9    -161.971
tors           7           8           9          10    -158.103
tors           8           9          10          11    -164.505
tors           9          10          11          12     +63.244
tors          11          12          13          14    +179.176
ENDCONSTRAINT
$end

$rem
JOBTYPE                   OPT
METHOD                    B3LYP
DFT_D                     d3_op
BASIS                     STO-3G
GEOM_OPT_MAX_CYCLES       100
GEOM_OPT_TOL_GRADIENT     300
GEOM_OPT_TOL_DISPLACEMENT 1200
GEOM_OPT_TOL_ENERGY       100
SYMMETRY                  False
THRESH                    12
SCF_CONVERGENCE           8
MAX_SUB_FILE_NUM          128
MEM_STATIC                400
MEM_TOTAL                 4000
$end
--------------------------------------------------------------

   15   -1510.1508437040      7.10E-09 Convergence criterion met
 Total energy in the final basis set = -1510.15084370
   13   -1510.2219944087      7.88E-09 Convergence criterion met
 Total energy in the final basis set = -1510.22199441
   13   -1510.2603201662      6.53E-09 Convergence criterion met
 Total energy in the final basis set = -1510.26032017
   13   -1510.2766605946      8.97E-09 Convergence criterion met
 Total energy in the final basis set = -1510.27666059
   14   -1510.2804681309      1.41E-09 Convergence criterion met
 Total energy in the final basis set = -1510.28046813
   13   -1510.2820187625      5.25E-09 Convergence criterion met
 Total energy in the final basis set = -1510.28201876
   12   -1510.2826180794      7.42E-09 Convergence criterion met
 Total energy in the final basis set = -1510.28261808
   12   -1510.2827844820      7.26E-09 Convergence criterion met
   11   -1510.2828451707      3.74E-09 Convergence criterion met
 Total energy in the final basis set = -1510.28284517
   11   -1510.2828604309      5.29E-09 Convergence criterion met
 Total energy in the final basis set = -1510.28286043
    9   -1510.2828708984      9.43E-09 Convergence criterion met
 Total energy in the final basis set = -1510.28287090
   10   -1510.2828837567      8.56E-09 Convergence criterion met
 Total energy in the final basis set = -1510.28288376
   10   -1510.2828872494      5.80E-09 Convergence criterion met
 Total energy in the final basis set = -1510.28288725
    9   -1510.2828900522      7.36E-09 Convergence criterion met
 Total energy in the final basis set = -1510.28289005

             Standard Nuclear Orientation (Angstroms)
    I     Atom           X                Y                Z
 ----------------------------------------------------------------
    1      O      -2.2526852257     0.4770061329     1.0524259263
    2      C      -3.1449178496     1.1751286543     0.5181709095
    3      C      -4.3635108567     0.6629745237    -0.3173958266
    4      C      -4.2139630712    -0.8551655852    -0.7446344482
    5      C      -2.9055507774    -1.5427563320    -0.2024136376
    6      O      -1.8485889773    -1.2550982596    -1.1369340962
    7      C      -0.5839379254    -1.8777669537    -0.6811004059
    8      C       0.3538545905    -0.7444572861    -0.1387473876
    9      O       1.7399487577    -1.2656628048    -0.0942438265
   10      C       2.5267035073    -0.5014324135     0.8350211136
   11      C       4.0383875029    -0.8193831942     0.5531893634
   12      C       4.6061576842    -0.4072957155    -0.8662292622
   13      C       3.7890755151     0.6434574551    -1.7031011218
   14      O       4.1106822830     1.0808402374    -2.8297937255
   15      O      -3.2074117711     2.5973351531     0.6155210934
   16      O       2.6960069589     1.1633484727    -0.9436471777
   17      O       2.0638693580     0.2249198700     1.7394235711
   18      C       2.0017456294     2.2324290361    -1.6950676296
   19      C       5.0298363977    -0.0566169992     1.5289786955
   20      C       6.3374234061    -0.9288078920     1.6516736393
   21      C       6.9472008853    -0.7401317229     0.2124910082
   22      C       5.9527234550     0.3168008174    -0.4138058861
   23      O       5.4905959428     1.1150356425     0.7453641875
   24      H       4.1564544696    -1.9127719794     0.6721123547
   25      H       4.8005921056    -1.2868970655    -1.5057769309
   26      H       4.5629294962     0.2695434194     2.4787920704
   27      H       7.0037216672    -0.5171717922     2.4266608638
   28      H       6.1213232139    -1.9822611681     1.8910772193
   29      H       7.9692472560    -0.3315422056     0.2528753072
   30      H       6.9648252703    -1.6780948328    -0.3655092752
   31      H       6.3914939098     0.9716554836    -1.1918883945
   32      O      -2.8105458247    -2.3458624373     0.7500743044
   33      C      -2.0763813327     3.0956626856     1.4350787767
   34      C      -5.6945705994     0.6029762624     0.5541838310
   35      C      -6.9219035022     0.4537625719    -0.4283969422
   36      C      -6.7752238672    -1.0495594385    -0.8710405402
   37      C      -5.4958038349    -1.4848824505    -0.0554840613
   38      O      -5.6104218216    -0.7200450967     1.2098115309
   39      H      -4.4909144389     1.3272650141    -1.1909994532
   40      H      -4.2306693903    -0.9586580913    -1.8439292241
   41      H      -1.0988656701     2.8284557665     0.9841279520
   42      H      -5.7861815351     1.4107523501     1.3061870933
   43      H      -7.8663695876     0.6254050904     0.1124080398
   44      H      -6.8670490987     1.1561425845    -1.2756170658
   45      H      -7.6489985674    -1.6469315319    -0.5660794787
   46      H      -6.6328564071    -1.1614656901    -1.9579056853
   47      H      -5.4070342123    -2.5672592222     0.1596172480
   48      H      -2.1098693061     2.6876767383     2.4658370507
   49      H      -2.1841114632     4.1952940637     1.4663375016
   50      H       1.2357370973     2.6362988233    -1.0077051867
   51      H       1.5110098971     1.8355217416    -2.6076510926
   52      H       2.7014124572     3.0395651968    -1.9926438807
   53      H       0.3134353915     0.1229540512    -0.8331771971
   54      H       0.0172263835    -0.4006673762     0.8627302014
   55      H      -0.1153007638    -2.3709101845    -1.5582618347
   56      H      -0.8051638523    -2.6269207535     0.1083294912
 ----------------------------------------------------------------

    9   -1510.2828907230      6.76E-09 Convergence criterion met
 Total energy in the final basis set = -1510.28289072
 Final energy is   -1510.28289072300
 **  OPTIMIZATION CONVERGED  **

                    Orbital Energies (a.u.)
 --------------------------------------------------------------

 Alpha MOs
 -- Occupied --
-18.946 -18.942 -18.919 -18.917 -18.889 -18.888 -18.884 -18.874
-18.865 -18.864 -10.108 -10.102 -10.095 -10.093 -10.070 -10.070
-10.063 -10.059 -10.059 -10.058 -10.056 -10.055 -10.042 -10.039
-10.036 -10.032 -10.022 -10.021 -10.019 -10.018  -1.022  -1.016
 -1.001  -0.997  -0.971  -0.968  -0.945  -0.938  -0.930  -0.925
 -0.765  -0.761  -0.726  -0.722  -0.711  -0.704  -0.690  -0.668
 -0.666  -0.612  -0.597  -0.576  -0.546  -0.542  -0.537  -0.535
 -0.513  -0.509  -0.484  -0.477  -0.464  -0.458  -0.454  -0.444
 -0.435  -0.432  -0.422  -0.417  -0.417  -0.413  -0.409  -0.393
 -0.389  -0.380  -0.377  -0.369  -0.362  -0.357  -0.353  -0.343
 -0.342  -0.339  -0.337  -0.331  -0.329  -0.326  -0.320  -0.313
 -0.308  -0.306  -0.305  -0.302  -0.298  -0.292  -0.278  -0.275
 -0.268  -0.260  -0.246  -0.241  -0.239  -0.235  -0.233  -0.187
 -0.181  -0.167  -0.163  -0.161  -0.156  -0.147  -0.146  -0.144
 -0.143

          Ground-State Mulliken Net Atomic Charges

     Atom                 Charge (a.u.)
  ----------------------------------------
      1 O                    -0.206547
      2 C                     0.214155
      3 C                    -0.078691
      4 C                    -0.080718
      5 C                     0.216667
      6 O                    -0.181206
      7 C                    -0.053664
      8 C                    -0.052196
      9 O                    -0.181847
     10 C                     0.221549
     11 C                    -0.080696
     12 C                    -0.076217
     13 C                     0.212799
     14 O                    -0.216063
     15 O                    -0.168096
     16 O                    -0.166228
     17 O                    -0.215619
     18 C                    -0.125901
     19 C                     0.023374
     20 C                    -0.142581
     21 C                    -0.144932
     22 C                     0.024345
     23 O                    -0.191736
     24 H                     0.083063
     25 H                     0.086755
     26 H                     0.090799
     27 H                     0.077755
     28 H                     0.073378
     29 H                     0.078236
     30 H                     0.073667
     31 H                     0.084926
     32 O                    -0.215174
     33 C                    -0.128300
     34 C                     0.025564
     35 C                    -0.143215
     36 C                    -0.144421
     37 C                     0.025619
     38 O                    -0.187052
     39 H                     0.086645
     40 H                     0.084947
     41 H                     0.090767
     42 H                     0.084714
     43 H                     0.078716
     44 H                     0.073844
     45 H                     0.078586
     46 H                     0.073499
     47 H                     0.089234
     48 H                     0.093947
     49 H                     0.092576
     50 H                     0.091378
     51 H                     0.088841
     52 H                     0.094103
     53 H                     0.078372
     54 H                     0.103362
     55 H                     0.084168
     56 H                     0.100753
  ----------------------------------------
  Sum of atomic charges =     0.000000

                    Cartesian Multipole Moments
 -----------------------------------------------------------------
    Charge (ESU x 10^10)
                 0.0000
    Dipole Moment (Debye)
         X      -0.8385      Y       0.7697      Z      -1.9771
       Tot       2.2813
    Quadrupole Moments (Debye-Ang)
        XX    -145.3015     XY     -14.1866     YY    -155.5214
        XZ      11.2850     YZ       3.9037     ZZ    -166.1163

 Total job time:  43.05s(wall), 2046.69s(cpu)
        *  Thank you very much for using Q-Chem.  Have a nice day.  *
