 Q-Chem 5.0, Q-Chem, Inc., Pleasanton, CA (2017)
 Q-Chem 5.0.1 for Intel X86 EM64T Linux

User input:
--------------------------------------------------------------
$molecule
0  1
O -2.2526852257 0.4770061329 1.0524259263
C -3.1449178496 1.1751286543 0.5181709095
C -4.3635108567 0.6629745237 -0.3173958266
C -4.2139630712 -0.8551655852 -0.7446344482
C -2.9055507774 -1.542756332 -0.2024136376
O -1.8485889773 -1.2550982596 -1.1369340962
C -0.5839379254 -1.8777669537 -0.6811004059
C 0.3538545905 -0.7444572861 -0.1387473876
O 1.7399487577 -1.2656628048 -0.0942438265
C 2.5267035073 -0.5014324135 0.8350211136
C 4.0383875029 -0.8193831942 0.5531893634
C 4.6061576842 -0.4072957155 -0.8662292622
C 3.7890755151 0.6434574551 -1.7031011218
O 4.110682283 1.0808402374 -2.8297937255
O -3.2074117711 2.5973351531 0.6155210934
O 2.6960069589 1.1633484727 -0.9436471777
O 2.063869358 0.22491987 1.7394235711
C 2.0017456294 2.2324290361 -1.6950676296
C 5.0298363977 -0.0566169992 1.5289786955
C 6.3374234061 -0.928807892 1.6516736393
C 6.9472008853 -0.7401317229 0.2124910082
C 5.952723455 0.3168008174 -0.4138058861
O 5.4905959428 1.1150356425 0.7453641875
H 4.1564544696 -1.9127719794 0.6721123547
H 4.8005921056 -1.2868970655 -1.5057769309
H 4.5629294962 0.2695434194 2.4787920704
H 7.0037216672 -0.5171717922 2.4266608638
H 6.1213232139 -1.9822611681 1.8910772193
H 7.969247256 -0.3315422056 0.2528753072
H 6.9648252703 -1.6780948328 -0.3655092752
H 6.3914939098 0.9716554836 -1.1918883945
O -2.8105458247 -2.3458624373 0.7500743044
C -2.0763813327 3.0956626856 1.4350787767
C -5.6945705994 0.6029762624 0.554183831
C -6.9219035022 0.4537625719 -0.4283969422
C -6.7752238672 -1.0495594385 -0.8710405402
C -5.4958038349 -1.4848824505 -0.0554840613
O -5.6104218216 -0.7200450967 1.2098115309
H -4.4909144389 1.3272650141 -1.1909994532
H -4.2306693903 -0.9586580913 -1.8439292241
H -1.0988656701 2.8284557665 0.984127952
H -5.7861815351 1.4107523501 1.3061870933
H -7.8663695876 0.6254050904 0.1124080398
H -6.8670490987 1.1561425845 -1.2756170658
H -7.6489985674 -1.6469315319 -0.5660794787
H -6.6328564071 -1.1614656901 -1.9579056853
H -5.4070342123 -2.5672592222 0.159617248
H -2.1098693061 2.6876767383 2.4658370507
H -2.1841114632 4.1952940637 1.4663375016
H 1.2357370973 2.6362988233 -1.0077051867
H 1.5110098971 1.8355217416 -2.6076510926
H 2.7014124572 3.0395651968 -1.9926438807
H 0.3134353915 0.1229540512 -0.8331771971
H 0.0172263835 -0.4006673762 0.8627302014
H -0.1153007638 -2.3709101845 -1.5582618347
H -0.8051638523 -2.6269207535 0.1083294912
$end

$rem
JOBTYPE                   OPT
METHOD                    B3LYP
DFT_D                     d3_op
BASIS                     STO-3G
GEOM_OPT_MAX_CYCLES       100
GEOM_OPT_TOL_GRADIENT     300
GEOM_OPT_TOL_DISPLACEMENT 1200
GEOM_OPT_TOL_ENERGY       100
SYMMETRY                  False
THRESH                    12
SCF_CONVERGENCE           8
MAX_SUB_FILE_NUM          128
MEM_STATIC                400
MEM_TOTAL                 4000
$end
--------------------------------------------------------------

   16   -1510.2828461392      6.43E-09 Convergence criterion met
 Total energy in the final basis set = -1510.28284614
   14   -1510.2840712654      3.26E-09 Convergence criterion met
 Total energy in the final basis set = -1510.28407127
   14   -1510.2852140264      2.17E-09 Convergence criterion met
 Total energy in the final basis set = -1510.28521403
   13   -1510.2856157232      5.83E-09 Convergence criterion met
 Total energy in the final basis set = -1510.28561572
   13   -1510.2869162382      3.23E-09 Convergence criterion met
 Total energy in the final basis set = -1510.28691624
   13   -1510.2881895749      2.69E-09 Convergence criterion met
 Total energy in the final basis set = -1510.28818957
   13   -1510.2894376111      3.78E-09 Convergence criterion met
 Total energy in the final basis set = -1510.28943761
   13   -1510.2907279687      5.73E-09 Convergence criterion met
   11   -1510.2935941348      7.97E-09 Convergence criterion met
 Total energy in the final basis set = -1510.29359413
   11   -1510.2935989636      6.76E-09 Convergence criterion met
 Total energy in the final basis set = -1510.29359896
   11   -1510.2935973402      8.29E-09 Convergence criterion met
 Total energy in the final basis set = -1510.29359734
   10   -1510.2936070041      5.61E-09 Convergence criterion met
 Total energy in the final basis set = -1510.29360700
   11   -1510.2936038184      7.10E-09 Convergence criterion met
 Total energy in the final basis set = -1510.29360382
   10   -1510.2936027636      6.84E-09 Convergence criterion met
 Total energy in the final basis set = -1510.29360276

             Standard Nuclear Orientation (Angstroms)
    I     Atom           X                Y                Z
 ----------------------------------------------------------------
    1      O      -2.0066852286    -0.2137601622     1.1083511613
    2      C      -2.7205733779     0.7521058875     0.7421051292
    3      C      -4.1023001734     0.6572290354     0.0116396126
    4      C      -4.2336915606    -0.6229229962    -0.9184712842
    5      C      -2.9006290787    -1.4415896839    -1.0642626588
    6      O      -2.0248069594    -0.6735133909    -1.9087600612
    7      C      -0.6419349494    -1.2141965117    -1.8580263116
    8      C       0.1259216593    -0.3119221512    -0.8368851382
    9      O       1.4937752533    -0.8363042324    -0.6077001837
   10      C       2.0906602724    -0.0982053194     0.4627543027
   11      C       3.5273648344    -0.6708908658     0.7227278713
   12      C       4.4787047698    -0.6189846718    -0.5460879174
   13      C       3.8051210160     0.0000381359    -1.8155006337
   14      O       3.7873115310    -0.4715337114    -2.9725977420
   15      O      -2.3868367873     2.1175590830     0.9554242936
   16      O       3.2086378884     1.2526467294    -1.4495896789
   17      O       1.5147320728     0.8111110854     1.1023610587
   18      C       2.5423552121     1.8583957031    -2.6242340156
   19      C       4.3233632435     0.2349436221     1.7468296299
   20      C       5.5590258259    -0.5888962484     2.2816719942
   21      C       6.5112394500    -0.5508760458     1.0287899999
   22      C       5.6514641247     0.3022874731     0.0142359869
   23      O       4.9422233198     1.2677651390     0.8818117191
   24      H       3.4217867468    -1.7094953981     1.0868961433
   25      H       4.8455767497    -1.6236672799    -0.8197224108
   26      H       3.6820969867     0.7085305837     2.5153429997
   27      H       6.0137887085    -0.0863683553     3.1502079947
   28      H       5.2788193651    -1.6140957835     2.5719938484
   29      H       7.4580010941    -0.0353541946     1.2558076132
   30      H       6.7409953978    -1.5546485347     0.6369859363
   31      H       6.2319253937     0.8325646612    -0.7655509998
   32      O      -2.6380414003    -2.5757975701    -0.6132104740
   33      C      -1.1361402440     2.2340591706     1.7536897952
   34      C      -5.2528821882     0.3575319092     1.0713163072
   35      C      -6.6550659462     0.5451901883     0.3654678404
   36      C      -6.7527000882    -0.7781335721    -0.4818949944
   37      C      -5.3590397446    -1.4427667493    -0.1598565431
   38      O      -5.1425505309    -1.1041240384     1.2671148870
   39      H      -4.2820544193     1.5967278326    -0.5399270476
   40      H      -4.5607648492    -0.3238050135    -1.9308983651
   41      H      -0.2731377949     1.6833298063     1.3111572873
   42      H      -5.1360875833     0.8907827885     2.0349540461
   43      H      -7.4585591171     0.6069775317     1.1166167275
   44      H      -6.6848635942     1.4527057598    -0.2586162721
   45      H      -7.5751618233    -1.4215213848    -0.1308632854
   46      H      -6.8868885763    -0.5877710426    -1.5587740337
   47      H      -5.2976456383    -2.5382599891    -0.3086023623
   48      H      -1.2984876426     1.8617966667     2.7854156327
   49      H      -0.9102644714     3.3152368968     1.7888613088
   50      H       2.0056583146     2.7479437374    -2.2461867315
   51      H       1.8232776477     1.1561317384    -3.0924557974
   52      H       3.2787418977     2.1706189043    -3.3930470051
   53      H       0.1719030411     0.7296922653    -1.2211848375
   54      H      -0.4611704352    -0.3036025448     0.1132929197
   55      H      -0.2129335749    -1.1491731606    -2.8783496572
   56      H      -0.6602212609    -2.2713015628    -1.5165655747
 ----------------------------------------------------------------

    9   -1510.2936034094      9.30E-09 Convergence criterion met
 Total energy in the final basis set = -1510.29360341
 Final energy is   -1510.29360340936
 **  OPTIMIZATION CONVERGED  **

                    Orbital Energies (a.u.)
 --------------------------------------------------------------

 Alpha MOs
 -- Occupied --
-18.941 -18.934 -18.933 -18.924 -18.889 -18.887 -18.880 -18.877
-18.876 -18.874 -10.105 -10.103 -10.098 -10.098 -10.066 -10.064
-10.063 -10.061 -10.058 -10.057 -10.055 -10.051 -10.041 -10.038
-10.038 -10.037 -10.022 -10.021 -10.020 -10.019  -1.018  -1.015
 -1.007  -1.005  -0.971  -0.970  -0.939  -0.938  -0.935  -0.933
 -0.765  -0.763  -0.727  -0.723  -0.710  -0.706  -0.695  -0.661
 -0.659  -0.613  -0.598  -0.579  -0.547  -0.545  -0.538  -0.537
 -0.514  -0.510  -0.482  -0.477  -0.465  -0.460  -0.454  -0.444
 -0.436  -0.431  -0.427  -0.416  -0.413  -0.410  -0.407  -0.398
 -0.391  -0.379  -0.371  -0.368  -0.360  -0.358  -0.357  -0.350
 -0.345  -0.337  -0.334  -0.333  -0.331  -0.329  -0.324  -0.311
 -0.309  -0.306  -0.305  -0.299  -0.293  -0.292  -0.283  -0.278
 -0.269  -0.260  -0.251  -0.247  -0.244  -0.235  -0.234  -0.186
 -0.176  -0.173  -0.171  -0.159  -0.157  -0.152  -0.149  -0.145
 -0.143

          Ground-State Mulliken Net Atomic Charges

     Atom                 Charge (a.u.)
  ----------------------------------------
      1 O                    -0.215533
      2 C                     0.214982
      3 C                    -0.077845
      4 C                    -0.079233
      5 C                     0.214544
      6 O                    -0.180986
      7 C                    -0.053622
      8 C                    -0.064547
      9 O                    -0.175469
     10 C                     0.222373
     11 C                    -0.077957
     12 C                    -0.078984
     13 C                     0.211707
     14 O                    -0.212884
     15 O                    -0.167014
     16 O                    -0.168132
     17 O                    -0.216402
     18 C                    -0.128192
     19 C                     0.024669
     20 C                    -0.143925
     21 C                    -0.143771
     22 C                     0.025926
     23 O                    -0.186293
     24 H                     0.086417
     25 H                     0.085977
     26 H                     0.090366
     27 H                     0.078192
     28 H                     0.073749
     29 H                     0.078053
     30 H                     0.074143
     31 H                     0.082488
     32 O                    -0.206089
     33 C                    -0.141733
     34 C                     0.025789
     35 C                    -0.143967
     36 C                    -0.143548
     37 C                     0.024968
     38 O                    -0.186646
     39 H                     0.087816
     40 H                     0.085253
     41 H                     0.113886
     42 H                     0.083275
     43 H                     0.078637
     44 H                     0.074100
     45 H                     0.078680
     46 H                     0.073523
     47 H                     0.090189
     48 H                     0.084285
     49 H                     0.087641
     50 H                     0.091539
     51 H                     0.088809
     52 H                     0.088039
     53 H                     0.077271
     54 H                     0.107781
     55 H                     0.085868
     56 H                     0.101838
  ----------------------------------------
  Sum of atomic charges =     0.000000

                    Cartesian Multipole Moments
 -----------------------------------------------------------------
    Charge (ESU x 10^10)
                 0.0000
    Dipole Moment (Debye)
         X      -0.4201      Y       1.3628      Z      -0.6461
       Tot       1.5656
    Quadrupole Moments (Debye-Ang)
        XX    -140.3400     XY     -10.8861     YY    -164.3068
        XZ       9.4759     YZ      -2.1343     ZZ    -159.9928

 Total job time:  82.75s(wall), 3942.05s(cpu)
        *  Thank you very much for using Q-Chem.  Have a nice day.  *
