 Q-Chem 5.0, Q-Chem, Inc., Pleasanton, CA (2017)
 Q-Chem 5.0.1 for Intel X86 EM64T Linux

User input:
--------------------------------------------------------------
$molecule
0  1
O -3.94934 -3.66094 2.70899
C -3.26408 -4.56952 2.26188
C -3.36658 -6.02376 2.66595
C -4.47777 -6.40027 3.6596
C -5.47343 -5.314 4.0013
O -4.91698 -4.43675 4.88798
C -5.75944 -3.31545 5.17471
C -5.27192 -2.08451 4.41757
O -5.93169 -0.91018 4.91609
C -5.62325 0.24667 4.27914
C -6.15789 1.46877 4.98716
C -5.51316 1.76123 6.3499
C -4.21797 1.02931 6.63884
O -3.55424 1.13916 7.65961
O -2.30984 -4.27262 1.34095
O -3.57905 0.33304 5.65981
O -5.00178 0.29722 3.22339
C -2.34079 -0.27091 5.77803
C -5.86781 2.80725 4.2684
C -6.88972 3.85602 4.7063
C -6.44969 4.10195 6.13559
C -5.17653 3.24944 6.18063
O -4.68644 3.28904 4.86193
H -7.26253 1.34272 5.05099
H -6.2063 1.52904 7.18777
H -5.86237 2.72582 3.15972
H -6.68271 4.77341 4.10936
H -7.9573 3.5746 4.5804
H -6.21243 5.18301 6.24882
H -7.17385 3.78428 6.91698
H -4.48479 3.61945 6.96948
O -6.63549 -5.28662 3.60846
C -2.06689 -3.0039 0.85759
C -3.74097 -6.9107 1.4633
C -3.30487 -8.35167 1.7223
C -4.32167 -8.76842 2.76166
C -5.18058 -7.50148 2.83282
O -5.14178 -6.9939 1.52254
H -2.36155 -6.30857 3.05018
H -4.10184 -6.82798 4.61605
H -1.77274 -2.32735 1.68854
H -3.31435 -6.5532 0.50053
H -3.49269 -8.93238 0.79082
H -2.2413 -8.4692 2.02228
H -4.92093 -9.61005 2.34779
H -3.90332 -9.0527 3.75134
H -6.18856 -7.75618 3.22869
H -2.97383 -2.60663 0.35346
H -1.23859 -3.04744 0.12108
H -2.07495 -0.75148 4.81427
H -2.36905 -1.04822 6.57121
H -1.56569 0.48752 6.01895
H -4.176 -1.97727 4.5546
H -5.54812 -2.19941 3.34861
H -5.65333 -3.11659 6.2624
H -6.84931 -3.4642 5.00404
$end

$opt
CONSTRAINT
tors           1           2           3           4      +3.744
tors           3           4           5           6     -77.400
tors           4           5           6           7    +175.055
tors           5           6           7           8    -102.769
tors           6           7           8           9    -167.873
tors           7           8           9          10    -177.234
tors           8           9          10          11    -170.248
tors           9          10          11          12     +67.243
tors          11          12          13          14    +179.363
ENDCONSTRAINT
$end

$rem
JOBTYPE                   OPT
METHOD                    B3LYP
DFT_D                     d3_op
BASIS                     STO-3G
GEOM_OPT_MAX_CYCLES       100
GEOM_OPT_TOL_GRADIENT     300
GEOM_OPT_TOL_DISPLACEMENT 1200
GEOM_OPT_TOL_ENERGY       100
SYMMETRY                  False
THRESH                    12
SCF_CONVERGENCE           8
MAX_SUB_FILE_NUM          128
MEM_STATIC                400
MEM_TOTAL                 4000
$end
--------------------------------------------------------------

   15   -1510.1478655652      5.92E-09 Convergence criterion met
 Total energy in the final basis set = -1510.14786557
   13   -1510.2196150322      7.27E-09 Convergence criterion met
 Total energy in the final basis set = -1510.21961503
   13   -1510.2576423021      5.85E-09 Convergence criterion met
 Total energy in the final basis set = -1510.25764230
   14   -1510.2737603913      7.66E-09 Convergence criterion met
 Total energy in the final basis set = -1510.27376039
   13   -1510.2798089285      7.80E-09 Convergence criterion met
 Total energy in the final basis set = -1510.27980893
   13   -1510.2810705457      8.63E-09 Convergence criterion met
 Total energy in the final basis set = -1510.28107055
   13   -1510.2828312970      4.06E-09 Convergence criterion met
 Total energy in the final basis set = -1510.28283130
   12   -1510.2834713762      8.08E-09 Convergence criterion met
   12   -1510.2846080152      2.82E-09 Convergence criterion met
 Total energy in the final basis set = -1510.28460802
   11   -1510.2846614350      4.91E-09 Convergence criterion met
 Total energy in the final basis set = -1510.28466144
   11   -1510.2847077772      3.60E-09 Convergence criterion met
 Total energy in the final basis set = -1510.28470778
    9   -1510.2847308146      9.77E-09 Convergence criterion met
 Total energy in the final basis set = -1510.28473081
   11   -1510.2847399022      3.83E-09 Convergence criterion met
 Total energy in the final basis set = -1510.28473990
    9   -1510.2847424025      5.05E-09 Convergence criterion met
 Total energy in the final basis set = -1510.28474240

             Standard Nuclear Orientation (Angstroms)
    I     Atom           X                Y                Z
 ----------------------------------------------------------------
    1      O      -2.2251821895     0.6304111157     1.0803101745
    2      C      -3.1339714867     1.2764123087     0.5106474260
    3      C      -4.2640430827     0.6992393397    -0.4086685621
    4      C      -4.2207261347    -0.8798763241    -0.4986462000
    5      C      -2.9219240829    -1.5384446631     0.0967033529
    6      O      -1.8736601103    -1.3581962460    -0.8748589021
    7      C      -0.5826662549    -1.8484911381    -0.3376426866
    8      C       0.2787613961    -0.6167916735     0.1046914510
    9      O       1.6567229430    -1.1012611965     0.3559286627
   10      C       2.4700677198    -0.0170260314     0.8272273220
   11      C       3.9623347339    -0.5065278083     0.8388112480
   12      C       4.6302949359    -0.7963969724    -0.5690218833
   13      C       3.9011238688    -0.2709309868    -1.8589221340
   14      O       4.3138912893    -0.4145104075    -3.0309432015
   15      O      -3.2863949015     2.6905070372     0.6081701369
   16      O       2.7660020240     0.5288481033    -1.5224528351
   17      O       2.0311759947     1.0833381024     1.2232421291
   18      C       2.1401485338     1.0817372825    -2.7441413257
   19      C       4.9514372690     0.5781800059     1.4401269532
   20      C       6.2110762221    -0.1824141532     2.0069296988
   21      C       6.9040361732    -0.6379067840     0.6688173684
   22      C       5.9747459245     0.0460287980    -0.4121878619
   23      O       5.4927473018     1.2787938743     0.2514005690
   24      H       3.9930041506    -1.4320679507     1.4426624151
   25      H       4.8364463786    -1.8729715994    -0.7085016251
   26      H       4.4632718158     1.2980032717     2.1256233692
   27      H       6.8533600622     0.5071934378     2.5778520032
   28      H       5.9340568838    -1.0288257798     2.6555026508
   29      H       7.9333472754    -0.2535257289     0.5909629430
   30      H       6.9265273138    -1.7335601969     0.5549711684
   31      H       6.4686033505     0.2841554474    -1.3745864278
   32      O      -2.8187802679    -2.2238154478     1.1359891310
   33      C      -2.2232808651     3.2544156878     1.4751612028
   34      C      -5.6772353439     0.9082622158     0.2900585908
   35      C      -6.8216540535     0.5186803015    -0.7288752377
   36      C      -6.7652116544    -1.0534813115    -0.6700508748
   37      C      -5.5363961360    -1.2711698726     0.2959403692
   38      O      -5.6977411075    -0.1832491038     1.2900468085
   39      H      -4.2105056323     1.1824416193    -1.4009233334
   40      H      -4.2895122050    -1.1949250270    -1.5555303794
   41      H      -1.2133861146     3.0562015293     1.0612010044
   42      H      -5.7935485377     1.8941426382     0.7808300343
   43      H      -7.7939783137     0.9051352960    -0.3846241234
   44      H      -6.6232262948     0.9119297672    -1.7388577522
   45      H      -7.6818308909    -1.4727736101    -0.2252781123
   46      H      -6.6079988610    -1.5130078595    -1.6590186238
   47      H      -5.4853234153    -2.2537034316     0.8039049840
   48      H      -2.2719260507     2.8358753833     2.5009328427
   49      H      -2.4049815407     4.3442088472     1.5083552311
   50      H       1.3605811671     1.7838523232    -2.3952994066
   51      H       1.6733054078     0.2829138761    -3.3564766000
   52      H       2.8787051413     1.6221332182    -3.3700779543
   53      H       0.2864184396     0.1405229142    -0.7091536184
   54      H      -0.1715580053    -0.1421860961     1.0034249005
   55      H      -0.0692163867    -2.4003458374    -1.1520945240
   56      H      -0.7712912448    -2.5271974563     0.5212638614
 ----------------------------------------------------------------

    9   -1510.2847430980      3.65E-09 Convergence criterion met
 Total energy in the final basis set = -1510.28474310
 Final energy is   -1510.28474309797
 **  OPTIMIZATION CONVERGED  **

                    Orbital Energies (a.u.)
 --------------------------------------------------------------

 Alpha MOs
 -- Occupied --
-18.946 -18.942 -18.919 -18.918 -18.889 -18.888 -18.884 -18.873
-18.866 -18.862 -10.109 -10.101 -10.094 -10.093 -10.069 -10.068
-10.062 -10.060 -10.058 -10.058 -10.056 -10.054 -10.043 -10.038
-10.035 -10.032 -10.022 -10.020 -10.019 -10.017  -1.022  -1.016
 -1.001  -0.997  -0.971  -0.968  -0.946  -0.937  -0.930  -0.924
 -0.765  -0.760  -0.726  -0.722  -0.711  -0.703  -0.690  -0.667
 -0.665  -0.612  -0.597  -0.576  -0.545  -0.542  -0.537  -0.535
 -0.513  -0.509  -0.484  -0.478  -0.463  -0.456  -0.455  -0.444
 -0.435  -0.430  -0.422  -0.416  -0.416  -0.412  -0.410  -0.393
 -0.391  -0.380  -0.378  -0.367  -0.361  -0.357  -0.354  -0.344
 -0.340  -0.336  -0.335  -0.331  -0.328  -0.325  -0.319  -0.314
 -0.308  -0.307  -0.305  -0.302  -0.298  -0.290  -0.279  -0.275
 -0.268  -0.260  -0.245  -0.241  -0.240  -0.235  -0.232  -0.187
 -0.181  -0.166  -0.163  -0.162  -0.155  -0.148  -0.146  -0.143
 -0.142

          Ground-State Mulliken Net Atomic Charges

     Atom                 Charge (a.u.)
  ----------------------------------------
      1 O                    -0.208114
      2 C                     0.217327
      3 C                    -0.077092
      4 C                    -0.081342
      5 C                     0.217035
      6 O                    -0.181280
      7 C                    -0.052396
      8 C                    -0.051925
      9 O                    -0.180296
     10 C                     0.221017
     11 C                    -0.081072
     12 C                    -0.076782
     13 C                     0.212224
     14 O                    -0.216436
     15 O                    -0.168015
     16 O                    -0.165903
     17 O                    -0.218601
     18 C                    -0.126105
     19 C                     0.023760
     20 C                    -0.143025
     21 C                    -0.144708
     22 C                     0.024554
     23 O                    -0.191247
     24 H                     0.083303
     25 H                     0.086386
     26 H                     0.090059
     27 H                     0.077612
     28 H                     0.073276
     29 H                     0.078106
     30 H                     0.073635
     31 H                     0.085019
     32 O                    -0.215623
     33 C                    -0.128691
     34 C                     0.024618
     35 C                    -0.144473
     36 C                    -0.143094
     37 C                     0.024211
     38 O                    -0.190249
     39 H                     0.087627
     40 H                     0.084244
     41 H                     0.094761
     42 H                     0.086693
     43 H                     0.078566
     44 H                     0.073458
     45 H                     0.078421
     46 H                     0.073354
     47 H                     0.089995
     48 H                     0.093601
     49 H                     0.092823
     50 H                     0.092290
     51 H                     0.088662
     52 H                     0.094497
     53 H                     0.079939
     54 H                     0.101994
     55 H                     0.083757
     56 H                     0.099643
  ----------------------------------------
  Sum of atomic charges =    -0.000000

                    Cartesian Multipole Moments
 -----------------------------------------------------------------
    Charge (ESU x 10^10)
                -0.0000
    Dipole Moment (Debye)
         X      -0.9052      Y       0.3998      Z      -1.5119
       Tot       1.8069
    Quadrupole Moments (Debye-Ang)
        XX    -148.5064     XY     -10.5872     YY    -157.6748
        XZ      16.1488     YZ       1.0336     ZZ    -162.5429

 Total job time:  49.20s(wall), 2341.27s(cpu)
        *  Thank you very much for using Q-Chem.  Have a nice day.  *
