 Q-Chem 5.0, Q-Chem, Inc., Pleasanton, CA (2017)
 Q-Chem 5.0.1 for Intel X86 EM64T Linux

User input:
--------------------------------------------------------------
$molecule
0  1
O -2.2251821895 0.6304111157 1.0803101745
C -3.1339714867 1.2764123087 0.510647426
C -4.2640430827 0.6992393397 -0.4086685621
C -4.2207261347 -0.8798763241 -0.4986462
C -2.9219240829 -1.5384446631 0.0967033529
O -1.8736601103 -1.358196246 -0.8748589021
C -0.5826662549 -1.8484911381 -0.3376426866
C 0.2787613961 -0.6167916735 0.104691451
O 1.656722943 -1.1012611965 0.3559286627
C 2.4700677198 -0.0170260314 0.827227322
C 3.9623347339 -0.5065278083 0.838811248
C 4.6302949359 -0.7963969724 -0.5690218833
C 3.9011238688 -0.2709309868 -1.858922134
O 4.3138912893 -0.4145104075 -3.0309432015
O -3.2863949015 2.6905070372 0.6081701369
O 2.766002024 0.5288481033 -1.5224528351
O 2.0311759947 1.0833381024 1.2232421291
C 2.1401485338 1.0817372825 -2.7441413257
C 4.951437269 0.5781800059 1.4401269532
C 6.2110762221 -0.1824141532 2.0069296988
C 6.9040361732 -0.637906784 0.6688173684
C 5.9747459245 0.046028798 -0.4121878619
O 5.4927473018 1.2787938743 0.251400569
H 3.9930041506 -1.4320679507 1.4426624151
H 4.8364463786 -1.8729715994 -0.7085016251
H 4.4632718158 1.2980032717 2.1256233692
H 6.8533600622 0.5071934378 2.5778520032
H 5.9340568838 -1.0288257798 2.6555026508
H 7.9333472754 -0.2535257289 0.590962943
H 6.9265273138 -1.7335601969 0.5549711684
H 6.4686033505 0.2841554474 -1.3745864278
O -2.8187802679 -2.2238154478 1.135989131
C -2.2232808651 3.2544156878 1.4751612028
C -5.6772353439 0.9082622158 0.2900585908
C -6.8216540535 0.5186803015 -0.7288752377
C -6.7652116544 -1.0534813115 -0.6700508748
C -5.536396136 -1.2711698726 0.2959403692
O -5.6977411075 -0.1832491038 1.2900468085
H -4.2105056323 1.1824416193 -1.4009233334
H -4.289512205 -1.194925027 -1.5555303794
H -1.2133861146 3.0562015293 1.0612010044
H -5.7935485377 1.8941426382 0.7808300343
H -7.7939783137 0.905135296 -0.3846241234
H -6.6232262948 0.9119297672 -1.7388577522
H -7.6818308909 -1.4727736101 -0.2252781123
H -6.607998861 -1.5130078595 -1.6590186238
H -5.4853234153 -2.2537034316 0.803904984
H -2.2719260507 2.8358753833 2.5009328427
H -2.4049815407 4.3442088472 1.5083552311
H 1.3605811671 1.7838523232 -2.3952994066
H 1.6733054078 0.2829138761 -3.3564766
H 2.8787051413 1.6221332182 -3.3700779543
H 0.2864184396 0.1405229142 -0.7091536184
H -0.1715580053 -0.1421860961 1.0034249005
H -0.0692163867 -2.4003458374 -1.152094524
H -0.7712912448 -2.5271974563 0.5212638614
$end

$rem
JOBTYPE                   OPT
METHOD                    B3LYP
DFT_D                     d3_op
BASIS                     STO-3G
GEOM_OPT_MAX_CYCLES       100
GEOM_OPT_TOL_GRADIENT     300
GEOM_OPT_TOL_DISPLACEMENT 1200
GEOM_OPT_TOL_ENERGY       100
SYMMETRY                  False
THRESH                    12
SCF_CONVERGENCE           8
MAX_SUB_FILE_NUM          128
MEM_STATIC                400
MEM_TOTAL                 4000
$end
--------------------------------------------------------------

   16   -1510.2844669092      6.32E-09 Convergence criterion met
 Total energy in the final basis set = -1510.28446691
   14   -1510.2850524736      2.32E-09 Convergence criterion met
 Total energy in the final basis set = -1510.28505247
   13   -1510.2860631560      7.99E-09 Convergence criterion met
 Total energy in the final basis set = -1510.28606316
   13   -1510.2870396736      7.72E-09 Convergence criterion met
 Total energy in the final basis set = -1510.28703967
   13   -1510.2878340848      3.93E-09 Convergence criterion met
 Total energy in the final basis set = -1510.28783408
   13   -1510.2887801185      2.62E-09 Convergence criterion met
 Total energy in the final basis set = -1510.28878012
   13   -1510.2896548199      4.53E-09 Convergence criterion met
 Total energy in the final basis set = -1510.28965482
   13   -1510.2904809445      3.03E-09 Convergence criterion met
   12   -1510.2935977615      3.02E-09 Convergence criterion met
 Total energy in the final basis set = -1510.29359776
   11   -1510.2936332170      9.26E-09 Convergence criterion met
 Total energy in the final basis set = -1510.29363322
   11   -1510.2936578518      7.76E-09 Convergence criterion met
 Total energy in the final basis set = -1510.29365785
   11   -1510.2936700176      6.07E-09 Convergence criterion met
 Total energy in the final basis set = -1510.29367002
    9   -1510.2936759078      8.78E-09 Convergence criterion met
 Total energy in the final basis set = -1510.29367591
    9   -1510.2936782708      6.45E-09 Convergence criterion met
 Total energy in the final basis set = -1510.29367827

             Standard Nuclear Orientation (Angstroms)
    I     Atom           X                Y                Z
 ----------------------------------------------------------------
    1      O      -2.2222208445     0.8429611218     1.0402454859
    2      C      -2.7724060040     1.0709796181    -0.0642793142
    3      C      -4.0511191368     0.3654332571    -0.6322588400
    4      C      -4.1616389175    -1.1663760729    -0.2236559378
    5      C      -2.8969547818    -1.7093090895     0.5311635062
    6      O      -1.8517579469    -1.8449366747    -0.4476937587
    7      C      -0.5353303172    -2.0353422606     0.2115636360
    8      C       0.1369217197    -0.6231563083     0.2178554753
    9      O       1.5155923550    -0.7148938966     0.7530195654
   10      C       2.1510238626     0.5580339881     0.6118098933
   11      C       3.6362924717     0.4244679270     1.0955590821
   12      C       4.4401869550    -0.7223298648     0.3488340469
   13      C       3.5978813167    -1.5004516266    -0.7174684024
   14      O       3.4486993096    -2.7376066045    -0.8111853770
   15      O      -2.3255331497     2.0518003985    -0.9934441077
   16      O       3.0320270495    -0.5509526089    -1.6331431392
   17      O       1.5820975844     1.5903982181     0.1897009152
   18      C       2.2491368005    -1.2542880850    -2.6740142396
   19      C       4.4782685300     1.7048481594     0.7001179022
   20      C       5.8156383607     1.6988369862     1.5372512439
   21      C       6.6199869976     0.5561779186     0.8117978505
   22      C       5.6014644967     0.1357876430    -0.3221505968
   23      O       4.9299609105     1.4041346619    -0.6789324231
   24      H       3.6339731255     0.2529587358     2.1877996440
   25      H       4.8426422388    -1.4640613670     1.0607448617
   26      H       3.8947268874     2.6457548561     0.7188753639
   27      H       6.3287719876     2.6700190188     1.4535531739
   28      H       5.6374975345     1.4832106818     2.6029378725
   29      H       7.5542779037     0.9364422074     0.3689127519
   30      H       6.8625875764    -0.2846724337     1.4810398946
   31      H       6.0581168010    -0.3278558881    -1.2182007031
   32      O      -2.7922824038    -2.0303543913     1.7328770465
   33      C      -1.1758432581     2.8165827959    -0.4389143190
   34      C      -5.3555941032     0.9428158616     0.0768618353
   35      C      -6.6284885598     0.4385320499    -0.7129789061
   36      C      -6.7202294656    -1.0558509649    -0.2265041931
   37      C      -5.4479015359    -1.1477282709     0.7016956306
   38      O      -5.3998946891     0.1858976324     1.3470911694
   39      H      -4.0801805161     0.5077568693    -1.7266040308
   40      H      -4.3146799236    -1.7881700097    -1.1245809922
   41      H      -0.2582467719     2.1960433405    -0.3046758020
   42      H      -5.3249158414     2.0324066748     0.2725280110
   43      H      -7.5180605364     1.0171909616    -0.4178251008
   44      H      -6.4979345515     0.5233906224    -1.8038180551
   45      H      -7.6367370483    -1.2330657850     0.3587315999
   46      H      -6.6857239080    -1.7778614426    -1.0581159564
   47      H      -5.4650330544    -1.9452747206     1.4696816245
   48      H      -1.4401832393     3.2724212728     0.5361634896
   49      H      -0.9737135410     3.6160124681    -1.1747058768
   50      H       1.7302936249    -0.4671011518    -3.2513334782
   51      H       1.5053267666    -1.9465420829    -2.2309332644
   52      H       2.9071979750    -1.8357657582    -3.3521179514
   53      H       0.1585198786    -0.2308089104    -0.8216998689
   54      H      -0.4983997706     0.0664548147     0.8238965007
   55      H       0.0474084907    -2.7617426023    -0.3909829257
   56      H      -0.6759262883    -2.4203112890     1.2437507133
 ----------------------------------------------------------------

    9   -1510.2936784227      2.37E-09 Convergence criterion met
 Total energy in the final basis set = -1510.29367842
 Final energy is   -1510.29367842268
 **  OPTIMIZATION CONVERGED  **

                    Orbital Energies (a.u.)
 --------------------------------------------------------------

 Alpha MOs
 -- Occupied --
-18.939 -18.937 -18.933 -18.926 -18.889 -18.888 -18.882 -18.878
-18.878 -18.873 -10.106 -10.103 -10.099 -10.099 -10.068 -10.064
-10.062 -10.061 -10.059 -10.059 -10.058 -10.050 -10.040 -10.040
-10.038 -10.038 -10.022 -10.021 -10.020 -10.020  -1.019  -1.015
 -1.008  -1.006  -0.971  -0.971  -0.941  -0.938  -0.935  -0.935
 -0.766  -0.764  -0.728  -0.724  -0.711  -0.707  -0.696  -0.661
 -0.659  -0.614  -0.598  -0.581  -0.547  -0.545  -0.538  -0.538
 -0.515  -0.510  -0.484  -0.478  -0.466  -0.461  -0.454  -0.443
 -0.437  -0.432  -0.428  -0.416  -0.413  -0.410  -0.407  -0.400
 -0.391  -0.382  -0.371  -0.369  -0.361  -0.358  -0.356  -0.351
 -0.346  -0.337  -0.335  -0.333  -0.332  -0.329  -0.325  -0.311
 -0.310  -0.307  -0.305  -0.299  -0.294  -0.292  -0.283  -0.278
 -0.270  -0.260  -0.251  -0.248  -0.247  -0.235  -0.235  -0.186
 -0.176  -0.175  -0.173  -0.160  -0.158  -0.152  -0.150  -0.145
 -0.144

          Ground-State Mulliken Net Atomic Charges

     Atom                 Charge (a.u.)
  ----------------------------------------
      1 O                    -0.216876
      2 C                     0.212487
      3 C                    -0.077943
      4 C                    -0.079163
      5 C                     0.214528
      6 O                    -0.180811
      7 C                    -0.053135
      8 C                    -0.062354
      9 O                    -0.173907
     10 C                     0.222036
     11 C                    -0.077873
     12 C                    -0.078912
     13 C                     0.211531
     14 O                    -0.214145
     15 O                    -0.167792
     16 O                    -0.169570
     17 O                    -0.214453
     18 C                    -0.128659
     19 C                     0.024727
     20 C                    -0.144000
     21 C                    -0.143790
     22 C                     0.026066
     23 O                    -0.186070
     24 H                     0.086678
     25 H                     0.085876
     26 H                     0.090261
     27 H                     0.078411
     28 H                     0.073668
     29 H                     0.078084
     30 H                     0.074062
     31 H                     0.082683
     32 O                    -0.204790
     33 C                    -0.142233
     34 C                     0.025691
     35 C                    -0.143967
     36 C                    -0.143540
     37 C                     0.025044
     38 O                    -0.186258
     39 H                     0.087507
     40 H                     0.085312
     41 H                     0.110834
     42 H                     0.083159
     43 H                     0.078623
     44 H                     0.074031
     45 H                     0.078595
     46 H                     0.073403
     47 H                     0.089958
     48 H                     0.085311
     49 H                     0.087508
     50 H                     0.091614
     51 H                     0.088261
     52 H                     0.087294
     53 H                     0.081711
     54 H                     0.106010
     55 H                     0.087064
     56 H                     0.102217
  ----------------------------------------
  Sum of atomic charges =     0.000000

                    Cartesian Multipole Moments
 -----------------------------------------------------------------
    Charge (ESU x 10^10)
                 0.0000
    Dipole Moment (Debye)
         X       0.1720      Y       0.3435      Z      -1.6375
       Tot       1.6820
    Quadrupole Moments (Debye-Ang)
        XX    -141.2984     XY       1.4004     YY    -163.0440
        XZ      16.4511     YZ       4.9024     ZZ    -161.5543

 Total job time:  97.87s(wall), 4666.96s(cpu)
        *  Thank you very much for using Q-Chem.  Have a nice day.  *
