 Q-Chem 5.0, Q-Chem, Inc., Pleasanton, CA (2017)
 Q-Chem 5.0.1 for Intel X86 EM64T Linux

User input:
--------------------------------------------------------------
$molecule
0  1
O -2.3689319944 0.3361923003 1.2582287741
C -3.1674591356 1.1132216875 0.6859294324
C -4.3357012279 0.7134144678 -0.2782363726
C -4.275397912 -0.8143850655 -0.6871334747
C -2.9488722958 -1.5426003904 -0.2632503588
O -1.8910765747 -1.007412342 -1.0786593201
C -0.6018222894 -1.6499330098 -0.7341132247
C 0.2920141545 -0.5759631334 -0.0267027023
O 1.6596145195 -1.1332012343 0.0913890678
C 2.4907504719 -0.228691747 0.8346358681
C 3.9760043705 -0.7131659496 0.6773203761
C 4.6207824599 -0.5862971914 -0.7657804629
C 3.8874348935 0.3071887025 -1.8309071321
O 4.2844396247 0.5111130998 -2.999353056
O -3.1472182211 2.5315217798 0.8350834397
O 2.7631274465 0.9784417415 -1.2593486166
O 2.0690961715 0.7168630715 1.5331385018
C 2.1414566885 1.8837137477 -2.2517339804
C 4.9934495117 0.1330240016 1.5534312341
C 6.2429356863 -0.7803247912 1.8538584607
C 6.9090012601 -0.8409328921 0.4284621106
C 5.9846669502 0.1477805329 -0.3893238554
O 5.5376942948 1.1405197098 0.6127208096
H 3.9984632719 -1.7760080271 0.9815340533
H 4.8016315785 -1.5779353491 -1.2182942895
H 4.5276822516 0.6306072977 2.4264613268
H 6.9065325959 -0.2941504368 2.586753508
H 5.9574929579 -1.7730552196 2.2366495572
H 7.9469350726 -0.4725131804 0.4468882288
H 6.9031215667 -1.8560000099 -0.0003771361
H 6.4742312601 0.6486157899 -1.2475960781
O -2.8255418032 -2.506185428 0.5221932923
C -2.0610742978 2.9259115803 1.764868917
C -5.7161308083 0.7435727192 0.5131262335
C -6.9022760999 0.5474058251 -0.5127062936
C -6.8222151656 -1.0005760295 -0.7875739422
C -5.5505466823 -1.3873076417 0.0615870321
O -5.6770214103 -0.5308657853 1.2654751145
H -4.3411250342 1.3909943761 -1.1503409773
H -4.3774062432 -0.9164088035 -1.782740395
H -1.0719968368 2.5686224485 1.4121711872
H -5.8260017368 1.6038051307 1.2019110441
H -7.8613591011 0.8278925488 -0.0491444191
H -6.7627418418 1.149087216 -1.4252682
H -7.7138162931 -1.5230405783 -0.4055629449
H -6.7013794938 -1.2401044138 -1.8561314402
H -5.4628961325 -2.4520267645 0.3530140379
H -2.2359665061 2.5269385059 2.7848215768
H -2.0706168323 4.0308855063 1.7924529048
H 1.35086809 2.4330027576 -1.7080998286
H 1.6900726069 1.3165615276 -3.0916793809
H 2.8794275485 2.6008791826 -2.6646177695
H 0.3132930465 0.3510064209 -0.6397090453
H -0.1425672393 -0.3195641006 0.9645219255
H -0.1228433608 -1.9901195123 -1.6759580614
H -0.7902662181 -2.517939972 -0.0666399367
$end

$rem
JOBTYPE                   OPT
METHOD                    B3LYP
DFT_D                     d3_op
BASIS                     STO-3G
GEOM_OPT_MAX_CYCLES       100
GEOM_OPT_TOL_GRADIENT     300
GEOM_OPT_TOL_DISPLACEMENT 1200
GEOM_OPT_TOL_ENERGY       100
SYMMETRY                  False
THRESH                    12
SCF_CONVERGENCE           8
MAX_SUB_FILE_NUM          128
MEM_STATIC                400
MEM_TOTAL                 4000
$end
--------------------------------------------------------------

   16   -1510.2846663093      6.53E-09 Convergence criterion met
 Total energy in the final basis set = -1510.28466631
   14   -1510.2860795159      3.01E-09 Convergence criterion met
 Total energy in the final basis set = -1510.28607952
   14   -1510.2870367076      5.48E-09 Convergence criterion met
 Total energy in the final basis set = -1510.28703671
   14   -1510.2870075104      1.91E-09 Convergence criterion met
 Total energy in the final basis set = -1510.28700751
   13   -1510.2885413413      5.90E-09 Convergence criterion met
 Total energy in the final basis set = -1510.28854134
   13   -1510.2902239959      4.54E-09 Convergence criterion met
 Total energy in the final basis set = -1510.29022400
   13   -1510.2903018305      6.01E-09 Convergence criterion met
 Total energy in the final basis set = -1510.29030183
   13   -1510.2904650140      4.55E-09 Convergence criterion met
   12   -1510.2937784019      2.97E-09 Convergence criterion met
 Total energy in the final basis set = -1510.29377840
   12   -1510.2937694277      4.70E-09 Convergence criterion met
 Total energy in the final basis set = -1510.29376943
   11   -1510.2937816581      6.63E-09 Convergence criterion met
 Total energy in the final basis set = -1510.29378166
   10   -1510.2937765975      9.90E-09 Convergence criterion met
 Total energy in the final basis set = -1510.29377660
    9   -1510.2937806378      6.47E-09 Convergence criterion met
 Total energy in the final basis set = -1510.29378064
    9   -1510.2937776424      3.93E-09 Convergence criterion met
 Total energy in the final basis set = -1510.29377764

             Standard Nuclear Orientation (Angstroms)
    I     Atom           X                Y                Z
 ----------------------------------------------------------------
    1      O      -2.2064523803     0.3240032700     1.3094476142
    2      C      -2.7696030244     1.0062345233     0.4194271423
    3      C      -4.0634969852     0.6164772748    -0.3741127121
    4      C      -4.1781716866    -0.9412310322    -0.6688256387
    5      C      -2.9015681864    -1.7543719058    -0.2526546431
    6      O      -1.8751346310    -1.4418480960    -1.2107158071
    7      C      -0.5474248798    -1.8970138340    -0.7273239666
    8      C       0.1307860058    -0.6309669104    -0.1068933701
    9      O       1.5110381871    -0.9541465669     0.3223331707
   10      C       2.1597739586     0.2473477743     0.7480023128
   11      C       3.6401771831    -0.1052193697     1.1230886681
   12      C       4.4213994337    -0.8532867423    -0.0386106219
   13      C       3.5723004913    -1.0689188971    -1.3366754381
   14      O       3.3916313000    -2.1374375281    -1.9588423087
   15      O      -2.3285408537     2.2918086611    -0.0020906234
   16      O       3.0460345544     0.2009798880    -1.7505163021
   17      O       1.6018041478     1.3656782417     0.8202933486
   18      C       2.2573477709     0.0431585980    -2.9927687216
   19      C       4.5192855287     1.2003222773     1.2995053714
   20      C       5.8440808228     0.8042011437     2.0608949755
   21      C       6.6292461999     0.0470472493     0.9254865648
   22      C       5.6164909861     0.1692346739    -0.2817921006
   23      O       4.9837718981     1.4904153694    -0.0771327902
   24      H       3.6288583717    -0.7175172477     2.0435780311
   25      H       4.7877296165    -1.8414479481     0.2900288093
   26      H       3.9603169864     2.0638237860     1.7096776624
   27      H       6.3834226647     1.7057070879     2.3921294974
   28      H       5.6437678306     0.1679969798     2.9378130825
   29      H       7.5778632131     0.5523969866     0.6840429624
   30      H       6.8434478714    -1.0025958048     1.1829258980
   31      H       6.0742734265     0.1099589168    -1.2883248083
   32      O      -2.7760388413    -2.5690205711     0.6847777505
   33      C      -1.1664922378     2.7424180001     0.8109866145
   34      C      -5.3476833768     0.8258901748     0.5442191386
   35      C      -6.6413518598     0.7117495479    -0.3568751689
   36      C      -6.7356625072    -0.8457425422    -0.5635916396
   37      C      -5.4442645536    -1.3287553336     0.2029293515
   38      O      -5.3705574961    -0.4068465218     1.3613726311
   39      H      -4.1122474411     1.2210494044    -1.2965684244
   40      H      -4.3562621830    -1.1116771183    -1.7461785434
   41      H      -0.2507910065     2.1255582707     0.6507202986
   42      H      -5.3038623377     1.7230128209     1.1919686600
   43      H      -7.5194264052     1.1031310075     0.1808261766
   44      H      -6.5341793387     1.2619076125    -1.3054703529
   45      H      -7.6402573769    -1.2602381919    -0.0907235377
   46      H      -6.7261215331    -1.1381419573    -1.6257325636
   47      H      -5.4504271105    -2.3806478167     0.5487318043
   48      H      -1.4143586715     2.7323642878     1.8912724139
   49      H      -0.9696053499     3.7812401029     0.4894114814
   50      H       1.7855083908     1.0247483272    -3.1826025868
   51      H       1.4739350861    -0.7341510120    -2.8869049047
   52      H       2.9039944295    -0.2274290495    -3.8526770003
   53      H       0.1465175687     0.1792560783    -0.8673898361
   54      H      -0.4973242214    -0.2794878253     0.7464922473
   55      H       0.0220073673    -2.2787062777    -1.5992227022
   56      H      -0.6691050659    -2.6990454968     0.0310408519
 ----------------------------------------------------------------

    9   -1510.2937784775      1.96E-09 Convergence criterion met
 Total energy in the final basis set = -1510.29377848
 Final energy is   -1510.29377847750
 **  OPTIMIZATION CONVERGED  **

                    Orbital Energies (a.u.)
 --------------------------------------------------------------

 Alpha MOs
 -- Occupied --
-18.939 -18.937 -18.933 -18.926 -18.889 -18.888 -18.882 -18.878
-18.878 -18.873 -10.106 -10.103 -10.099 -10.098 -10.067 -10.064
-10.063 -10.061 -10.059 -10.059 -10.058 -10.050 -10.040 -10.040
-10.038 -10.038 -10.022 -10.021 -10.020 -10.020  -1.019  -1.015
 -1.007  -1.006  -0.971  -0.971  -0.941  -0.938  -0.935  -0.935
 -0.766  -0.763  -0.728  -0.724  -0.711  -0.707  -0.696  -0.661
 -0.659  -0.614  -0.598  -0.581  -0.547  -0.545  -0.538  -0.538
 -0.515  -0.510  -0.484  -0.478  -0.466  -0.461  -0.454  -0.443
 -0.437  -0.432  -0.429  -0.416  -0.413  -0.410  -0.407  -0.399
 -0.391  -0.382  -0.371  -0.369  -0.361  -0.358  -0.356  -0.352
 -0.345  -0.337  -0.335  -0.333  -0.332  -0.329  -0.325  -0.311
 -0.310  -0.307  -0.305  -0.299  -0.294  -0.292  -0.283  -0.278
 -0.270  -0.260  -0.251  -0.248  -0.247  -0.235  -0.235  -0.186
 -0.176  -0.175  -0.173  -0.160  -0.158  -0.152  -0.149  -0.145
 -0.144

          Ground-State Mulliken Net Atomic Charges

     Atom                 Charge (a.u.)
  ----------------------------------------
      1 O                    -0.216844
      2 C                     0.212612
      3 C                    -0.077941
      4 C                    -0.079139
      5 C                     0.214439
      6 O                    -0.180793
      7 C                    -0.053106
      8 C                    -0.062508
      9 O                    -0.174092
     10 C                     0.222061
     11 C                    -0.077847
     12 C                    -0.078817
     13 C                     0.211854
     14 O                    -0.214412
     15 O                    -0.167680
     16 O                    -0.169632
     17 O                    -0.214480
     18 C                    -0.128547
     19 C                     0.024673
     20 C                    -0.143874
     21 C                    -0.143903
     22 C                     0.026094
     23 O                    -0.186063
     24 H                     0.086587
     25 H                     0.085988
     26 H                     0.090096
     27 H                     0.078340
     28 H                     0.073609
     29 H                     0.078157
     30 H                     0.074165
     31 H                     0.082611
     32 O                    -0.204756
     33 C                    -0.141930
     34 C                     0.025765
     35 C                    -0.144009
     36 C                    -0.143594
     37 C                     0.025028
     38 O                    -0.186242
     39 H                     0.087572
     40 H                     0.085332
     41 H                     0.110493
     42 H                     0.083106
     43 H                     0.078639
     44 H                     0.074114
     45 H                     0.078633
     46 H                     0.073476
     47 H                     0.090026
     48 H                     0.085524
     49 H                     0.087662
     50 H                     0.091595
     51 H                     0.087670
     52 H                     0.087380
     53 H                     0.081530
     54 H                     0.105990
     55 H                     0.087214
     56 H                     0.102175
  ----------------------------------------
  Sum of atomic charges =     0.000000

                    Cartesian Multipole Moments
 -----------------------------------------------------------------
    Charge (ESU x 10^10)
                 0.0000
    Dipole Moment (Debye)
         X       0.1009      Y       1.0268      Z      -1.2908
       Tot       1.6525
    Quadrupole Moments (Debye-Ang)
        XX    -140.9454     XY      -6.0923     YY    -166.4371
        XZ      15.1670     YZ       2.4195     ZZ    -158.3321

 Total job time:  83.08s(wall), 3959.94s(cpu)
        *  Thank you very much for using Q-Chem.  Have a nice day.  *
