 Q-Chem 5.0, Q-Chem, Inc., Pleasanton, CA (2017)
 Q-Chem 5.0.1 for Intel X86 EM64T Linux

User input:
--------------------------------------------------------------
$molecule
0  1
O -3.94934 -3.66094 2.70899
C -3.26408 -4.56952 2.26188
C -3.36658 -6.02376 2.66595
C -4.24158 -6.35393 3.88628
C -5.05793 -5.21626 4.45844
O -4.23155 -4.30403 5.05034
C -4.93366 -3.19298 5.61766
C -4.65143 -1.92738 4.81471
O -5.1547 -0.77992 5.51681
C -5.05376 0.39932 4.85474
C -5.33737 1.5939 5.73406
C -4.2936 1.85317 6.83023
C -2.9728 1.12757 6.6699
O -2.01824 1.21714 7.42841
O -2.3999 -4.29578 1.2497
O -2.67637 0.46856 5.51703
O -4.79092 0.48857 3.6605
C -1.46203 -0.12102 5.21626
C -5.29051 2.95607 5.0025
C -6.12185 3.98076 5.77382
C -5.25214 4.18885 6.99741
C -4.02948 3.34931 6.6101
O -3.98243 3.43291 5.20606
H -6.36537 1.45553 6.13936
H -4.68444 1.58873 7.83704
H -5.63655 2.90736 3.94717
H -6.11481 4.91746 5.17105
H -7.1743 3.69234 5.98344
H -4.99248 5.26863 7.06411
H -5.69121 3.8399 7.95729
H -3.12378 3.70339 7.15048
O -6.28206 -5.14991 4.41092
C -2.19782 -3.03762 0.72192
C -4.03767 -6.87652 1.57792
C -3.63153 -8.34029 1.73976
C -4.41761 -8.71472 2.97822
C -5.17036 -7.40559 3.23873
O -5.39377 -6.88712 1.94942
H -2.3203 -6.35988 2.84471
H -3.66806 -6.80185 4.72859
H -1.82534 -2.34784 1.50955
H -3.81414 -6.52651 0.54622
H -4.04651 -8.90346 0.8734
H -2.53538 -8.51249 1.80166
H -5.13945 -9.51673 2.70533
H -3.80862 -9.03547 3.85089
H -6.07758 -7.61069 3.84861
H -3.14564 -2.64418 0.29616
H -1.44126 -3.09942 -0.08692
H -1.51444 -0.57023 4.20333
H -1.2332 -0.92105 5.95239
H -0.65365 0.64085 5.22226
H -3.55828 -1.82637 4.66033
H -5.17461 -2.01349 3.83884
H -4.5361 -3.05574 6.64574
H -6.03497 -3.3062 5.73099
$end

$opt
CONSTRAINT
tors           1           2           3           4     -10.142
tors           3           4           5           6     -69.468
tors           4           5           6           7    -180.000
tors           5           6           7           8    -110.516
tors           6           7           8           9    -169.657
tors           7           8           9          10    -175.211
tors           8           9          10          11    -168.520
tors           9          10          11          12     +67.819
tors          11          12          13          14    +179.176
ENDCONSTRAINT
$end

$rem
JOBTYPE                   OPT
METHOD                    B3LYP
DFT_D                     d3_op
BASIS                     STO-3G
GEOM_OPT_MAX_CYCLES       100
GEOM_OPT_TOL_GRADIENT     300
GEOM_OPT_TOL_DISPLACEMENT 1200
GEOM_OPT_TOL_ENERGY       100
SYMMETRY                  False
THRESH                    12
SCF_CONVERGENCE           8
MAX_SUB_FILE_NUM          128
MEM_STATIC                400
MEM_TOTAL                 4000
$end
--------------------------------------------------------------

   15   -1510.1492372462      5.90E-09 Convergence criterion met
 Total energy in the final basis set = -1510.14923725
   13   -1510.2206931505      7.28E-09 Convergence criterion met
 Total energy in the final basis set = -1510.22069315
   13   -1510.2588398343      5.99E-09 Convergence criterion met
 Total energy in the final basis set = -1510.25883983
   14   -1510.2747861679      7.41E-09 Convergence criterion met
 Total energy in the final basis set = -1510.27478617
   13   -1510.2802199529      8.27E-09 Convergence criterion met
 Total energy in the final basis set = -1510.28021995
   13   -1510.2815728745      6.10E-09 Convergence criterion met
 Total energy in the final basis set = -1510.28157287
   13   -1510.2829217811      2.89E-09 Convergence criterion met
 Total energy in the final basis set = -1510.28292178
   13   -1510.2835412533      2.01E-09 Convergence criterion met
   12   -1510.2844631288      6.38E-09 Convergence criterion met
 Total energy in the final basis set = -1510.28446313
   12   -1510.2845406560      4.41E-09 Convergence criterion met
 Total energy in the final basis set = -1510.28454066
   11   -1510.2845909032      7.56E-09 Convergence criterion met
 Total energy in the final basis set = -1510.28459090
   10   -1510.2846265215      9.41E-09 Convergence criterion met
 Total energy in the final basis set = -1510.28462652
   11   -1510.2846477507      2.82E-09 Convergence criterion met
 Total energy in the final basis set = -1510.28464775
    9   -1510.2846567154      9.99E-09 Convergence criterion met
 Total energy in the final basis set = -1510.28465672

             Standard Nuclear Orientation (Angstroms)
    I     Atom           X                Y                Z
 ----------------------------------------------------------------
    1      O      -2.3689319944     0.3361923003     1.2582287741
    2      C      -3.1674591356     1.1132216875     0.6859294324
    3      C      -4.3357012279     0.7134144678    -0.2782363726
    4      C      -4.2753979120    -0.8143850655    -0.6871334747
    5      C      -2.9488722958    -1.5426003904    -0.2632503588
    6      O      -1.8910765747    -1.0074123420    -1.0786593201
    7      C      -0.6018222894    -1.6499330098    -0.7341132247
    8      C       0.2920141545    -0.5759631334    -0.0267027023
    9      O       1.6596145195    -1.1332012343     0.0913890678
   10      C       2.4907504719    -0.2286917470     0.8346358681
   11      C       3.9760043705    -0.7131659496     0.6773203761
   12      C       4.6207824599    -0.5862971914    -0.7657804629
   13      C       3.8874348935     0.3071887025    -1.8309071321
   14      O       4.2844396247     0.5111130998    -2.9993530560
   15      O      -3.1472182211     2.5315217798     0.8350834397
   16      O       2.7631274465     0.9784417415    -1.2593486166
   17      O       2.0690961715     0.7168630715     1.5331385018
   18      C       2.1414566885     1.8837137477    -2.2517339804
   19      C       4.9934495117     0.1330240016     1.5534312341
   20      C       6.2429356863    -0.7803247912     1.8538584607
   21      C       6.9090012601    -0.8409328921     0.4284621106
   22      C       5.9846669502     0.1477805329    -0.3893238554
   23      O       5.5376942948     1.1405197098     0.6127208096
   24      H       3.9984632719    -1.7760080271     0.9815340533
   25      H       4.8016315785    -1.5779353491    -1.2182942895
   26      H       4.5276822516     0.6306072977     2.4264613268
   27      H       6.9065325959    -0.2941504368     2.5867535080
   28      H       5.9574929579    -1.7730552196     2.2366495572
   29      H       7.9469350726    -0.4725131804     0.4468882288
   30      H       6.9031215667    -1.8560000099    -0.0003771361
   31      H       6.4742312601     0.6486157899    -1.2475960781
   32      O      -2.8255418032    -2.5061854280     0.5221932923
   33      C      -2.0610742978     2.9259115803     1.7648689170
   34      C      -5.7161308083     0.7435727192     0.5131262335
   35      C      -6.9022760999     0.5474058251    -0.5127062936
   36      C      -6.8222151656    -1.0005760295    -0.7875739422
   37      C      -5.5505466823    -1.3873076417     0.0615870321
   38      O      -5.6770214103    -0.5308657853     1.2654751145
   39      H      -4.3411250342     1.3909943761    -1.1503409773
   40      H      -4.3774062432    -0.9164088035    -1.7827403950
   41      H      -1.0719968368     2.5686224485     1.4121711872
   42      H      -5.8260017368     1.6038051307     1.2019110441
   43      H      -7.8613591011     0.8278925488    -0.0491444191
   44      H      -6.7627418418     1.1490872160    -1.4252682000
   45      H      -7.7138162931    -1.5230405783    -0.4055629449
   46      H      -6.7013794938    -1.2401044138    -1.8561314402
   47      H      -5.4628961325    -2.4520267645     0.3530140379
   48      H      -2.2359665061     2.5269385059     2.7848215768
   49      H      -2.0706168323     4.0308855063     1.7924529048
   50      H       1.3508680900     2.4330027576    -1.7080998286
   51      H       1.6900726069     1.3165615276    -3.0916793809
   52      H       2.8794275485     2.6008791826    -2.6646177695
   53      H       0.3132930465     0.3510064209    -0.6397090453
   54      H      -0.1425672393    -0.3195641006     0.9645219255
   55      H      -0.1228433608    -1.9901195123    -1.6759580614
   56      H      -0.7902662181    -2.5179399720    -0.0666399367
 ----------------------------------------------------------------

    9   -1510.2846570071      8.77E-09 Convergence criterion met
 Total energy in the final basis set = -1510.28465701
 Final energy is   -1510.28465700709
 **  OPTIMIZATION CONVERGED  **

                    Orbital Energies (a.u.)
 --------------------------------------------------------------

 Alpha MOs
 -- Occupied --
-18.944 -18.943 -18.920 -18.919 -18.888 -18.886 -18.885 -18.874
-18.868 -18.864 -10.107 -10.102 -10.095 -10.095 -10.069 -10.068
-10.063 -10.061 -10.059 -10.059 -10.058 -10.055 -10.042 -10.039
-10.036 -10.033 -10.022 -10.020 -10.019 -10.018  -1.020  -1.017
 -1.003  -0.998  -0.971  -0.969  -0.944  -0.938  -0.931  -0.926
 -0.765  -0.761  -0.726  -0.722  -0.711  -0.704  -0.691  -0.666
 -0.666  -0.612  -0.597  -0.577  -0.545  -0.542  -0.538  -0.536
 -0.513  -0.509  -0.485  -0.478  -0.463  -0.456  -0.455  -0.445
 -0.436  -0.431  -0.423  -0.416  -0.415  -0.413  -0.410  -0.395
 -0.391  -0.381  -0.376  -0.368  -0.361  -0.358  -0.353  -0.345
 -0.342  -0.337  -0.335  -0.332  -0.329  -0.326  -0.320  -0.313
 -0.308  -0.306  -0.305  -0.302  -0.298  -0.291  -0.281  -0.274
 -0.268  -0.259  -0.247  -0.242  -0.240  -0.235  -0.233  -0.186
 -0.182  -0.166  -0.165  -0.161  -0.156  -0.150  -0.146  -0.144
 -0.143

          Ground-State Mulliken Net Atomic Charges

     Atom                 Charge (a.u.)
  ----------------------------------------
      1 O                    -0.208271
      2 C                     0.216151
      3 C                    -0.077261
      4 C                    -0.080596
      5 C                     0.218242
      6 O                    -0.182245
      7 C                    -0.053085
      8 C                    -0.050394
      9 O                    -0.180313
     10 C                     0.221256
     11 C                    -0.081034
     12 C                    -0.076837
     13 C                     0.212230
     14 O                    -0.216085
     15 O                    -0.168299
     16 O                    -0.166285
     17 O                    -0.217805
     18 C                    -0.126132
     19 C                     0.023884
     20 C                    -0.143030
     21 C                    -0.144701
     22 C                     0.024810
     23 O                    -0.191390
     24 H                     0.083533
     25 H                     0.086584
     26 H                     0.090059
     27 H                     0.077806
     28 H                     0.073491
     29 H                     0.078166
     30 H                     0.073631
     31 H                     0.085040
     32 O                    -0.215066
     33 C                    -0.129028
     34 C                     0.024874
     35 C                    -0.144195
     36 C                    -0.143284
     37 C                     0.024301
     38 O                    -0.189395
     39 H                     0.087519
     40 H                     0.084275
     41 H                     0.095047
     42 H                     0.084617
     43 H                     0.078579
     44 H                     0.073732
     45 H                     0.078497
     46 H                     0.073343
     47 H                     0.090970
     48 H                     0.092185
     49 H                     0.092391
     50 H                     0.092131
     51 H                     0.089119
     52 H                     0.094349
     53 H                     0.080067
     54 H                     0.098973
     55 H                     0.083194
     56 H                     0.101684
  ----------------------------------------
  Sum of atomic charges =    -0.000000

                    Cartesian Multipole Moments
 -----------------------------------------------------------------
    Charge (ESU x 10^10)
                -0.0000
    Dipole Moment (Debye)
         X      -0.8693      Y       0.6541      Z      -1.6909
       Tot       2.0106
    Quadrupole Moments (Debye-Ang)
        XX    -147.3118     XY     -13.9522     YY    -158.1192
        XZ      12.8460     YZ       2.3162     ZZ    -163.3565

 Total job time:  47.00s(wall), 2233.97s(cpu)
        *  Thank you very much for using Q-Chem.  Have a nice day.  *
