 Q-Chem 5.0, Q-Chem, Inc., Pleasanton, CA (2017)
 Q-Chem 5.0.1 for Intel X86 EM64T Linux

User input:
--------------------------------------------------------------
$molecule
0  1
O -2.1757192594 0.280743593 1.1309067211
C -2.9656815902 1.0780656755 0.5739039737
C -4.2472131895 0.7029268161 -0.2416562901
C -4.2219118359 -0.8026713299 -0.7381946788
C -2.8933164494 -1.5602192457 -0.3698826685
O -1.8861739926 -1.1226373744 -1.3009446377
C -0.5983406606 -1.7980212289 -1.0144099692
C 0.3002825716 -0.7739750782 -0.2404500102
O 1.6396522616 -1.371555822 -0.0357696645
C 2.4073705829 -0.5557536349 0.8676724846
C 3.9289368278 -0.8203018581 0.5807788944
C 4.485234544 -0.3952057888 -0.8396641638
C 3.6538472635 0.6384939116 -1.6822640143
O 3.9751461136 1.0760231984 -2.8091055374
O -2.821231161 2.4966556781 0.6102619137
O 2.5528189278 1.1528470281 -0.9286308419
O 1.9249180027 0.1948154938 1.7414856749
C 1.8799822386 2.2390731062 -1.6775786376
C 4.8978792487 -0.0268956175 1.5559009536
C 6.2273277296 -0.8637987605 1.686941123
C 6.8310306322 -0.6737085169 0.2455605442
C 5.8150968165 0.3597397148 -0.3863238644
O 5.3316772554 1.1521226403 0.7678488813
H 4.084044472 -1.909263376 0.6990891832
H 4.7002731984 -1.2718197235 -1.4767702261
H 4.4204474939 0.2920836932 2.5028607513
H 6.882400628 -0.4264989425 2.4574403772
H 6.0391140455 -1.9199986704 1.9373614311
H 7.8458495458 -0.2471049991 0.2799667952
H 6.863123832 -1.615314528 -0.3257776877
H 6.2415313841 1.0206746957 -1.1661393537
O -2.7493982744 -2.4943911723 0.4466864754
C -1.6163484233 2.8586712195 1.3967685006
C -5.5316492018 0.6787676585 0.6996456765
C -6.8183579821 0.6031191884 -0.2144659142
C -6.7838451802 -0.9041576034 -0.6676123473
C -5.4644882832 -1.4024707045 0.0405350123
O -5.4610697928 -0.65977006 1.3241021558
H -4.3659245965 1.4202990633 -1.0727858002
H -4.3546972932 -0.8536604741 -1.8337078574
H -0.7046955086 2.3735507681 0.9918156441
H -5.5485340888 1.4715441329 1.4730359882
H -7.7215681307 0.8295117432 0.3742843114
H -6.7655362088 1.3032683433 -1.0636326869
H -7.6572485335 -1.4592198318 -0.290157399
H -6.7368349529 -1.0181952685 -1.762299854
H -5.3963056878 -2.4915808138 0.2279131646
H -1.7239047023 2.5666463226 2.4612359862
H -1.522061345 3.9574196312 1.3210326602
H 1.1139855403 2.6491380885 -0.993806828
H 1.3912508385 1.8581188007 -2.5980055565
H 2.5943544542 3.0376889141 -1.9622139544
H 0.4020145069 0.1543674736 -0.8410752479
H -0.1947078536 -0.5077380351 0.720174208
H -0.1388028131 -2.0740629209 -1.9853475899
H -0.7793959852 -2.7059464184 -0.400270603
$end

$rem
JOBTYPE                   OPT
METHOD                    B3LYP
DFT_D                     d3_op
BASIS                     STO-3G
GEOM_OPT_MAX_CYCLES       100
GEOM_OPT_TOL_GRADIENT     300
GEOM_OPT_TOL_DISPLACEMENT 1200
GEOM_OPT_TOL_ENERGY       100
SYMMETRY                  False
THRESH                    12
SCF_CONVERGENCE           8
MAX_SUB_FILE_NUM          128
MEM_STATIC                400
MEM_TOTAL                 4000
$end
--------------------------------------------------------------

   16   -1510.2819428336      6.63E-09 Convergence criterion met
 Total energy in the final basis set = -1510.28194283
   14   -1510.2845502980      1.92E-09 Convergence criterion met
 Total energy in the final basis set = -1510.28455030
   14   -1510.2864452542      4.62E-09 Convergence criterion met
 Total energy in the final basis set = -1510.28644525
   14   -1510.2867592057      2.10E-09 Convergence criterion met
 Total energy in the final basis set = -1510.28675921
   13   -1510.2887913436      7.48E-09 Convergence criterion met
 Total energy in the final basis set = -1510.28879134
   14   -1510.2887550867      2.03E-09 Convergence criterion met
 Total energy in the final basis set = -1510.28875509
   13   -1510.2899611400      5.10E-09 Convergence criterion met
 Total energy in the final basis set = -1510.28996114
   14   -1510.2871513252      5.88E-09 Convergence criterion met
   12   -1510.2935656637      6.26E-09 Convergence criterion met
 Total energy in the final basis set = -1510.29356566
   13   -1510.2934972386      2.42E-09 Convergence criterion met
 Total energy in the final basis set = -1510.29349724
   12   -1510.2935703099      7.08E-09 Convergence criterion met
 Total energy in the final basis set = -1510.29357031
   13   -1510.2934967163      4.42E-09 Convergence criterion met
 Total energy in the final basis set = -1510.29349672
   13   -1510.2935766046      2.77E-09 Convergence criterion met
 Total energy in the final basis set = -1510.29357660
   10   -1510.2935761647      8.69E-09 Convergence criterion met
 Total energy in the final basis set = -1510.29357616

             Standard Nuclear Orientation (Angstroms)
    I     Atom           X                Y                Z
 ----------------------------------------------------------------
    1      O      -1.9970044996    -0.1901345530     1.1402876399
    2      C      -2.6996469683     0.7876292171     0.7839902204
    3      C      -4.0862256689     0.7160143226     0.0599343766
    4      C      -4.2390758474    -0.5563205446    -0.8778176640
    5      C      -2.9177596720    -1.3915377298    -1.0354870576
    6      O      -2.0366245544    -0.6297271570    -1.8801026184
    7      C      -0.6606625473    -1.1883580186    -1.8396446938
    8      C       0.1235909946    -0.3022563632    -0.8167918546
    9      O       1.4881474510    -0.8414385912    -0.6035583585
   10      C       2.1072677535    -0.1065697681     0.4564180726
   11      C       3.5419270144    -0.6929860704     0.6955216041
   12      C       4.4693299294    -0.6636128142    -0.5914274950
   13      C       3.7820359948    -0.0385411159    -1.8507307176
   14      O       3.7377844538    -0.5128258055    -3.0059669317
   15      O      -2.3464655299     2.1469921019     1.0048211226
   16      O       3.2104421172     1.2237326774    -1.4780930159
   17      O       1.5491413455     0.8098337046     1.1016081926
   18      C       2.5291121114     1.8342439788    -2.6415701527
   19      C       4.3689041332     0.2102984101     1.6972237755
   20      C       5.6009335043    -0.6275952387     2.2183350097
   21      C       6.5300447636    -0.6183388299     0.9475359587
   22      C       5.6672290907     0.2412816577    -0.0589054420
   23      O       4.9892516045     1.2256504057     0.8127691717
   24      H       3.4309542603    -1.7271542387     1.0706689288
   25      H       4.8144056947    -1.6754024902    -0.8671954859
   26      H       3.7482836705     0.7004402803     2.4723065568
   27      H       6.0797815928    -0.1226366049     3.0724212384
   28      H       5.3102181118    -1.6449192236     2.5256623862
   29      H       7.4903166774    -0.1186970909     1.1521964139
   30      H       6.7335442885    -1.6297695447     0.5609995976
   31      H       6.2429014847     0.7553385666    -0.8529778816
   32      O      -2.6676293190    -2.5318785826    -0.5929397905
   33      C      -1.0889052906     2.2410609253     1.7952828324
   34      C      -5.2360800690     0.4247114191     1.1226375534
   35      C      -6.6387010535     0.6353275932     0.4240846148
   36      C      -6.7579005453    -0.6817062497    -0.4304638671
   37      C      -5.3715355701    -1.3662881095    -0.1190053838
   38      O      -5.1442258314    -1.0394450298     1.3089245590
   39      H      -4.2559040028     1.6613514281    -0.4847754967
   40      H      -4.5669599821    -0.2461979919    -1.8866579508
   41      H      -0.2336650810     1.6904182950     1.3377093942
   42      H      -5.1081187018     0.9501728978     2.0891515092
   43      H      -7.4380192956     0.7033951471     1.1791288210
   44      H      -6.6590369842     1.5468350458    -0.1945314306
   45      H      -7.5870365014    -1.3162153183    -0.0790221937
   46      H      -6.8947924284    -0.4833142974    -1.5055577690
   47      H      -5.3249484124    -2.4615183799    -0.2748175608
   48      H      -1.2463389596     1.8546254501     2.8225300749
   49      H      -0.8539532181     3.3197407584     1.8447712090
   50      H       2.0016880759     2.7253702668    -2.2542448443
   51      H       1.8006859875     1.1355844152    -3.1005526807
   52      H       3.2555412784     2.1451349547    -3.4203798399
   53      H       0.1764328711     0.7419521356    -1.1930640748
   54      H      -0.4559878416    -0.2958723052     0.1380543886
   55      H      -0.2358790063    -1.1219901380    -2.8616554533
   56      H      -0.6905321962    -2.2473452554    -1.5050007438
 ----------------------------------------------------------------

    9   -1510.2935758172      5.92E-09 Convergence criterion met
 Total energy in the final basis set = -1510.29357582
 Final energy is   -1510.29357581724
 **  OPTIMIZATION CONVERGED  **

                    Orbital Energies (a.u.)
 --------------------------------------------------------------

 Alpha MOs
 -- Occupied --
-18.941 -18.934 -18.933 -18.924 -18.889 -18.887 -18.880 -18.877
-18.876 -18.874 -10.105 -10.103 -10.098 -10.098 -10.066 -10.064
-10.063 -10.061 -10.058 -10.057 -10.055 -10.051 -10.041 -10.038
-10.038 -10.037 -10.022 -10.021 -10.021 -10.019  -1.018  -1.016
 -1.007  -1.005  -0.971  -0.970  -0.940  -0.938  -0.935  -0.933
 -0.765  -0.763  -0.727  -0.723  -0.710  -0.706  -0.695  -0.661
 -0.659  -0.613  -0.598  -0.580  -0.547  -0.545  -0.538  -0.537
 -0.514  -0.510  -0.483  -0.477  -0.465  -0.460  -0.454  -0.444
 -0.436  -0.431  -0.428  -0.416  -0.413  -0.410  -0.407  -0.398
 -0.391  -0.379  -0.371  -0.368  -0.360  -0.358  -0.357  -0.350
 -0.345  -0.337  -0.334  -0.333  -0.331  -0.329  -0.324  -0.311
 -0.309  -0.306  -0.305  -0.299  -0.293  -0.292  -0.283  -0.278
 -0.269  -0.260  -0.251  -0.247  -0.244  -0.235  -0.234  -0.186
 -0.176  -0.173  -0.171  -0.159  -0.157  -0.152  -0.149  -0.145
 -0.143

          Ground-State Mulliken Net Atomic Charges

     Atom                 Charge (a.u.)
  ----------------------------------------
      1 O                    -0.215552
      2 C                     0.214927
      3 C                    -0.077839
      4 C                    -0.079247
      5 C                     0.214565
      6 O                    -0.180995
      7 C                    -0.053609
      8 C                    -0.064492
      9 O                    -0.175482
     10 C                     0.222382
     11 C                    -0.077967
     12 C                    -0.078918
     13 C                     0.211809
     14 O                    -0.212967
     15 O                    -0.166980
     16 O                    -0.168153
     17 O                    -0.216473
     18 C                    -0.128232
     19 C                     0.024655
     20 C                    -0.143869
     21 C                    -0.143802
     22 C                     0.025863
     23 O                    -0.186270
     24 H                     0.086404
     25 H                     0.086004
     26 H                     0.090319
     27 H                     0.078182
     28 H                     0.073725
     29 H                     0.078062
     30 H                     0.074144
     31 H                     0.082489
     32 O                    -0.206065
     33 C                    -0.141637
     34 C                     0.025796
     35 C                    -0.143972
     36 C                    -0.143543
     37 C                     0.024975
     38 O                    -0.186663
     39 H                     0.087814
     40 H                     0.085256
     41 H                     0.113670
     42 H                     0.083269
     43 H                     0.078637
     44 H                     0.074101
     45 H                     0.078688
     46 H                     0.073530
     47 H                     0.090194
     48 H                     0.084392
     49 H                     0.087705
     50 H                     0.091495
     51 H                     0.088929
     52 H                     0.087937
     53 H                     0.077400
     54 H                     0.107671
     55 H                     0.085877
     56 H                     0.101860
  ----------------------------------------
  Sum of atomic charges =     0.000000

                    Cartesian Multipole Moments
 -----------------------------------------------------------------
    Charge (ESU x 10^10)
                 0.0000
    Dipole Moment (Debye)
         X      -0.4043      Y       1.3743      Z      -0.6251
       Tot       1.5630
    Quadrupole Moments (Debye-Ang)
        XX    -140.4791     XY     -11.3188     YY    -164.1473
        XZ       9.2577     YZ      -2.1175     ZZ    -160.1128

 Total job time:  73.93s(wall), 3516.68s(cpu)
        *  Thank you very much for using Q-Chem.  Have a nice day.  *
