 Q-Chem 5.0, Q-Chem, Inc., Pleasanton, CA (2017)
 Q-Chem 5.0.1 for Intel X86 EM64T Linux

User input:
--------------------------------------------------------------
$molecule
0  1
O -3.94934 -3.66094 2.70899
C -3.26408 -4.56952 2.26188
C -3.36658 -6.02376 2.66595
C -4.04909 -6.33358 4.00835
C -4.71078 -5.17003 4.7129
O -3.76376 -4.39732 5.3224
C -4.31505 -3.27129 6.01333
C -4.13664 -2.00538 5.18161
O -4.59052 -0.86335 5.92501
C -4.68058 0.29236 5.22118
C -4.57738 1.52147 6.09255
C -3.22513 1.70374 6.79716
C -2.08389 0.86029 6.2653
O -0.93558 0.87615 6.68446
O -2.44489 -4.3076 1.20985
O -2.18245 0.365 5.001
O -4.80135 0.33717 4.00224
C -1.14492 -0.18329 4.26836
C -4.66501 2.86079 5.3263
C -5.12192 3.96674 6.27705
C -3.88954 4.1216 7.14499
C -2.92837 3.16642 6.42849
O -3.32805 3.22145 5.08029
H -5.42823 1.47287 6.80922
H -3.29067 1.51057 7.89021
H -5.33491 2.82366 4.43995
H -5.24158 4.88906 5.66413
H -6.06759 3.77032 6.82661
H -3.53642 5.1739 7.06857
H -4.02066 3.83798 8.21186
H -1.87219 3.44862 6.63505
O -5.92436 -5.00938 4.79729
C -2.25796 -3.05439 0.66509
C -4.23921 -6.82126 1.68641
C -3.89232 -8.30676 1.76989
C -4.50505 -8.66227 3.10727
C -5.12833 -7.31751 3.49594
O -5.51948 -6.76422 2.26252
H -2.32202 -6.40925 2.67519
H -3.39181 -6.84786 4.74515
H -1.84478 -2.36328 1.43053
H -4.15621 -6.46346 0.63652
H -4.45805 -8.83475 0.96927
H -2.80874 -8.5317 1.66805
H -5.3107 -9.41068 2.93487
H -3.7943 -9.0429 3.87221
H -5.94156 -7.48497 4.23626
H -3.22089 -2.65599 0.27998
H -1.53888 -3.12691 -0.17638
H -1.53031 -0.50757 3.28018
H -0.72558 -1.06596 4.7972
H -0.34691 0.57261 4.10871
H -3.0769 -1.90368 4.88922
H -4.77448 -2.12304 4.28255
H -3.74678 -3.15523 6.96046
H -5.38109 -3.37419 6.31774
$end

$opt
CONSTRAINT
tors           1           2           3           4     -19.741
tors           3           4           5           6     -77.400
tors           4           5           6           7    -180.000
tors           5           6           7           8    -101.480
tors           6           7           8           9    -175.254
tors           7           8           9          10    -170.064
tors           8           9          10          11    -155.507
tors           9          10          11          12     +64.490
tors          11          12          13          14    +179.176
ENDCONSTRAINT
$end

$rem
JOBTYPE                   OPT
METHOD                    B3LYP
DFT_D                     d3_op
BASIS                     STO-3G
GEOM_OPT_MAX_CYCLES       100
GEOM_OPT_TOL_GRADIENT     300
GEOM_OPT_TOL_DISPLACEMENT 1200
GEOM_OPT_TOL_ENERGY       100
SYMMETRY                  False
THRESH                    12
SCF_CONVERGENCE           8
MAX_SUB_FILE_NUM          128
MEM_STATIC                400
MEM_TOTAL                 4000
$end
--------------------------------------------------------------

   15   -1510.1486847625      8.83E-09 Convergence criterion met
 Total energy in the final basis set = -1510.14868476
   13   -1510.2195404695      6.35E-09 Convergence criterion met
 Total energy in the final basis set = -1510.21954047
   13   -1510.2576189615      7.12E-09 Convergence criterion met
 Total energy in the final basis set = -1510.25761896
   14   -1510.2741465060      2.05E-09 Convergence criterion met
 Total energy in the final basis set = -1510.27414651
   13   -1510.2788980774      7.54E-09 Convergence criterion met
 Total energy in the final basis set = -1510.27889808
    2   -1510.2788980774      6.87E-09 Convergence criterion met
 Total energy in the final basis set = -1510.27889808
   13   -1510.2800911210      7.64E-09 Convergence criterion met
 Total energy in the final basis set = -1510.28009112
   13   -1510.2811635624      2.74E-09 Convergence criterion met
   11   -1510.2818666382      5.68E-09 Convergence criterion met
 Total energy in the final basis set = -1510.28186664
   10   -1510.2818842857      5.19E-09 Convergence criterion met
 Total energy in the final basis set = -1510.28188429
    9   -1510.2818967355      7.38E-09 Convergence criterion met
 Total energy in the final basis set = -1510.28189674
    9   -1510.2819044743      7.06E-09 Convergence criterion met
 Total energy in the final basis set = -1510.28190447
    9   -1510.2819081206      5.95E-09 Convergence criterion met
 Total energy in the final basis set = -1510.28190812
    9   -1510.2819094035      4.67E-09 Convergence criterion met
 Total energy in the final basis set = -1510.28190940

             Standard Nuclear Orientation (Angstroms)
    I     Atom           X                Y                Z
 ----------------------------------------------------------------
    1      O      -2.1757192594     0.2807435930     1.1309067211
    2      C      -2.9656815902     1.0780656755     0.5739039737
    3      C      -4.2472131895     0.7029268161    -0.2416562901
    4      C      -4.2219118359    -0.8026713299    -0.7381946788
    5      C      -2.8933164494    -1.5602192457    -0.3698826685
    6      O      -1.8861739926    -1.1226373744    -1.3009446377
    7      C      -0.5983406606    -1.7980212289    -1.0144099692
    8      C       0.3002825716    -0.7739750782    -0.2404500102
    9      O       1.6396522616    -1.3715558220    -0.0357696645
   10      C       2.4073705829    -0.5557536349     0.8676724846
   11      C       3.9289368278    -0.8203018581     0.5807788944
   12      C       4.4852345440    -0.3952057888    -0.8396641638
   13      C       3.6538472635     0.6384939116    -1.6822640143
   14      O       3.9751461136     1.0760231984    -2.8091055374
   15      O      -2.8212311610     2.4966556781     0.6102619137
   16      O       2.5528189278     1.1528470281    -0.9286308419
   17      O       1.9249180027     0.1948154938     1.7414856749
   18      C       1.8799822386     2.2390731062    -1.6775786376
   19      C       4.8978792487    -0.0268956175     1.5559009536
   20      C       6.2273277296    -0.8637987605     1.6869411230
   21      C       6.8310306322    -0.6737085169     0.2455605442
   22      C       5.8150968165     0.3597397148    -0.3863238644
   23      O       5.3316772554     1.1521226403     0.7678488813
   24      H       4.0840444720    -1.9092633760     0.6990891832
   25      H       4.7002731984    -1.2718197235    -1.4767702261
   26      H       4.4204474939     0.2920836932     2.5028607513
   27      H       6.8824006280    -0.4264989425     2.4574403772
   28      H       6.0391140455    -1.9199986704     1.9373614311
   29      H       7.8458495458    -0.2471049991     0.2799667952
   30      H       6.8631238320    -1.6153145280    -0.3257776877
   31      H       6.2415313841     1.0206746957    -1.1661393537
   32      O      -2.7493982744    -2.4943911723     0.4466864754
   33      C      -1.6163484233     2.8586712195     1.3967685006
   34      C      -5.5316492018     0.6787676585     0.6996456765
   35      C      -6.8183579821     0.6031191884    -0.2144659142
   36      C      -6.7838451802    -0.9041576034    -0.6676123473
   37      C      -5.4644882832    -1.4024707045     0.0405350123
   38      O      -5.4610697928    -0.6597700600     1.3241021558
   39      H      -4.3659245965     1.4202990633    -1.0727858002
   40      H      -4.3546972932    -0.8536604741    -1.8337078574
   41      H      -0.7046955086     2.3735507681     0.9918156441
   42      H      -5.5485340888     1.4715441329     1.4730359882
   43      H      -7.7215681307     0.8295117432     0.3742843114
   44      H      -6.7655362088     1.3032683433    -1.0636326869
   45      H      -7.6572485335    -1.4592198318    -0.2901573990
   46      H      -6.7368349529    -1.0181952685    -1.7622998540
   47      H      -5.3963056878    -2.4915808138     0.2279131646
   48      H      -1.7239047023     2.5666463226     2.4612359862
   49      H      -1.5220613450     3.9574196312     1.3210326602
   50      H       1.1139855403     2.6491380885    -0.9938068280
   51      H       1.3912508385     1.8581188007    -2.5980055565
   52      H       2.5943544542     3.0376889141    -1.9622139544
   53      H       0.4020145069     0.1543674736    -0.8410752479
   54      H      -0.1947078536    -0.5077380351     0.7201742080
   55      H      -0.1388028131    -2.0740629209    -1.9853475899
   56      H      -0.7793959852    -2.7059464184    -0.4002706030
 ----------------------------------------------------------------

    9   -1510.2819101086      3.09E-09 Convergence criterion met
 Total energy in the final basis set = -1510.28191011
 Final energy is   -1510.28191010861
 **  OPTIMIZATION CONVERGED  **

                    Orbital Energies (a.u.)
 --------------------------------------------------------------

 Alpha MOs
 -- Occupied --
-18.946 -18.943 -18.920 -18.915 -18.889 -18.887 -18.885 -18.875
-18.868 -18.867 -10.108 -10.103 -10.095 -10.094 -10.070 -10.069
-10.064 -10.061 -10.059 -10.058 -10.055 -10.055 -10.042 -10.040
-10.036 -10.032 -10.022 -10.021 -10.020 -10.018  -1.022  -1.017
 -1.003  -0.997  -0.972  -0.969  -0.945  -0.939  -0.931  -0.925
 -0.765  -0.761  -0.726  -0.723  -0.711  -0.704  -0.691  -0.668
 -0.667  -0.612  -0.597  -0.577  -0.546  -0.542  -0.538  -0.536
 -0.513  -0.510  -0.486  -0.477  -0.464  -0.456  -0.454  -0.444
 -0.436  -0.432  -0.424  -0.418  -0.418  -0.413  -0.410  -0.394
 -0.392  -0.380  -0.377  -0.366  -0.363  -0.358  -0.352  -0.346
 -0.342  -0.340  -0.336  -0.331  -0.329  -0.326  -0.321  -0.313
 -0.308  -0.307  -0.305  -0.302  -0.298  -0.291  -0.279  -0.274
 -0.269  -0.261  -0.250  -0.243  -0.237  -0.235  -0.233  -0.187
 -0.182  -0.168  -0.163  -0.161  -0.156  -0.149  -0.146  -0.143
 -0.143

          Ground-State Mulliken Net Atomic Charges

     Atom                 Charge (a.u.)
  ----------------------------------------
      1 O                    -0.207412
      2 C                     0.215122
      3 C                    -0.078295
      4 C                    -0.080280
      5 C                     0.216370
      6 O                    -0.182459
      7 C                    -0.053069
      8 C                    -0.055109
      9 O                    -0.183471
     10 C                     0.220798
     11 C                    -0.080799
     12 C                    -0.076230
     13 C                     0.211971
     14 O                    -0.215700
     15 O                    -0.167417
     16 O                    -0.167058
     17 O                    -0.212328
     18 C                    -0.126697
     19 C                     0.023300
     20 C                    -0.142518
     21 C                    -0.144969
     22 C                     0.024405
     23 O                    -0.191831
     24 H                     0.083240
     25 H                     0.086955
     26 H                     0.090547
     27 H                     0.077775
     28 H                     0.073603
     29 H                     0.078302
     30 H                     0.073762
     31 H                     0.084873
     32 O                    -0.213170
     33 C                    -0.128891
     34 C                     0.025657
     35 C                    -0.143602
     36 C                    -0.143947
     37 C                     0.025034
     38 O                    -0.187335
     39 H                     0.087085
     40 H                     0.084887
     41 H                     0.093353
     42 H                     0.083864
     43 H                     0.078701
     44 H                     0.073827
     45 H                     0.078727
     46 H                     0.073498
     47 H                     0.090367
     48 H                     0.093639
     49 H                     0.092144
     50 H                     0.090841
     51 H                     0.089040
     52 H                     0.094563
     53 H                     0.078128
     54 H                     0.103769
     55 H                     0.083859
     56 H                     0.100581
  ----------------------------------------
  Sum of atomic charges =    -0.000000

                    Cartesian Multipole Moments
 -----------------------------------------------------------------
    Charge (ESU x 10^10)
                -0.0000
    Dipole Moment (Debye)
         X      -0.7073      Y       0.9800      Z      -1.9829
       Tot       2.3222
    Quadrupole Moments (Debye-Ang)
        XX    -143.7932     XY     -13.5593     YY    -157.4497
        XZ      10.6673     YZ       3.9528     ZZ    -165.7138

 Total job time:  52.53s(wall), 2499.29s(cpu)
        *  Thank you very much for using Q-Chem.  Have a nice day.  *
