 Q-Chem 5.0, Q-Chem, Inc., Pleasanton, CA (2017)
 Q-Chem 5.0.1 for Intel X86 EM64T Linux

User input:
--------------------------------------------------------------
$molecule
0  1
O -3.94934 -3.66094 2.70899
C -3.26408 -4.56952 2.26188
C -3.36658 -6.02376 2.66595
C -4.22157 -6.35123 3.90111
C -5.02212 -5.21032 4.48892
O -4.25917 -4.52422 5.39037
C -4.9074 -3.35507 5.90236
C -4.36862 -2.10865 5.20789
O -4.63539 -0.94752 6.01009
C -4.29594 0.23947 5.44888
C -4.37922 1.39405 6.41876
C -3.48259 1.26385 7.65867
C -2.39573 0.21061 7.58052
O -1.53564 0.01545 8.42712
O -2.4047 -4.29729 1.24507
O -2.09964 -0.39188 6.39638
O -3.90751 0.35959 4.2923
C -1.01343 -1.21796 6.16322
C -3.88455 2.74695 5.86311
C -4.52111 3.88962 6.65347
C -3.8002 3.75428 7.97974
C -2.80223 2.64215 7.63818
O -2.53913 2.8254 6.26716
H -5.45365 1.49055 6.69479
H -4.06999 1.05348 8.5791
H -4.08098 2.88157 4.77732
H -4.19542 4.83803 6.16865
H -5.63064 3.87353 6.71278
H -3.27183 4.71041 8.19092
H -4.44144 3.47248 8.84299
H -1.92005 2.68957 8.31425
O -6.22376 -5.04 4.30867
C -2.2052 -3.04042 0.71343
C -4.05279 -6.8627 1.57912
C -3.67259 -8.33416 1.73741
C -4.47611 -8.69901 2.96639
C -5.18554 -7.36943 3.24183
O -5.40528 -6.84087 1.95633
H -2.31876 -6.36034 2.83321
H -3.67488 -6.85998 4.72713
H -1.82892 -2.34892 1.49765
H -3.82468 -6.51419 0.54787
H -4.08331 -8.89325 0.86654
H -2.57865 -8.51512 1.81301
H -5.23026 -9.46465 2.67631
H -3.88452 -9.06389 3.83353
H -6.09549 -7.555 3.85456
H -3.15499 -2.64809 0.29108
H -1.45242 -3.10414 -0.09879
H -1.01741 -1.5417 5.10244
H -1.06969 -2.11601 6.81487
H -0.06636 -0.67003 6.35539
H -3.27546 -2.21647 5.07288
H -4.85945 -2.02066 4.2159
H -4.60346 -3.2985 6.96951
H -6.02042 -3.36538 5.91438
$end

$opt
CONSTRAINT
tors           1           2           3           4     -11.192
tors           3           4           5           6     -87.354
tors           4           5           6           7    +174.707
tors           5           6           7           8    -101.480
tors           6           7           8           9    -159.504
tors           7           8           9          10    -175.047
tors           8           9          10          11    -170.248
tors           9          10          11          12     +59.297
tors          11          12          13          14    +175.172
ENDCONSTRAINT
$end

$rem
JOBTYPE                   OPT
METHOD                    B3LYP
DFT_D                     d3_op
BASIS                     STO-3G
GEOM_OPT_MAX_CYCLES       100
GEOM_OPT_TOL_GRADIENT     300
GEOM_OPT_TOL_DISPLACEMENT 1200
GEOM_OPT_TOL_ENERGY       100
SYMMETRY                  False
THRESH                    12
SCF_CONVERGENCE           8
MAX_SUB_FILE_NUM          128
MEM_STATIC                400
MEM_TOTAL                 4000
$end
--------------------------------------------------------------

   15   -1510.1494992305      6.71E-09 Convergence criterion met
 Total energy in the final basis set = -1510.14949923
   13   -1510.2211911262      7.84E-09 Convergence criterion met
 Total energy in the final basis set = -1510.22119113
   13   -1510.2598851323      7.32E-09 Convergence criterion met
 Total energy in the final basis set = -1510.25988513
   13   -1510.2765723614      7.46E-09 Convergence criterion met
 Total energy in the final basis set = -1510.27657236
   13   -1510.2811691440      7.24E-09 Convergence criterion met
 Total energy in the final basis set = -1510.28116914
   13   -1510.2813395961      5.44E-09 Convergence criterion met
 Total energy in the final basis set = -1510.28133960
   13   -1510.2825796845      2.69E-09 Convergence criterion met
 Total energy in the final basis set = -1510.28257968
   12   -1510.2826864934      8.76E-09 Convergence criterion met
    9   -1510.2830407406      6.58E-09 Convergence criterion met
 Total energy in the final basis set = -1510.28304074
    9   -1510.2830485444      7.26E-09 Convergence criterion met
 Total energy in the final basis set = -1510.28304854
    9   -1510.2830542527      8.40E-09 Convergence criterion met
 Total energy in the final basis set = -1510.28305425
    9   -1510.2830559550      6.11E-09 Convergence criterion met
 Total energy in the final basis set = -1510.28305596
    9   -1510.2830574295      6.93E-09 Convergence criterion met
 Total energy in the final basis set = -1510.28305743
    9   -1510.2830604120      6.49E-09 Convergence criterion met
 Total energy in the final basis set = -1510.28306041

             Standard Nuclear Orientation (Angstroms)
    I     Atom           X                Y                Z
 ----------------------------------------------------------------
    1      O      -2.2454597009     0.8422190130     0.9698219495
    2      C      -3.0841240497     1.3111586884     0.1665086297
    3      C      -4.2536560964     0.5390437186    -0.5282038409
    4      C      -4.1467324607    -1.0315677093    -0.3462369413
    5      C      -2.9021826001    -1.4921385875     0.5018453547
    6      O      -1.8003742796    -1.6358499043    -0.4151710377
    7      C      -0.5528267671    -1.9456044974     0.3217400189
    8      C       0.2885347683    -0.6258762450     0.4240285933
    9      O       1.6997541779    -0.9904795066     0.6905673985
   10      C       2.4665762867     0.2043202852     0.9030055387
   11      C       3.9854741526    -0.1888923994     0.9318764779
   12      C       4.5698484613    -0.8886197193    -0.3627655562
   13      C       3.7759715107    -0.7045253126    -1.7097988681
   14      O       4.1482933422    -1.1184901798    -2.8299168124
   15      O      -3.1060730856     2.6734451350    -0.2550914728
   16      O       2.6479510846     0.1546282381    -1.5307892060
   17      O       1.9784228529     1.3401736941     1.0824127267
   18      C       1.9744836371     0.4040250097    -2.8246241574
   19      C       4.9547694229     1.0574747662     1.0862261946
   20      C       6.2593710102     0.5523147069     1.8128349074
   21      C       6.8926299766    -0.3396298096     0.6794473946
   22      C       5.9154339555    -0.0511031165    -0.5297862101
   23      O       5.4344665851     1.3300220559    -0.2896487409
   24      H       4.1189033441    -0.8749136996     1.7889499651
   25      H       4.7563339094    -1.9662571378    -0.2058123227
   26      H       4.4670213445     1.9550234592     1.5143935023
   27      H       6.9121174936     1.4030664694     2.0665094826
   28      H       6.0390776996    -0.0141215164     2.7317685699
   29      H       7.9176794594    -0.0210545287     0.4326014112
   30      H       6.9104634740    -1.4093387778     0.9432661806
   31      H       6.3715507133    -0.1379423842    -1.5354413545
   32      O      -2.8814439288    -1.8492353438     1.6986433035
   33      C      -2.0095535015     3.4229387347     0.4059760004
   34      C      -5.6500484934     0.8302969495     0.1793606740
   35      C      -6.8005474152     0.3363942746    -0.7833290880
   36      C      -6.6962066981    -1.2238018592    -0.6049179720
   37      C      -5.5010115905    -1.3351069428     0.4205645767
   38      O      -5.6766388043    -0.1463449024     1.2896250398
   39      H      -4.2805383652     0.8309619825    -1.5933201800
   40      H      -4.0987405985    -1.5368581681    -1.3271476363
   41      H      -1.0237567617     2.9477476665     0.2252774823
   42      H      -5.7620968970     1.8640379656     0.5604372730
   43      H      -7.7762440987     0.7192267382    -0.4438975794
   44      H      -6.6376782026     0.6592103567    -1.8241505724
   45      H      -7.6173932717    -1.6431271231    -0.1701758410
   46      H      -6.4816406177    -1.7465011432    -1.5508080606
   47      H      -5.4777668832    -2.2570015013     1.0330625105
   48      H      -2.1707355665     3.4924220071     1.5011512756
   49      H      -2.0243105310     4.4361564207    -0.0355984729
   50      H       1.2078567517     1.1749317107    -2.6238398979
   51      H       1.4853034879    -0.5143438905    -3.2098429583
   52      H       2.6873801648     0.7730251815    -3.5895217654
   53      H       0.2206269829    -0.0807248146    -0.5428500235
   54      H      -0.1299064640     0.0362410770     1.2121357980
   55      H       0.0023251524    -2.7061879651    -0.2653709246
   56      H      -0.7997167202    -2.3447154278     1.3281217646
 ----------------------------------------------------------------

    9   -1510.2830613023      2.93E-09 Convergence criterion met
 Total energy in the final basis set = -1510.28306130
 Final energy is   -1510.28306130231
 **  OPTIMIZATION CONVERGED  **

                    Orbital Energies (a.u.)
 --------------------------------------------------------------

 Alpha MOs
 -- Occupied --
-18.945 -18.941 -18.919 -18.919 -18.889 -18.888 -18.884 -18.873
-18.865 -18.864 -10.108 -10.101 -10.095 -10.093 -10.068 -10.068
-10.063 -10.061 -10.059 -10.059 -10.057 -10.055 -10.042 -10.039
-10.035 -10.033 -10.022 -10.021 -10.020 -10.018  -1.022  -1.016
 -1.002  -0.998  -0.971  -0.968  -0.945  -0.937  -0.930  -0.925
 -0.765  -0.761  -0.726  -0.722  -0.711  -0.703  -0.690  -0.667
 -0.664  -0.612  -0.597  -0.576  -0.546  -0.542  -0.537  -0.535
 -0.513  -0.509  -0.484  -0.477  -0.464  -0.457  -0.454  -0.444
 -0.435  -0.431  -0.422  -0.416  -0.415  -0.412  -0.409  -0.393
 -0.390  -0.380  -0.378  -0.369  -0.361  -0.357  -0.353  -0.344
 -0.341  -0.337  -0.336  -0.331  -0.329  -0.326  -0.319  -0.313
 -0.307  -0.306  -0.306  -0.302  -0.298  -0.291  -0.278  -0.275
 -0.268  -0.260  -0.246  -0.242  -0.241  -0.236  -0.233  -0.187
 -0.181  -0.167  -0.164  -0.160  -0.155  -0.147  -0.146  -0.143
 -0.143

          Ground-State Mulliken Net Atomic Charges

     Atom                 Charge (a.u.)
  ----------------------------------------
      1 O                    -0.207979
      2 C                     0.214565
      3 C                    -0.078649
      4 C                    -0.080859
      5 C                     0.216322
      6 O                    -0.181506
      7 C                    -0.052756
      8 C                    -0.051408
      9 O                    -0.179569
     10 C                     0.220815
     11 C                    -0.081122
     12 C                    -0.075766
     13 C                     0.213056
     14 O                    -0.216442
     15 O                    -0.168022
     16 O                    -0.166233
     17 O                    -0.219386
     18 C                    -0.126167
     19 C                     0.023282
     20 C                    -0.142379
     21 C                    -0.145134
     22 C                     0.024131
     23 O                    -0.192377
     24 H                     0.082909
     25 H                     0.086742
     26 H                     0.090475
     27 H                     0.077689
     28 H                     0.073271
     29 H                     0.078276
     30 H                     0.073652
     31 H                     0.085509
     32 O                    -0.214310
     33 C                    -0.129331
     34 C                     0.025545
     35 C                    -0.143388
     36 C                    -0.144220
     37 C                     0.025425
     38 O                    -0.187234
     39 H                     0.086802
     40 H                     0.084884
     41 H                     0.096717
     42 H                     0.084909
     43 H                     0.078638
     44 H                     0.073774
     45 H                     0.078587
     46 H                     0.073520
     47 H                     0.088797
     48 H                     0.091768
     49 H                     0.092545
     50 H                     0.091683
     51 H                     0.088773
     52 H                     0.094582
     53 H                     0.080565
     54 H                     0.101056
     55 H                     0.085237
     56 H                     0.099737
  ----------------------------------------
  Sum of atomic charges =    -0.000000

                    Cartesian Multipole Moments
 -----------------------------------------------------------------
    Charge (ESU x 10^10)
                 0.0000
    Dipole Moment (Debye)
         X      -0.6807      Y       0.1492      Z      -1.6023
       Tot       1.7472
    Quadrupole Moments (Debye-Ang)
        XX    -147.7277     XY      -6.3512     YY    -157.2154
        XZ      19.1538     YZ       0.0410     ZZ    -164.2791

 Total job time:  53.18s(wall), 2528.44s(cpu)
        *  Thank you very much for using Q-Chem.  Have a nice day.  *
