 Q-Chem 5.0, Q-Chem, Inc., Pleasanton, CA (2017)
 Q-Chem 5.0.1 for Intel X86 EM64T Linux

User input:
--------------------------------------------------------------
$molecule
0  1
O -2.2454597009 0.842219013 0.9698219495
C -3.0841240497 1.3111586884 0.1665086297
C -4.2536560964 0.5390437186 -0.5282038409
C -4.1467324607 -1.0315677093 -0.3462369413
C -2.9021826001 -1.4921385875 0.5018453547
O -1.8003742796 -1.6358499043 -0.4151710377
C -0.5528267671 -1.9456044974 0.3217400189
C 0.2885347683 -0.625876245 0.4240285933
O 1.6997541779 -0.9904795066 0.6905673985
C 2.4665762867 0.2043202852 0.9030055387
C 3.9854741526 -0.1888923994 0.9318764779
C 4.5698484613 -0.8886197193 -0.3627655562
C 3.7759715107 -0.7045253126 -1.7097988681
O 4.1482933422 -1.1184901798 -2.8299168124
O -3.1060730856 2.673445135 -0.2550914728
O 2.6479510846 0.1546282381 -1.530789206
O 1.9784228529 1.3401736941 1.0824127267
C 1.9744836371 0.4040250097 -2.8246241574
C 4.9547694229 1.0574747662 1.0862261946
C 6.2593710102 0.5523147069 1.8128349074
C 6.8926299766 -0.3396298096 0.6794473946
C 5.9154339555 -0.0511031165 -0.5297862101
O 5.4344665851 1.3300220559 -0.2896487409
H 4.1189033441 -0.8749136996 1.7889499651
H 4.7563339094 -1.9662571378 -0.2058123227
H 4.4670213445 1.9550234592 1.5143935023
H 6.9121174936 1.4030664694 2.0665094826
H 6.0390776996 -0.0141215164 2.7317685699
H 7.9176794594 -0.0210545287 0.4326014112
H 6.910463474 -1.4093387778 0.9432661806
H 6.3715507133 -0.1379423842 -1.5354413545
O -2.8814439288 -1.8492353438 1.6986433035
C -2.0095535015 3.4229387347 0.4059760004
C -5.6500484934 0.8302969495 0.179360674
C -6.8005474152 0.3363942746 -0.783329088
C -6.6962066981 -1.2238018592 -0.604917972
C -5.5010115905 -1.3351069428 0.4205645767
O -5.6766388043 -0.1463449024 1.2896250398
H -4.2805383652 0.8309619825 -1.59332018
H -4.0987405985 -1.5368581681 -1.3271476363
H -1.0237567617 2.9477476665 0.2252774823
H -5.762096897 1.8640379656 0.560437273
H -7.7762440987 0.7192267382 -0.4438975794
H -6.6376782026 0.6592103567 -1.8241505724
H -7.6173932717 -1.6431271231 -0.170175841
H -6.4816406177 -1.7465011432 -1.5508080606
H -5.4777668832 -2.2570015013 1.0330625105
H -2.1707355665 3.4924220071 1.5011512756
H -2.024310531 4.4361564207 -0.0355984729
H 1.2078567517 1.1749317107 -2.6238398979
H 1.4853034879 -0.5143438905 -3.2098429583
H 2.6873801648 0.7730251815 -3.5895217654
H 0.2206269829 -0.0807248146 -0.5428500235
H -0.129906464 0.036241077 1.212135798
H 0.0023251524 -2.7061879651 -0.2653709246
H -0.7997167202 -2.3447154278 1.3281217646
$end

$rem
JOBTYPE                   OPT
METHOD                    B3LYP
DFT_D                     d3_op
BASIS                     STO-3G
GEOM_OPT_MAX_CYCLES       100
GEOM_OPT_TOL_GRADIENT     300
GEOM_OPT_TOL_DISPLACEMENT 1200
GEOM_OPT_TOL_ENERGY       100
SYMMETRY                  False
THRESH                    12
SCF_CONVERGENCE           8
MAX_SUB_FILE_NUM          128
MEM_STATIC                400
MEM_TOTAL                 4000
$end
--------------------------------------------------------------

   16   -1510.2831170430      6.93E-09 Convergence criterion met
 Total energy in the final basis set = -1510.28311704
   14   -1510.2844152260      1.69E-09 Convergence criterion met
 Total energy in the final basis set = -1510.28441523
   14   -1510.2852186116      2.34E-09 Convergence criterion met
 Total energy in the final basis set = -1510.28521861
   13   -1510.2860305450      3.29E-09 Convergence criterion met
 Total energy in the final basis set = -1510.28603055
   13   -1510.2871730546      3.34E-09 Convergence criterion met
 Total energy in the final basis set = -1510.28717305
   13   -1510.2881746686      2.69E-09 Convergence criterion met
 Total energy in the final basis set = -1510.28817467
   13   -1510.2891451203      3.52E-09 Convergence criterion met
 Total energy in the final basis set = -1510.28914512
   13   -1510.2901489832      3.68E-09 Convergence criterion met
   11   -1510.2936711841      7.97E-09 Convergence criterion met
 Total energy in the final basis set = -1510.29367118
   13   -1510.2936840535      2.26E-09 Convergence criterion met
 Total energy in the final basis set = -1510.29368405
   12   -1510.2937225953      6.06E-09 Convergence criterion met
 Total energy in the final basis set = -1510.29372260
   11   -1510.2937228172      9.62E-09 Convergence criterion met
 Total energy in the final basis set = -1510.29372282
   11   -1510.2937284156      7.95E-09 Convergence criterion met
 Total energy in the final basis set = -1510.29372842
   11   -1510.2937276636      3.03E-09 Convergence criterion met
 Total energy in the final basis set = -1510.29372766

             Standard Nuclear Orientation (Angstroms)
    I     Atom           X                Y                Z
 ----------------------------------------------------------------
    1      O      -2.2090142791     0.7531302848     1.1514377306
    2      C      -2.7463961216     1.1177699539     0.0775519310
    3      C      -4.0252786504     0.4964663304    -0.5801947622
    4      C      -4.1609904695    -1.0690983801    -0.3434636036
    5      C      -2.9143849743    -1.7074863085     0.3659984866
    6      O      -1.8613073078    -1.7562969146    -0.6126857514
    7      C      -0.5523110114    -2.0276269237     0.0324216553
    8      C       0.1381448184    -0.6309825890     0.1748999764
    9      O       1.5217595622    -0.7904253991     0.6814574005
   10      C       2.1722245438     0.4825204185     0.6513575838
   11      C       3.6644256958     0.2920141826     1.0916875569
   12      C       4.4355827764    -0.8143348479     0.2559962721
   13      C       3.5687892882    -1.4791086760    -0.8673265906
   14      O       3.3975796403    -2.6995754676    -1.0734856909
   15      O      -2.2827408233     2.1987438275    -0.7232593942
   16      O       3.0138864543    -0.4391971005    -1.6865963251
   17      O       1.6091567274     1.5575937578     0.3426495088
   18      C       2.2153290219    -1.0282715077    -2.7846781621
   19      C       4.5199310521     1.5836879768     0.7652426181
   20      C       5.8625671234     1.5103377341     1.5902964284
   21      C       6.6426666612     0.3977238479     0.7945408404
   22      C       5.6130471002     0.0632584485    -0.3574829704
   23      O       4.9602694546     1.3618011397    -0.6322809022
   24      H       3.6816803957     0.0501553145     2.1704658185
   25      H       4.8193543374    -1.6210197306     0.9044437900
   26      H       3.9473053186     2.5282496800     0.8447481056
   27      H       6.3904253787     2.4765655097     1.5555151357
   28      H       5.6895968784     1.2387863241     2.6439563938
   29      H       7.5810303984     0.7873710858     0.3687406801
   30      H       6.8755708358    -0.4843493389     1.4125354519
   31      H       6.0602748354    -0.3502498180    -1.2823239346
   32      O      -2.8281132400    -2.1546836939     1.5281294782
   33      C      -1.1294539893     2.8779249584    -0.0737068103
   34      C      -5.3337332951     1.0110084113     0.1681883519
   35      C      -6.5973222013     0.6169741565    -0.6962768916
   36      C      -6.7165521116    -0.9211171703    -0.3827069684
   37      C      -5.4651914886    -1.1342397318     0.5544898284
   38      O      -5.4138214087     0.1186728170     1.3450727918
   39      H      -4.0361603000     0.7587047703    -1.6525163110
   40      H      -4.3054811893    -1.5867448483    -1.3091682973
   41      H      -0.2160228451     2.2387446488    -0.0212895300
   42      H      -5.2927461050     2.0715312302     0.4845637167
   43      H      -7.4855751753     1.1711174391    -0.3538178103
   44      H      -6.4440100174     0.8220126504    -1.7679889070
   45      H      -7.6473978918    -1.1508193877     0.1600784847
   46      H      -6.6716680930    -1.5464588372    -1.2886494691
   47      H      -5.5090095297    -2.0122095355     1.2276092095
   48      H      -1.3923333274     3.2067592167     0.9516850301
   49      H      -0.9211314130     3.7639541962    -0.7006450923
   50      H       1.7344442637    -0.1782186777    -3.3028244866
   51      H       1.4382200002    -1.7212670934    -2.4037051415
   52      H       2.8566207315    -1.5820035442    -3.5008409031
   53      H       0.1546799072    -0.1356018707    -0.8196783194
   54      H      -0.4834967083     0.0007837596     0.8537435821
   55      H       0.0251617816    -2.7017415153    -0.6329012185
   56      H      -0.7043183118    -2.5060483624     1.0230536106
 ----------------------------------------------------------------

    9   -1510.2937279776      4.29E-09 Convergence criterion met
 Total energy in the final basis set = -1510.29372798
 Final energy is   -1510.29372797758
 **  OPTIMIZATION CONVERGED  **

                    Orbital Energies (a.u.)
 --------------------------------------------------------------

 Alpha MOs
 -- Occupied --
-18.939 -18.938 -18.933 -18.926 -18.889 -18.888 -18.882 -18.878
-18.878 -18.873 -10.107 -10.103 -10.099 -10.099 -10.068 -10.064
-10.062 -10.062 -10.059 -10.059 -10.058 -10.049 -10.040 -10.040
-10.038 -10.038 -10.022 -10.021 -10.020 -10.020  -1.019  -1.015
 -1.007  -1.006  -0.971  -0.971  -0.942  -0.938  -0.935  -0.935
 -0.766  -0.764  -0.728  -0.724  -0.711  -0.707  -0.696  -0.661
 -0.658  -0.614  -0.598  -0.581  -0.547  -0.545  -0.538  -0.538
 -0.515  -0.510  -0.484  -0.478  -0.466  -0.461  -0.454  -0.443
 -0.437  -0.432  -0.428  -0.416  -0.412  -0.410  -0.407  -0.400
 -0.391  -0.382  -0.371  -0.369  -0.361  -0.358  -0.356  -0.351
 -0.346  -0.337  -0.335  -0.333  -0.332  -0.329  -0.325  -0.311
 -0.310  -0.307  -0.305  -0.300  -0.294  -0.293  -0.283  -0.278
 -0.271  -0.260  -0.251  -0.248  -0.247  -0.235  -0.235  -0.186
 -0.176  -0.175  -0.173  -0.160  -0.158  -0.152  -0.150  -0.145
 -0.144

          Ground-State Mulliken Net Atomic Charges

     Atom                 Charge (a.u.)
  ----------------------------------------
      1 O                    -0.217010
      2 C                     0.212325
      3 C                    -0.078023
      4 C                    -0.079140
      5 C                     0.214766
      6 O                    -0.181066
      7 C                    -0.053086
      8 C                    -0.062282
      9 O                    -0.173522
     10 C                     0.222361
     11 C                    -0.078014
     12 C                    -0.078779
     13 C                     0.211817
     14 O                    -0.214200
     15 O                    -0.167862
     16 O                    -0.169531
     17 O                    -0.214748
     18 C                    -0.128542
     19 C                     0.024683
     20 C                    -0.143911
     21 C                    -0.143898
     22 C                     0.026035
     23 O                    -0.186083
     24 H                     0.086619
     25 H                     0.086046
     26 H                     0.090408
     27 H                     0.078404
     28 H                     0.073640
     29 H                     0.078178
     30 H                     0.074117
     31 H                     0.082580
     32 O                    -0.204654
     33 C                    -0.142739
     34 C                     0.025752
     35 C                    -0.143927
     36 C                    -0.143619
     37 C                     0.025010
     38 O                    -0.186258
     39 H                     0.087489
     40 H                     0.085319
     41 H                     0.111212
     42 H                     0.083212
     43 H                     0.078583
     44 H                     0.074017
     45 H                     0.078562
     46 H                     0.073396
     47 H                     0.089817
     48 H                     0.085068
     49 H                     0.087250
     50 H                     0.091690
     51 H                     0.087705
     52 H                     0.087527
     53 H                     0.082031
     54 H                     0.105899
     55 H                     0.087202
     56 H                     0.102178
  ----------------------------------------
  Sum of atomic charges =     0.000000

                    Cartesian Multipole Moments
 -----------------------------------------------------------------
    Charge (ESU x 10^10)
                 0.0000
    Dipole Moment (Debye)
         X       0.2588      Y       0.5709      Z      -1.5959
       Tot       1.7146
    Quadrupole Moments (Debye-Ang)
        XX    -141.4809     XY      -0.4694     YY    -163.9442
        XZ      16.7318     YZ       4.6645     ZZ    -160.8172

 Total job time:  104.51s(wall), 4978.86s(cpu)
        *  Thank you very much for using Q-Chem.  Have a nice day.  *
