 Q-Chem 5.0, Q-Chem, Inc., Pleasanton, CA (2017)
 Q-Chem 5.0.1 for Intel X86 EM64T Linux

User input:
--------------------------------------------------------------
$molecule
0  1
O -2.2143244232 0.3571036725 1.1018506149
C -3.0652006615 1.1268222766 0.5997695144
C -4.3019591929 0.7129035215 -0.2647951102
C -4.2426273736 -0.807697259 -0.702265418
C -2.8999124672 -1.5375014496 -0.3247640493
O -1.9069289969 -1.1198465745 -1.2813218056
C -0.6003971901 -1.7448226101 -0.9698071437
C 0.2700661781 -0.7169138413 -0.1676264745
O 1.6606563984 -1.2267731461 -0.1316170645
C 2.4366177178 -0.458845375 0.8013556795
C 3.9482276126 -0.8200184068 0.5765559771
C 4.5699616124 -0.4582208273 -0.834981915
C 3.7953145982 0.5724006963 -1.7347582112
O 4.1621302365 0.9681774973 -2.8631876969
O -3.0497184047 2.5442107815 0.7563079165
O 2.684155216 1.1337299936 -1.0322785345
O 1.9635468622 0.3062217394 1.6677713241
C 2.0261496463 2.1763671828 -1.850811334
C 4.9226806369 -0.0478426259 1.5623809643
C 6.2132793021 -0.9343499048 1.7473360538
C 6.8694926795 -0.7915415363 0.3235067369
C 5.9099656006 0.2630043636 -0.3593456111
O 5.4233637946 1.0967113524 0.7638484552
H 4.038872441 -1.9115498027 0.7300258543
H 4.7761813318 -1.360458299 -1.4384445384
H 4.4323484207 0.3090718406 2.4890477655
H 6.8606808523 -0.5113870775 2.5321386285
H 5.9749408655 -1.9781897195 2.0069175921
H 7.8964196496 -0.3980613265 0.3842235658
H 6.8885973724 -1.744083715 -0.2299973915
H 6.3808432108 0.8917957048 -1.1401611171
O -2.7372602463 -2.4445613214 0.5184139446
C -1.8951585356 2.9452737948 1.5968530974
C -5.6205616593 0.7093881359 0.626237048
C -6.8741880209 0.5475485928 -0.322116846
C -6.7972877594 -0.9847398534 -0.6751223523
C -5.4813350939 -1.4028512489 0.0880381748
O -5.5339358394 -0.5905896174 1.3278510723
H -4.388363866 1.3991790711 -1.1258956131
H -4.37818271 -0.896161092 -1.7951470262
H -0.9342679523 2.6096105271 1.1560835673
H -5.6825818128 1.5445393384 1.3510124355
H -7.8007156096 0.793412536 0.220714742
H -6.8054144013 1.1927366748 -1.2127194649
H -7.6649866342 -1.5340587004 -0.2763929667
H -6.7275786615 -1.1699674531 -1.7588545608
H -5.3843609752 -2.4774087428 0.3368629672
H -1.9748346749 2.5287748284 2.6216403571
H -1.9205469801 4.0494170463 1.6417183354
H 1.2631821808 2.6384372206 -1.1975518608
H 1.5347012717 1.7400569849 -2.744946902
H 2.7497251297 2.9468572798 -2.1858692045
H 0.245774634 0.2670929608 -0.6842636147
H -0.147758834 -0.5736244872 0.8521208467
H -0.1125630879 -1.9862691347 -1.9363954375
H -0.7557184274 -2.6714458672 -0.3773579361
$end

$rem
JOBTYPE                   OPT
METHOD                    B3LYP
DFT_D                     d3_op
BASIS                     STO-3G
GEOM_OPT_MAX_CYCLES       100
GEOM_OPT_TOL_GRADIENT     300
GEOM_OPT_TOL_DISPLACEMENT 1200
GEOM_OPT_TOL_ENERGY       100
SYMMETRY                  False
THRESH                    12
SCF_CONVERGENCE           8
MAX_SUB_FILE_NUM          128
MEM_STATIC                400
MEM_TOTAL                 4000
$end
--------------------------------------------------------------

   16   -1510.2843170788      5.63E-09 Convergence criterion met
 Total energy in the final basis set = -1510.28431708
   13   -1510.2852223079      9.38E-09 Convergence criterion met
 Total energy in the final basis set = -1510.28522231
   14   -1510.2862108804      2.54E-09 Convergence criterion met
 Total energy in the final basis set = -1510.28621088
   14   -1510.2871442929      3.34E-09 Convergence criterion met
 Total energy in the final basis set = -1510.28714429
   13   -1510.2882992272      5.42E-09 Convergence criterion met
 Total energy in the final basis set = -1510.28829923
   14   -1510.2894142655      4.14E-09 Convergence criterion met
 Total energy in the final basis set = -1510.28941427
   13   -1510.2905036748      7.67E-09 Convergence criterion met
 Total energy in the final basis set = -1510.29050367
   13   -1510.2912015099      2.89E-09 Convergence criterion met
   13   -1510.2937544566      1.86E-09 Convergence criterion met
 Total energy in the final basis set = -1510.29375446
   12   -1510.2937399610      8.81E-09 Convergence criterion met
 Total energy in the final basis set = -1510.29373996
   12   -1510.2937729303      4.58E-09 Convergence criterion met
 Total energy in the final basis set = -1510.29377293
   12   -1510.2937750953      5.74E-09 Convergence criterion met
 Total energy in the final basis set = -1510.29377510
   11   -1510.2937780182      9.69E-09 Convergence criterion met
 Total energy in the final basis set = -1510.29377802
    9   -1510.2937787696      7.45E-09 Convergence criterion met
 Total energy in the final basis set = -1510.29377877

             Standard Nuclear Orientation (Angstroms)
    I     Atom           X                Y                Z
 ----------------------------------------------------------------
    1      O      -2.2037252328    -0.2626586072     1.3468498226
    2      C      -2.7474976973     0.7279929278     0.8012931540
    3      C      -4.0356397980     0.7089487733    -0.0910801119
    4      C      -4.1815186929    -0.6147531378    -0.9563553669
    5      C      -2.9183937546    -1.5449229567    -0.8950751139
    6      O      -1.8876996271    -0.8917167700    -1.6572434920
    7      C      -0.5641118913    -1.5108996963    -1.3971728841
    8      C       0.1287057396    -0.5977084025    -0.3324910941
    9      O       1.5197014285    -1.0526178735    -0.1058993016
   10      C       2.1746011794    -0.1347345174     0.7747097688
   11      C       3.6682233465    -0.5885696576     0.9215788253
   12      C       4.4244369424    -0.7103055443    -0.4682811519
   13      C       3.5468191872    -0.3181408556    -1.7040827847
   14      O       3.3808535098    -0.9695535458    -2.7573980488
   15      O      -2.2856498107     2.0677245612     0.9319684081
   16      O       2.9640204638     0.9697211958    -1.4555955727
   17      O       1.6132390090     0.8328275892     1.3368446867
   18      C       2.1450117050     1.3911095928    -2.6140385335
   19      C       4.5416162402     0.5078302165     1.6569123257
   20      C       5.8866726284    -0.1688387554     2.1310043871
   21      C       6.6495043017    -0.3142488618     0.7614075297
   22      C       5.6091798992     0.3285750936    -0.2394719545
   23      O       4.9732252868     1.4009705236     0.5558133825
   24      H       3.6848582206    -1.5544178461     1.4593387719
   25      H       4.8032335226    -1.7332222382    -0.6376721031
   26      H       3.9877745582     1.0819628330     2.4250878822
   27      H       6.4277341415     0.4931240117     2.8256576079
   28      H       5.7131037726    -1.1371909198     2.6269410704
   29      H       7.5897223239     0.2595948763     0.7591869636
   30      H       6.8743797728    -1.3626334031     0.5082447319
   31      H       6.0441668467     0.7409723648    -1.1705477695
   32      O      -2.8042062127    -2.6644451144    -0.3553647139
   33      C      -1.1294752248     2.1372798616     1.8659167562
   34      C      -5.3309111067     0.5886146525     0.8270925957
   35      C      -6.6108852604     0.8461637057    -0.0658892710
   36      C      -6.7355203980    -0.5248480316    -0.8295965893
   37      C      -5.4591564400    -1.2811030917    -0.2944983361
   38      O      -5.3862035717    -0.8592408892     1.1247433837
   39      H      -4.0533741631     1.6206956769    -0.7132326587
   40      H      -4.3619728764    -0.3565757828    -2.0156940257
   41      H      -0.2211132433     1.6143668896     1.4832235347
   42      H      -5.2845182510     1.1786406528     1.7630070288
   43      H      -7.4908594905     1.0395482848     0.5679186123
   44      H      -6.4705353560     1.7007075978    -0.7468820657
   45      H      -7.6511308765    -1.0645810114    -0.5398943481
   46      H      -6.7252738381    -0.4070544433    -1.9249291916
   47      H      -5.4829872758    -2.3856896013    -0.3670693043
   48      H      -1.3947058614     1.7084672176     2.8530251311
   49      H      -0.9110969783     3.2145166350     1.9810605760
   50      H       1.5851559339     2.2860082649    -2.2853954885
   51      H       1.4366895237     0.5977518289    -2.9269683879
   52      H       2.7815423169     1.6545004098    -3.4838367484
   53      H       0.1261181916     0.4504373179    -0.7015697459
   54      H      -0.4773607303    -0.6244400836     0.6042747635
   55      H       0.0008090999    -1.5213970107    -2.3516892682
   56      H      -0.6921110309    -2.5464807077    -1.0170274394
 ----------------------------------------------------------------

   10   -1510.2937794044      3.06E-09 Convergence criterion met
 Total energy in the final basis set = -1510.29377940
 Final energy is   -1510.29377940445
 **  OPTIMIZATION CONVERGED  **

                    Orbital Energies (a.u.)
 --------------------------------------------------------------

 Alpha MOs
 -- Occupied --
-18.939 -18.936 -18.934 -18.926 -18.889 -18.888 -18.881 -18.878
-18.877 -18.874 -10.106 -10.103 -10.099 -10.099 -10.068 -10.065
-10.062 -10.062 -10.059 -10.059 -10.058 -10.049 -10.040 -10.040
-10.038 -10.037 -10.022 -10.021 -10.020 -10.020  -1.019  -1.015
 -1.008  -1.006  -0.971  -0.971  -0.941  -0.937  -0.936  -0.935
 -0.766  -0.764  -0.728  -0.724  -0.711  -0.707  -0.696  -0.662
 -0.658  -0.614  -0.598  -0.581  -0.548  -0.545  -0.538  -0.538
 -0.515  -0.510  -0.484  -0.478  -0.465  -0.461  -0.454  -0.444
 -0.437  -0.432  -0.428  -0.416  -0.413  -0.410  -0.407  -0.399
 -0.391  -0.381  -0.370  -0.369  -0.361  -0.358  -0.356  -0.351
 -0.346  -0.337  -0.335  -0.333  -0.332  -0.329  -0.325  -0.311
 -0.310  -0.307  -0.305  -0.299  -0.295  -0.293  -0.283  -0.278
 -0.271  -0.260  -0.252  -0.247  -0.247  -0.235  -0.235  -0.185
 -0.177  -0.175  -0.173  -0.160  -0.158  -0.152  -0.150  -0.145
 -0.145

          Ground-State Mulliken Net Atomic Charges

     Atom                 Charge (a.u.)
  ----------------------------------------
      1 O                    -0.216699
      2 C                     0.212358
      3 C                    -0.077844
      4 C                    -0.079213
      5 C                     0.214752
      6 O                    -0.181144
      7 C                    -0.053041
      8 C                    -0.061979
      9 O                    -0.174984
     10 C                     0.222423
     11 C                    -0.077857
     12 C                    -0.078723
     13 C                     0.211751
     14 O                    -0.213921
     15 O                    -0.168195
     16 O                    -0.169203
     17 O                    -0.214472
     18 C                    -0.128732
     19 C                     0.024768
     20 C                    -0.143863
     21 C                    -0.143889
     22 C                     0.026005
     23 O                    -0.186078
     24 H                     0.086557
     25 H                     0.086142
     26 H                     0.090163
     27 H                     0.078388
     28 H                     0.073696
     29 H                     0.078270
     30 H                     0.074217
     31 H                     0.082575
     32 O                    -0.204980
     33 C                    -0.142261
     34 C                     0.025660
     35 C                    -0.144053
     36 C                    -0.143474
     37 C                     0.024929
     38 O                    -0.186524
     39 H                     0.087458
     40 H                     0.085263
     41 H                     0.110809
     42 H                     0.083187
     43 H                     0.078518
     44 H                     0.073950
     45 H                     0.078605
     46 H                     0.073438
     47 H                     0.090076
     48 H                     0.085297
     49 H                     0.087324
     50 H                     0.091749
     51 H                     0.089318
     52 H                     0.087254
     53 H                     0.081124
     54 H                     0.105853
     55 H                     0.087584
     56 H                     0.101668
  ----------------------------------------
  Sum of atomic charges =     0.000000

                    Cartesian Multipole Moments
 -----------------------------------------------------------------
    Charge (ESU x 10^10)
                 0.0000
    Dipole Moment (Debye)
         X       0.2171      Y       1.4028      Z      -0.8766
       Tot       1.6684
    Quadrupole Moments (Debye-Ang)
        XX    -141.0487     XY     -11.8993     YY    -166.1302
        XZ      11.4537     YZ      -1.3686     ZZ    -159.0493

 Total job time:  75.13s(wall), 3580.68s(cpu)
        *  Thank you very much for using Q-Chem.  Have a nice day.  *
