 Q-Chem 5.0, Q-Chem, Inc., Pleasanton, CA (2017)
 Q-Chem 5.0.1 for Intel X86 EM64T Linux

User input:
--------------------------------------------------------------
$molecule
0  1
O -3.94934 -3.66094 2.70899
C -3.26408 -4.56952 2.26188
C -3.36658 -6.02376 2.66595
C -4.22157 -6.35123 3.90111
C -5.02212 -5.21032 4.48892
O -4.20292 -4.39557 5.21729
C -4.88511 -3.27135 5.78296
C -4.68473 -2.03941 4.90643
O -5.11039 -0.86268 5.6114
C -5.20141 0.26453 4.8629
C -5.36434 1.51299 5.69685
C -4.18135 1.83201 6.62262
C -2.89365 1.08867 6.32939
O -1.84519 1.21707 6.94486
O -2.40505 -4.29691 1.24495
O -2.74308 0.42045 5.1533
O -5.13649 0.27744 3.63867
C -1.56929 -0.15203 4.69789
C -5.43218 2.82789 4.88759
C -6.15007 3.89861 5.70862
C -5.11364 4.17908 6.77836
C -3.95599 3.31057 6.27327
O -4.11019 3.30969 4.87403
H -6.31943 1.39481 6.2571
H -4.42947 1.6362 7.68872
H -5.92509 2.7169 3.89741
H -6.23839 4.79764 5.05697
H -7.15831 3.6228 6.08567
H -4.84981 5.25913 6.73686
H -5.409 3.89617 7.81209
H -2.98401 3.69262 6.65664
O -6.24026 -5.09377 4.39912
C -2.20482 -3.03923 0.71529
C -4.05606 -6.86636 1.58312
C -3.66645 -8.33543 1.73883
C -4.45337 -8.7037 2.97795
C -5.17728 -7.38166 3.25314
O -5.40732 -6.85606 1.96809
H -2.31893 -6.36248 2.83054
H -3.65712 -6.8333 4.73081
H -1.82737 -2.34938 1.50037
H -3.83698 -6.51676 0.5503
H -4.08728 -8.89453 0.87274
H -2.57141 -8.51519 1.79955
H -5.19702 -9.48415 2.70081
H -3.84775 -9.05052 3.84288
H -6.08183 -7.57487 3.87113
H -3.15458 -2.64518 0.29447
H -1.45271 -3.10216 -0.0976
H -1.75069 -0.6182 3.70772
H -1.22644 -0.93609 5.40644
H -0.78286 0.62413 4.58374
H -3.61588 -1.94266 4.6328
H -5.30907 -2.18431 3.9982
H -4.39052 -3.06978 6.75695
H -5.95979 -3.4343 6.0254
$end

$opt
CONSTRAINT
tors           1           2           3           4     -11.192
tors           3           4           5           6     -77.400
tors           4           5           6           7    +178.677
tors           5           6           7           8     -97.897
tors           6           7           8           9    -167.363
tors           7           8           9          10    -169.013
tors           8           9          10          11    -167.828
tors           9          10          11          12     +63.244
tors          11          12          13          14    +179.259
ENDCONSTRAINT
$end

$rem
JOBTYPE                   OPT
METHOD                    B3LYP
DFT_D                     d3_op
BASIS                     STO-3G
GEOM_OPT_MAX_CYCLES       100
GEOM_OPT_TOL_GRADIENT     300
GEOM_OPT_TOL_DISPLACEMENT 1200
GEOM_OPT_TOL_ENERGY       100
SYMMETRY                  False
THRESH                    12
SCF_CONVERGENCE           8
MAX_SUB_FILE_NUM          128
MEM_STATIC                400
MEM_TOTAL                 4000
$end
--------------------------------------------------------------

   15   -1510.1514832272      6.50E-09 Convergence criterion met
 Total energy in the final basis set = -1510.15148323
   14   -1510.2225982906      6.06E-09 Convergence criterion met
 Total energy in the final basis set = -1510.22259829
   13   -1510.2606229376      7.31E-09 Convergence criterion met
 Total energy in the final basis set = -1510.26062294
   13   -1510.2765686189      9.42E-09 Convergence criterion met
 Total energy in the final basis set = -1510.27656862
   14   -1510.2804803313      2.00E-09 Convergence criterion met
 Total energy in the final basis set = -1510.28048033
   13   -1510.2828866920      4.56E-09 Convergence criterion met
 Total energy in the final basis set = -1510.28288669
   12   -1510.2834732104      9.35E-09 Convergence criterion met
 Total energy in the final basis set = -1510.28347321
   13   -1510.2838622700      2.04E-09 Convergence criterion met
   10   -1510.2843194580      8.92E-09 Convergence criterion met
 Total energy in the final basis set = -1510.28431946
   10   -1510.2843450277      8.79E-09 Convergence criterion met
 Total energy in the final basis set = -1510.28434503
    9   -1510.2843626866      9.50E-09 Convergence criterion met
 Total energy in the final basis set = -1510.28436269
   10   -1510.2843741659      8.30E-09 Convergence criterion met
 Total energy in the final basis set = -1510.28437417
    9   -1510.2843808941      7.65E-09 Convergence criterion met
 Total energy in the final basis set = -1510.28438089
    9   -1510.2843824145      4.49E-09 Convergence criterion met
 Total energy in the final basis set = -1510.28438241

             Standard Nuclear Orientation (Angstroms)
    I     Atom           X                Y                Z
 ----------------------------------------------------------------
    1      O      -2.2143244232     0.3571036725     1.1018506149
    2      C      -3.0652006615     1.1268222766     0.5997695144
    3      C      -4.3019591929     0.7129035215    -0.2647951102
    4      C      -4.2426273736    -0.8076972590    -0.7022654180
    5      C      -2.8999124672    -1.5375014496    -0.3247640493
    6      O      -1.9069289969    -1.1198465745    -1.2813218056
    7      C      -0.6003971901    -1.7448226101    -0.9698071437
    8      C       0.2700661781    -0.7169138413    -0.1676264745
    9      O       1.6606563984    -1.2267731461    -0.1316170645
   10      C       2.4366177178    -0.4588453750     0.8013556795
   11      C       3.9482276126    -0.8200184068     0.5765559771
   12      C       4.5699616124    -0.4582208273    -0.8349819150
   13      C       3.7953145982     0.5724006963    -1.7347582112
   14      O       4.1621302365     0.9681774973    -2.8631876969
   15      O      -3.0497184047     2.5442107815     0.7563079165
   16      O       2.6841552160     1.1337299936    -1.0322785345
   17      O       1.9635468622     0.3062217394     1.6677713241
   18      C       2.0261496463     2.1763671828    -1.8508113340
   19      C       4.9226806369    -0.0478426259     1.5623809643
   20      C       6.2132793021    -0.9343499048     1.7473360538
   21      C       6.8694926795    -0.7915415363     0.3235067369
   22      C       5.9099656006     0.2630043636    -0.3593456111
   23      O       5.4233637946     1.0967113524     0.7638484552
   24      H       4.0388724410    -1.9115498027     0.7300258543
   25      H       4.7761813318    -1.3604582990    -1.4384445384
   26      H       4.4323484207     0.3090718406     2.4890477655
   27      H       6.8606808523    -0.5113870775     2.5321386285
   28      H       5.9749408655    -1.9781897195     2.0069175921
   29      H       7.8964196496    -0.3980613265     0.3842235658
   30      H       6.8885973724    -1.7440837150    -0.2299973915
   31      H       6.3808432108     0.8917957048    -1.1401611171
   32      O      -2.7372602463    -2.4445613214     0.5184139446
   33      C      -1.8951585356     2.9452737948     1.5968530974
   34      C      -5.6205616593     0.7093881359     0.6262370480
   35      C      -6.8741880209     0.5475485928    -0.3221168460
   36      C      -6.7972877594    -0.9847398534    -0.6751223523
   37      C      -5.4813350939    -1.4028512489     0.0880381748
   38      O      -5.5339358394    -0.5905896174     1.3278510723
   39      H      -4.3883638660     1.3991790711    -1.1258956131
   40      H      -4.3781827100    -0.8961610920    -1.7951470262
   41      H      -0.9342679523     2.6096105271     1.1560835673
   42      H      -5.6825818128     1.5445393384     1.3510124355
   43      H      -7.8007156096     0.7934125360     0.2207147420
   44      H      -6.8054144013     1.1927366748    -1.2127194649
   45      H      -7.6649866342    -1.5340587004    -0.2763929667
   46      H      -6.7275786615    -1.1699674531    -1.7588545608
   47      H      -5.3843609752    -2.4774087428     0.3368629672
   48      H      -1.9748346749     2.5287748284     2.6216403571
   49      H      -1.9205469801     4.0494170463     1.6417183354
   50      H       1.2631821808     2.6384372206    -1.1975518608
   51      H       1.5347012717     1.7400569849    -2.7449469020
   52      H       2.7497251297     2.9468572798    -2.1858692045
   53      H       0.2457746340     0.2670929608    -0.6842636147
   54      H      -0.1477588340    -0.5736244872     0.8521208467
   55      H      -0.1125630879    -1.9862691347    -1.9363954375
   56      H      -0.7557184274    -2.6714458672    -0.3773579361
 ----------------------------------------------------------------

    9   -1510.2843828511      3.21E-09 Convergence criterion met
 Total energy in the final basis set = -1510.28438285
 Final energy is   -1510.28438285111
 **  OPTIMIZATION CONVERGED  **

                    Orbital Energies (a.u.)
 --------------------------------------------------------------

 Alpha MOs
 -- Occupied --
-18.946 -18.942 -18.920 -18.918 -18.888 -18.887 -18.884 -18.874
-18.866 -18.864 -10.108 -10.102 -10.094 -10.094 -10.069 -10.069
-10.063 -10.062 -10.059 -10.058 -10.057 -10.054 -10.042 -10.039
-10.035 -10.032 -10.022 -10.020 -10.019 -10.017  -1.022  -1.016
 -1.002  -0.997  -0.971  -0.968  -0.945  -0.938  -0.930  -0.925
 -0.765  -0.761  -0.726  -0.722  -0.711  -0.704  -0.691  -0.667
 -0.665  -0.612  -0.597  -0.577  -0.546  -0.542  -0.537  -0.535
 -0.513  -0.509  -0.484  -0.478  -0.464  -0.457  -0.455  -0.444
 -0.435  -0.431  -0.422  -0.416  -0.416  -0.413  -0.409  -0.394
 -0.390  -0.380  -0.377  -0.368  -0.362  -0.358  -0.353  -0.344
 -0.342  -0.339  -0.336  -0.331  -0.329  -0.326  -0.320  -0.313
 -0.307  -0.306  -0.305  -0.302  -0.298  -0.291  -0.279  -0.275
 -0.268  -0.260  -0.246  -0.243  -0.240  -0.235  -0.233  -0.187
 -0.181  -0.167  -0.165  -0.161  -0.155  -0.148  -0.145  -0.143
 -0.142

          Ground-State Mulliken Net Atomic Charges

     Atom                 Charge (a.u.)
  ----------------------------------------
      1 O                    -0.206950
      2 C                     0.215683
      3 C                    -0.077949
      4 C                    -0.080805
      5 C                     0.216560
      6 O                    -0.181712
      7 C                    -0.052126
      8 C                    -0.052290
      9 O                    -0.180928
     10 C                     0.221127
     11 C                    -0.080896
     12 C                    -0.076298
     13 C                     0.212568
     14 O                    -0.216188
     15 O                    -0.167956
     16 O                    -0.166137
     17 O                    -0.216753
     18 C                    -0.126151
     19 C                     0.023488
     20 C                    -0.142667
     21 C                    -0.144893
     22 C                     0.024398
     23 O                    -0.191710
     24 H                     0.083040
     25 H                     0.086582
     26 H                     0.090700
     27 H                     0.077766
     28 H                     0.073421
     29 H                     0.078188
     30 H                     0.073642
     31 H                     0.084917
     32 O                    -0.215070
     33 C                    -0.128624
     34 C                     0.025196
     35 C                    -0.143906
     36 C                    -0.143638
     37 C                     0.024635
     38 O                    -0.188537
     39 H                     0.087262
     40 H                     0.084386
     41 H                     0.093171
     42 H                     0.084578
     43 H                     0.078629
     44 H                     0.073734
     45 H                     0.078536
     46 H                     0.073429
     47 H                     0.090305
     48 H                     0.093610
     49 H                     0.092445
     50 H                     0.091176
     51 H                     0.088627
     52 H                     0.094493
     53 H                     0.078287
     54 H                     0.103916
     55 H                     0.084966
     56 H                     0.098723
  ----------------------------------------
  Sum of atomic charges =    -0.000000

                    Cartesian Multipole Moments
 -----------------------------------------------------------------
    Charge (ESU x 10^10)
                 0.0000
    Dipole Moment (Debye)
         X      -0.8745      Y       0.7724      Z      -1.8123
       Tot       2.1554
    Quadrupole Moments (Debye-Ang)
        XX    -145.5040     XY     -13.8426     YY    -156.5802
        XZ      11.1949     YZ       3.3246     ZZ    -165.2358

 Total job time:  49.17s(wall), 2335.78s(cpu)
        *  Thank you very much for using Q-Chem.  Have a nice day.  *
