 Q-Chem 5.0, Q-Chem, Inc., Pleasanton, CA (2017)
 Q-Chem 5.0.1 for Intel X86 EM64T Linux

User input:
--------------------------------------------------------------
$molecule
0  1
O -2.262950531 0.453376555 1.1048036392
C -3.1248773992 1.1684783453 0.543437401
C -4.3457190286 0.6709266516 -0.3005748991
C -4.2524195338 -0.8743587476 -0.6313097228
C -2.8839413563 -1.5362350547 -0.2266669897
O -1.9066224795 -1.1012426677 -1.1907510144
C -0.5817194397 -1.6849878769 -0.8777594149
C 0.2821421541 -0.5839690066 -0.1729687679
O 1.6509190375 -1.1213327455 0.0057695394
C 2.4129051129 -0.2443140565 0.8497275259
C 3.9198343033 -0.6726176405 0.7462217695
C 4.5666831339 -0.6474967196 -0.698610649
C 3.8575864462 0.2300266863 -1.7943955109
O 4.2462322188 0.3693564323 -2.9749961249
O -3.139298321 2.5930502952 0.6003570594
O 2.797747394 1.0025704756 -1.2245326991
O 1.9295365384 0.6582894019 1.5646766993
C 2.2215382543 1.9142633189 -2.2380897229
C 4.9065529386 0.269833661 1.5566561374
C 6.1521126651 -0.6011982572 1.974905008
C 6.831027927 -0.8248193197 0.5717292453
C 5.9380213211 0.0906121521 -0.3584752839
O 5.4761928959 1.1794429476 0.5336322676
H 3.9798379735 -1.7056728026 1.1375759286
H 4.7222205026 -1.6630485776 -1.1043101283
H 4.4159699583 0.8485389915 2.3636593513
H 6.8089150928 -0.0318222914 2.6521431776
H 5.864137185 -1.5431129435 2.4680184752
H 7.8770812827 -0.4798163448 0.5637406167
H 6.8058454017 -1.8792033243 0.252526426
H 6.4551896267 0.5035795584 -1.2466264108
O -2.6848196174 -2.407941453 0.6454134894
C -2.0003145169 3.0761519671 1.4190482786
C -5.670089585 0.6987682705 0.5816131145
C -6.9125652769 0.4291962554 -0.3576200692
C -6.7971271327 -1.1245074134 -0.5835157396
C -5.4701452968 -1.4441773613 0.2079028616
O -5.5505608188 -0.5408182174 1.3811934222
H -4.438967434 1.2950161288 -1.2070596125
H -4.3971992346 -1.0410129245 -1.7138692078
H -1.0305036763 2.7106632755 1.0241370339
H -5.7602023759 1.584563066 1.2403015605
H -7.8489536574 0.6965463391 0.1573150304
H -6.8508155319 1.0020534119 -1.296837073
H -7.6501114684 -1.6603519891 -0.1372250411
H -6.7249647298 -1.3977887256 -1.6483767962
H -5.3409524185 -2.4932455705 0.537754393
H -2.0940934839 2.7506573113 2.475129809
H -2.0343249404 4.1797164854 1.3662908926
H 1.4468779732 2.5015232932 -1.7115770197
H 1.7588303031 1.3530560876 -3.0757464057
H 2.9906431546 2.5973876244 -2.6523403774
H 0.3171622795 0.3264353507 -0.8096845729
H -0.1892371602 -0.3036326627 0.7946116515
H -0.115836317 -1.9923499859 -1.8364319907
H -0.7076806247 -2.5658614493 -0.2125820255
$end

$rem
JOBTYPE                   OPT
METHOD                    B3LYP
DFT_D                     d3_op
BASIS                     STO-3G
GEOM_OPT_MAX_CYCLES       100
GEOM_OPT_TOL_GRADIENT     300
GEOM_OPT_TOL_DISPLACEMENT 1200
GEOM_OPT_TOL_ENERGY       100
SYMMETRY                  False
THRESH                    12
SCF_CONVERGENCE           8
MAX_SUB_FILE_NUM          128
MEM_STATIC                400
MEM_TOTAL                 4000
$end
--------------------------------------------------------------

   16   -1510.2843278159      6.02E-09 Convergence criterion met
 Total energy in the final basis set = -1510.28432782
   13   -1510.2854963177      9.99E-09 Convergence criterion met
 Total energy in the final basis set = -1510.28549632
   14   -1510.2866814109      3.79E-09 Convergence criterion met
 Total energy in the final basis set = -1510.28668141
   13   -1510.2872929500      9.50E-09 Convergence criterion met
 Total energy in the final basis set = -1510.28729295
   13   -1510.2890190779      3.97E-09 Convergence criterion met
 Total energy in the final basis set = -1510.28901908
   14   -1510.2897725988      2.12E-09 Convergence criterion met
 Total energy in the final basis set = -1510.28977260
   14   -1510.2886445435      1.59E-09 Convergence criterion met
 Total energy in the final basis set = -1510.28864454
   14   -1510.2907929442      3.69E-09 Convergence criterion met
   12   -1510.2937083126      2.69E-09 Convergence criterion met
 Total energy in the final basis set = -1510.29370831
   11   -1510.2937179007      7.95E-09 Convergence criterion met
 Total energy in the final basis set = -1510.29371790
   11   -1510.2937062838      9.50E-09 Convergence criterion met
 Total energy in the final basis set = -1510.29370628
   11   -1510.2937210357      9.67E-09 Convergence criterion met
 Total energy in the final basis set = -1510.29372104
   10   -1510.2937143841      7.69E-09 Convergence criterion met
 Total energy in the final basis set = -1510.29371438
    9   -1510.2937200054      9.49E-09 Convergence criterion met
 Total energy in the final basis set = -1510.29372001

             Standard Nuclear Orientation (Angstroms)
    I     Atom           X                Y                Z
 ----------------------------------------------------------------
    1      O      -2.0344817530     0.2431040925     1.1067924158
    2      C      -2.7228452435     0.9893276066     0.3679409271
    3      C      -4.0915077130     0.6245853363    -0.3000907307
    4      C      -4.2369317461    -0.9227660614    -0.6271975355
    5      C      -2.9226074698    -1.7473473116    -0.3823561906
    6      O      -2.0134693871    -1.4060302453    -1.4440935572
    7      C      -0.6432820427    -1.8922876232    -1.1403449544
    8      C       0.1306977104    -0.6495904705    -0.5896024667
    9      O       1.4970498570    -1.0371192445    -0.1661238307
   10      C       2.0899284776     0.0632179899     0.5304124672
   11      C       3.5285573998    -0.3609927285     0.9889756811
   12      C       4.4865807011    -0.7758253663    -0.2062646074
   13      C       3.8194049022    -0.6704331754    -1.6174862491
   14      O       3.8222081988    -1.5290747714    -2.5253602937
   15      O      -2.3680363660     2.3233410647     0.0280030674
   16      O       3.2013220869     0.6189594418    -1.7327623309
   17      O       1.5091960058     1.1467137179     0.7677223951
   18      C       2.5465676256     0.7531554630    -3.0534415819
   19      C       4.3155304146     0.8643747780     1.6077402057
   20      C       5.5504056290     0.3053663762     2.4158078163
   21      C       6.5084717289    -0.1234264408     1.2425767353
   22      C       5.6537371344     0.2926003515    -0.0198727529
   23      O       4.9366816938     1.5068669095     0.4254293383
   24      H       3.4262866962    -1.1914730105     1.7115866002
   25      H       4.8579747230    -1.8088409695    -0.0894734791
   26      H       3.6684844064     1.5862980721     2.1428972833
   27      H       5.9995412308     1.0992846049     3.0333136967
   28      H       5.2732239916    -0.5375520693     3.0687553461
   29      H       7.4555989346     0.4384765512     1.2673438029
   30      H       6.7367990291    -1.2011405698     1.2508023661
   31      H       6.2381088699     0.4999692186    -0.9374701913
   32      O      -2.6966083199    -2.5992485522     0.5017263604
   33      C      -1.1303435337     2.7361405634     0.7440548875
   34      C      -5.2732162071     0.8061322312     0.7517699554
   35      C      -6.6524088363     0.7147170858    -0.0159805180
   36      C      -6.7690986055    -0.8370670973    -0.2540765048
   37      C      -5.4048090477    -1.3384010244     0.3616451587
   38      O      -5.2137439430    -0.4490714315     1.5315287244
   39      H      -4.2342236942     1.2571546555    -1.1938227991
   40      H      -4.5313747878    -1.0609125856    -1.6832529861
   41      H      -0.2667110380     2.0523349654     0.5696307695
   42      H      -5.1613342442     1.6848943158     1.4163203906
   43      H      -7.4713614155     1.0911663455     0.6172879117
   44      H      -6.6387553833     1.2907067076    -0.9551101457
   45      H      -7.6201956127    -1.2657235411     0.2987553995
   46      H      -6.8700604283    -1.1004133222    -1.3190735537
   47      H      -5.3758018757    -2.3996116068     0.6763330997
   48      H      -1.3149195607     2.7959370750     1.8357529947
   49      H      -0.8915389328     3.7444535286     0.3600854195
   50      H       1.9839347853     1.7042783389    -3.0206307506
   51      H       1.8522209756    -0.0880663368    -3.2527522860
   52      H       3.2925659609     0.7937154074    -3.8736008066
   53      H       0.1793330959     0.1351534536    -1.3751230897
   54      H      -0.4544860352    -0.2417316212     0.2693865746
   55      H      -0.2007303793    -2.2764430965    -2.0817577453
   56      H      -0.6872734355    -2.7011533822    -0.3799308711
 ----------------------------------------------------------------

    9   -1510.2937200225      4.49E-09 Convergence criterion met
 Total energy in the final basis set = -1510.29372002
 Final energy is   -1510.29372002249
 **  OPTIMIZATION CONVERGED  **

                    Orbital Energies (a.u.)
 --------------------------------------------------------------

 Alpha MOs
 -- Occupied --
-18.941 -18.935 -18.932 -18.924 -18.889 -18.888 -18.880 -18.877
-18.876 -18.875 -10.105 -10.103 -10.099 -10.098 -10.065 -10.065
-10.063 -10.061 -10.059 -10.058 -10.055 -10.051 -10.041 -10.038
-10.037 -10.037 -10.022 -10.021 -10.020 -10.019  -1.017  -1.016
 -1.007  -1.005  -0.971  -0.970  -0.939  -0.938  -0.936  -0.933
 -0.765  -0.763  -0.727  -0.723  -0.710  -0.706  -0.695  -0.661
 -0.659  -0.613  -0.598  -0.579  -0.547  -0.545  -0.538  -0.537
 -0.514  -0.510  -0.482  -0.477  -0.465  -0.460  -0.454  -0.444
 -0.436  -0.431  -0.427  -0.416  -0.414  -0.410  -0.407  -0.398
 -0.391  -0.378  -0.371  -0.368  -0.360  -0.358  -0.357  -0.350
 -0.345  -0.337  -0.334  -0.333  -0.331  -0.328  -0.324  -0.311
 -0.309  -0.306  -0.305  -0.299  -0.293  -0.292  -0.282  -0.278
 -0.269  -0.260  -0.251  -0.246  -0.244  -0.235  -0.234  -0.185
 -0.177  -0.173  -0.171  -0.159  -0.157  -0.152  -0.149  -0.145
 -0.144

          Ground-State Mulliken Net Atomic Charges

     Atom                 Charge (a.u.)
  ----------------------------------------
      1 O                    -0.215406
      2 C                     0.214838
      3 C                    -0.077790
      4 C                    -0.079364
      5 C                     0.214956
      6 O                    -0.181345
      7 C                    -0.053503
      8 C                    -0.063991
      9 O                    -0.175924
     10 C                     0.222382
     11 C                    -0.078006
     12 C                    -0.078928
     13 C                     0.211595
     14 O                    -0.212694
     15 O                    -0.167197
     16 O                    -0.167868
     17 O                    -0.216345
     18 C                    -0.128250
     19 C                     0.024862
     20 C                    -0.144016
     21 C                    -0.143785
     22 C                     0.025941
     23 O                    -0.186352
     24 H                     0.086388
     25 H                     0.086039
     26 H                     0.090262
     27 H                     0.078276
     28 H                     0.073846
     29 H                     0.078076
     30 H                     0.074148
     31 H                     0.082441
     32 O                    -0.206222
     33 C                    -0.141643
     34 C                     0.025713
     35 C                    -0.143943
     36 C                    -0.143575
     37 C                     0.025111
     38 O                    -0.186788
     39 H                     0.087730
     40 H                     0.085298
     41 H                     0.113647
     42 H                     0.083335
     43 H                     0.078621
     44 H                     0.074049
     45 H                     0.078588
     46 H                     0.073486
     47 H                     0.090058
     48 H                     0.084492
     49 H                     0.087612
     50 H                     0.091772
     51 H                     0.089224
     52 H                     0.088079
     53 H                     0.076916
     54 H                     0.107615
     55 H                     0.085932
     56 H                     0.101602
  ----------------------------------------
  Sum of atomic charges =     0.000000

                    Cartesian Multipole Moments
 -----------------------------------------------------------------
    Charge (ESU x 10^10)
                 0.0000
    Dipole Moment (Debye)
         X      -0.3101      Y       0.9734      Z      -1.1986
       Tot       1.5749
    Quadrupole Moments (Debye-Ang)
        XX    -141.0074     XY      -6.5207     YY    -164.7458
        XZ      13.5703     YZ      -0.2335     ZZ    -159.2680

 Total job time:  71.40s(wall), 3389.20s(cpu)
        *  Thank you very much for using Q-Chem.  Have a nice day.  *
