 Q-Chem 5.0, Q-Chem, Inc., Pleasanton, CA (2017)
 Q-Chem 5.0.1 for Intel X86 EM64T Linux

User input:
--------------------------------------------------------------
$molecule
0  1
O -3.94934 -3.66094 2.70899
C -3.26408 -4.56952 2.26188
C -3.36658 -6.02376 2.66595
C -4.22157 -6.35123 3.90111
C -5.02212 -5.21032 4.48892
O -4.19241 -4.3602 5.16295
C -4.87971 -3.25015 5.75002
C -4.69081 -2.00238 4.89356
O -5.26116 -0.86293 5.55629
C -5.34521 0.2651 4.80821
C -5.66397 1.49253 5.62826
C -4.6573 1.8041 6.74532
C -3.32769 1.0823 6.65682
O -2.39837 1.20984 7.44083
O -2.40584 -4.29726 1.2442
O -2.95472 0.51134 5.47822
O -5.11373 0.30373 3.6049
C -1.70117 -1e-05 5.19469
C -5.62969 2.82433 4.84807
C -6.48897 3.86296 5.56825
C -5.63859 4.13612 6.79281
C -4.4018 3.29314 6.46255
O -4.33083 3.32345 5.05658
H -6.6906 1.33787 6.03074
H -5.07447 1.58973 7.7536
H -5.9566 2.72947 3.78989
H -6.49451 4.77597 4.93031
H -7.53705 3.55825 5.77682
H -5.38666 5.21971 6.81036
H -6.08959 3.83225 7.76238
H -3.51018 3.67964 7.00413
O -6.24316 -5.11057 4.42084
C -2.20682 -3.03998 0.71318
C -4.05728 -6.86842 1.58503
C -3.66319 -8.33631 1.73996
C -4.44303 -8.70603 2.98336
C -5.17339 -7.38739 3.25834
O -5.40798 -6.86344 1.97336
H -2.31895 -6.3632 2.82949
H -3.64964 -6.82271 4.73168
H -1.82979 -2.34893 1.49749
H -3.8422 -6.51852 0.55148
H -4.08796 -8.89586 0.87605
H -2.56769 -8.5151 1.79455
H -5.18198 -9.4928 2.7117
H -3.83154 -9.04508 3.84726
H -6.07552 -7.58369 3.87877
H -3.15707 -2.64723 0.29222
H -1.45492 -3.10314 -0.09989
H -1.69301 -0.39241 4.15706
H -1.45951 -0.82869 5.89423
H -0.93331 0.79856 5.27575
H -3.61625 -1.83935 4.68161
H -5.25025 -2.17584 3.95038
H -4.41525 -3.06758 6.74219
H -5.96234 -3.41215 5.95404
$end

$opt
CONSTRAINT
tors           1           2           3           4     -11.192
tors           3           4           5           6     -74.470
tors           4           5           6           7    -180.000
tors           5           6           7           8    -101.480
tors           6           7           8           9    -173.951
tors           7           8           9          10    -170.064
tors           8           9          10          11    -167.458
tors           9          10          11          12     +58.422
tors          11          12          13          14    +179.176
ENDCONSTRAINT
$end

$rem
JOBTYPE                   OPT
METHOD                    B3LYP
DFT_D                     d3_op
BASIS                     STO-3G
GEOM_OPT_MAX_CYCLES       100
GEOM_OPT_TOL_GRADIENT     300
GEOM_OPT_TOL_DISPLACEMENT 1200
GEOM_OPT_TOL_ENERGY       100
SYMMETRY                  False
THRESH                    12
SCF_CONVERGENCE           8
MAX_SUB_FILE_NUM          128
MEM_STATIC                400
MEM_TOTAL                 4000
$end
--------------------------------------------------------------

   15   -1510.1504317365      8.02E-09 Convergence criterion met
 Total energy in the final basis set = -1510.15043174
   14   -1510.2214315218      6.56E-09 Convergence criterion met
 Total energy in the final basis set = -1510.22143152
   13   -1510.2594889320      8.40E-09 Convergence criterion met
 Total energy in the final basis set = -1510.25948893
   14   -1510.2757692408      6.18E-09 Convergence criterion met
 Total energy in the final basis set = -1510.27576924
   13   -1510.2805934556      7.08E-09 Convergence criterion met
 Total energy in the final basis set = -1510.28059346
   13   -1510.2821291335      5.93E-09 Convergence criterion met
 Total energy in the final basis set = -1510.28212913
   13   -1510.2828088356      2.10E-09 Convergence criterion met
 Total energy in the final basis set = -1510.28280884
   13   -1510.2834096875      3.06E-09 Convergence criterion met
   10   -1510.2840993141      6.28E-09 Convergence criterion met
 Total energy in the final basis set = -1510.28409931
   10   -1510.2841239946      8.87E-09 Convergence criterion met
 Total energy in the final basis set = -1510.28412399
    9   -1510.2841438265      9.32E-09 Convergence criterion met
 Total energy in the final basis set = -1510.28414383
    9   -1510.2841537652      6.88E-09 Convergence criterion met
 Total energy in the final basis set = -1510.28415377
    9   -1510.2841564489      5.21E-09 Convergence criterion met
 Total energy in the final basis set = -1510.28415645
    9   -1510.2841577211      3.65E-09 Convergence criterion met
 Total energy in the final basis set = -1510.28415772

             Standard Nuclear Orientation (Angstroms)
    I     Atom           X                Y                Z
 ----------------------------------------------------------------
    1      O      -2.2629505310     0.4533765550     1.1048036392
    2      C      -3.1248773992     1.1684783453     0.5434374010
    3      C      -4.3457190286     0.6709266516    -0.3005748991
    4      C      -4.2524195338    -0.8743587476    -0.6313097228
    5      C      -2.8839413563    -1.5362350547    -0.2266669897
    6      O      -1.9066224795    -1.1012426677    -1.1907510144
    7      C      -0.5817194397    -1.6849878769    -0.8777594149
    8      C       0.2821421541    -0.5839690066    -0.1729687679
    9      O       1.6509190375    -1.1213327455     0.0057695394
   10      C       2.4129051129    -0.2443140565     0.8497275259
   11      C       3.9198343033    -0.6726176405     0.7462217695
   12      C       4.5666831339    -0.6474967196    -0.6986106490
   13      C       3.8575864462     0.2300266863    -1.7943955109
   14      O       4.2462322188     0.3693564323    -2.9749961249
   15      O      -3.1392983210     2.5930502952     0.6003570594
   16      O       2.7977473940     1.0025704756    -1.2245326991
   17      O       1.9295365384     0.6582894019     1.5646766993
   18      C       2.2215382543     1.9142633189    -2.2380897229
   19      C       4.9065529386     0.2698336610     1.5566561374
   20      C       6.1521126651    -0.6011982572     1.9749050080
   21      C       6.8310279270    -0.8248193197     0.5717292453
   22      C       5.9380213211     0.0906121521    -0.3584752839
   23      O       5.4761928959     1.1794429476     0.5336322676
   24      H       3.9798379735    -1.7056728026     1.1375759286
   25      H       4.7222205026    -1.6630485776    -1.1043101283
   26      H       4.4159699583     0.8485389915     2.3636593513
   27      H       6.8089150928    -0.0318222914     2.6521431776
   28      H       5.8641371850    -1.5431129435     2.4680184752
   29      H       7.8770812827    -0.4798163448     0.5637406167
   30      H       6.8058454017    -1.8792033243     0.2525264260
   31      H       6.4551896267     0.5035795584    -1.2466264108
   32      O      -2.6848196174    -2.4079414530     0.6454134894
   33      C      -2.0003145169     3.0761519671     1.4190482786
   34      C      -5.6700895850     0.6987682705     0.5816131145
   35      C      -6.9125652769     0.4291962554    -0.3576200692
   36      C      -6.7971271327    -1.1245074134    -0.5835157396
   37      C      -5.4701452968    -1.4441773613     0.2079028616
   38      O      -5.5505608188    -0.5408182174     1.3811934222
   39      H      -4.4389674340     1.2950161288    -1.2070596125
   40      H      -4.3971992346    -1.0410129245    -1.7138692078
   41      H      -1.0305036763     2.7106632755     1.0241370339
   42      H      -5.7602023759     1.5845630660     1.2403015605
   43      H      -7.8489536574     0.6965463391     0.1573150304
   44      H      -6.8508155319     1.0020534119    -1.2968370730
   45      H      -7.6501114684    -1.6603519891    -0.1372250411
   46      H      -6.7249647298    -1.3977887256    -1.6483767962
   47      H      -5.3409524185    -2.4932455705     0.5377543930
   48      H      -2.0940934839     2.7506573113     2.4751298090
   49      H      -2.0343249404     4.1797164854     1.3662908926
   50      H       1.4468779732     2.5015232932    -1.7115770197
   51      H       1.7588303031     1.3530560876    -3.0757464057
   52      H       2.9906431546     2.5973876244    -2.6523403774
   53      H       0.3171622795     0.3264353507    -0.8096845729
   54      H      -0.1892371602    -0.3036326627     0.7946116515
   55      H      -0.1158363170    -1.9923499859    -1.8364319907
   56      H      -0.7076806247    -2.5658614493    -0.2125820255
 ----------------------------------------------------------------

    9   -1510.2841584657      2.33E-09 Convergence criterion met
 Total energy in the final basis set = -1510.28415847
 Final energy is   -1510.28415846572
 **  OPTIMIZATION CONVERGED  **

                    Orbital Energies (a.u.)
 --------------------------------------------------------------

 Alpha MOs
 -- Occupied --
-18.945 -18.941 -18.920 -18.918 -18.888 -18.887 -18.884 -18.873
-18.867 -18.864 -10.108 -10.101 -10.094 -10.094 -10.069 -10.068
-10.063 -10.061 -10.059 -10.058 -10.057 -10.055 -10.042 -10.039
-10.035 -10.032 -10.022 -10.020 -10.019 -10.017  -1.021  -1.016
 -1.002  -0.997  -0.971  -0.968  -0.945  -0.937  -0.931  -0.925
 -0.765  -0.761  -0.726  -0.722  -0.711  -0.703  -0.691  -0.667
 -0.665  -0.612  -0.597  -0.577  -0.546  -0.542  -0.537  -0.535
 -0.513  -0.509  -0.485  -0.478  -0.463  -0.456  -0.454  -0.444
 -0.436  -0.431  -0.423  -0.416  -0.416  -0.413  -0.409  -0.394
 -0.391  -0.380  -0.377  -0.366  -0.362  -0.358  -0.353  -0.345
 -0.341  -0.338  -0.336  -0.331  -0.329  -0.326  -0.319  -0.313
 -0.307  -0.306  -0.305  -0.302  -0.298  -0.291  -0.279  -0.274
 -0.268  -0.260  -0.246  -0.243  -0.240  -0.235  -0.232  -0.187
 -0.181  -0.167  -0.164  -0.161  -0.155  -0.149  -0.146  -0.143
 -0.142

          Ground-State Mulliken Net Atomic Charges

     Atom                 Charge (a.u.)
  ----------------------------------------
      1 O                    -0.207376
      2 C                     0.216337
      3 C                    -0.077654
      4 C                    -0.080669
      5 C                     0.217107
      6 O                    -0.182215
      7 C                    -0.052535
      8 C                    -0.052818
      9 O                    -0.180928
     10 C                     0.221184
     11 C                    -0.080653
     12 C                    -0.075974
     13 C                     0.212879
     14 O                    -0.216316
     15 O                    -0.167737
     16 O                    -0.166261
     17 O                    -0.217214
     18 C                    -0.126197
     19 C                     0.023454
     20 C                    -0.142432
     21 C                    -0.145035
     22 C                     0.024273
     23 O                    -0.192076
     24 H                     0.083043
     25 H                     0.086902
     26 H                     0.090690
     27 H                     0.077690
     28 H                     0.073538
     29 H                     0.078169
     30 H                     0.073710
     31 H                     0.084781
     32 O                    -0.214946
     33 C                    -0.128859
     34 C                     0.025128
     35 C                    -0.144014
     36 C                    -0.143442
     37 C                     0.024509
     38 O                    -0.188826
     39 H                     0.087485
     40 H                     0.084488
     41 H                     0.094851
     42 H                     0.084585
     43 H                     0.078614
     44 H                     0.073756
     45 H                     0.078495
     46 H                     0.073398
     47 H                     0.090561
     48 H                     0.092914
     49 H                     0.092425
     50 H                     0.091457
     51 H                     0.089165
     52 H                     0.093434
     53 H                     0.078010
     54 H                     0.103375
     55 H                     0.083898
     56 H                     0.099871
  ----------------------------------------
  Sum of atomic charges =    -0.000000

                    Cartesian Multipole Moments
 -----------------------------------------------------------------
    Charge (ESU x 10^10)
                 0.0000
    Dipole Moment (Debye)
         X      -0.9646      Y       0.6888      Z      -1.6643
       Tot       2.0432
    Quadrupole Moments (Debye-Ang)
        XX    -145.8359     XY     -12.1768     YY    -156.6858
        XZ      13.2820     YZ       1.9721     ZZ    -164.5632

 Total job time:  51.40s(wall), 2445.23s(cpu)
        *  Thank you very much for using Q-Chem.  Have a nice day.  *
