 Q-Chem 5.0, Q-Chem, Inc., Pleasanton, CA (2017)
 Q-Chem 5.0.1 for Intel X86 EM64T Linux

User input:
--------------------------------------------------------------
$molecule
0  1
O -2.2817590936 0.4886570097 1.0757743264
C -3.1826165613 1.1851377974 0.5531346057
C -4.3958812835 0.6715613779 -0.2915712177
C -4.2562849451 -0.8554026428 -0.6888232711
C -2.9129969418 -1.5196588006 -0.2095392031
O -1.8950809342 -1.1534023635 -1.1590071056
C -0.594488092 -1.7431318965 -0.7643870787
C 0.3063164792 -0.588774553 -0.2081880082
O 1.6569443707 -1.1429699036 0.0421212306
C 2.44377187 -0.2049592548 0.7934442033
C 3.9372300357 -0.6855674675 0.7213659498
C 4.6553136693 -0.581125315 -0.6882585752
C 3.9854731514 0.3004947904 -1.8045399911
O 4.4610271859 0.5038186199 -2.9433846779
O -3.2595440927 2.6043884306 0.6686951022
O 2.8136103983 0.9560203828 -1.3173929927
O 1.9839879626 0.7623967673 1.4355270948
C 2.2559610498 1.8571120889 -2.3508879233
C 4.910347153 0.1721600504 1.6356780476
C 6.1401543634 -0.7393446266 2.0145819959
C 6.8786961101 -0.8238904899 0.6268227829
C 6.0012921136 0.1535523976 -0.2531894002
O 5.5063249057 1.1635911974 0.7088193199
H 3.9441197053 -1.7440693782 1.0413212281
H 4.8535677797 -1.5801015523 -1.1167097111
H 4.4026333092 0.6843356248 2.4762431374
H 6.7661774733 -0.2434413562 2.773528218
H 5.8313365076 -1.7251302637 2.3974104223
H 7.9153797944 -0.4576337735 0.693221269
H 6.8919813105 -1.8456803742 0.2143432881
H 6.5358915082 0.6387520709 -1.093289943
O -2.7618973735 -2.3525335185 0.7094650806
C -2.1300881906 3.1052218539 1.489716313
C -5.7264129114 0.6318156417 0.5813048448
C -6.9558427813 0.4238863582 -0.3891011234
C -6.8081850281 -1.1019605201 -0.7471630414
C -5.50639549 -1.4782493309 0.0615646747
O -5.6164464842 -0.6602192111 1.2933922979
H -4.5122675608 1.3239665375 -1.1754994794
H -4.3280461084 -0.9792837491 -1.7840306448
H -1.1513775136 2.8453245762 1.0370903418
H -5.8270484592 1.4700029323 1.2980728299
H -7.9003856971 0.6265024846 0.1405881314
H -6.9007830328 1.0770168326 -1.2748269494
H -7.6694803907 -1.685881874 -0.3857482107
H -6.6907052574 -1.2764853573 -1.8286128905
H -5.3904761604 -2.5482179862 0.3214482907
H -2.1618194357 2.692580587 2.5186310711
H -2.2444380157 4.2040209314 1.5258199939
H 1.4314210561 2.4067671927 -1.8606038427
H 1.8601202236 1.2862842806 -3.2160098759
H 3.0180664787 2.5736991351 -2.7183441512
H 0.3706136783 0.2284101601 -0.9588063969
H -0.1527931654 -0.1705649019 0.7150153576
H -0.1362978438 -2.1972215361 -1.6672546412
H -0.7635976766 -2.5191840018 0.0123897805
$end

$rem
JOBTYPE                   OPT
METHOD                    B3LYP
DFT_D                     d3_op
BASIS                     STO-3G
GEOM_OPT_MAX_CYCLES       100
GEOM_OPT_TOL_GRADIENT     300
GEOM_OPT_TOL_DISPLACEMENT 1200
GEOM_OPT_TOL_ENERGY       100
SYMMETRY                  False
THRESH                    12
SCF_CONVERGENCE           8
MAX_SUB_FILE_NUM          128
MEM_STATIC                400
MEM_TOTAL                 4000
$end
--------------------------------------------------------------

   16   -1510.2844117459      6.78E-09 Convergence criterion met
 Total energy in the final basis set = -1510.28441175
   14   -1510.2844492781      2.13E-09 Convergence criterion met
 Total energy in the final basis set = -1510.28444928
   14   -1510.2861490899      4.86E-09 Convergence criterion met
 Total energy in the final basis set = -1510.28614909
   13   -1510.2865324707      4.74E-09 Convergence criterion met
 Total energy in the final basis set = -1510.28653247
   13   -1510.2878839807      3.19E-09 Convergence criterion met
 Total energy in the final basis set = -1510.28788398
   13   -1510.2893336654      8.45E-09 Convergence criterion met
 Total energy in the final basis set = -1510.28933367
   13   -1510.2896211960      6.57E-09 Convergence criterion met
 Total energy in the final basis set = -1510.28962120
   13   -1510.2909713125      7.18E-09 Convergence criterion met
   12   -1510.2935989309      5.64E-09 Convergence criterion met
 Total energy in the final basis set = -1510.29359893
   13   -1510.2935253679      6.67E-09 Convergence criterion met
 Total energy in the final basis set = -1510.29352537
   13   -1510.2936096590      2.37E-09 Convergence criterion met
 Total energy in the final basis set = -1510.29360966
   11   -1510.2936122685      8.65E-09 Convergence criterion met
 Total energy in the final basis set = -1510.29361227
   11   -1510.2936094574      6.04E-09 Convergence criterion met
 Total energy in the final basis set = -1510.29360946
   10   -1510.2936217739      9.18E-09 Convergence criterion met
 Total energy in the final basis set = -1510.29362177

             Standard Nuclear Orientation (Angstroms)
    I     Atom           X                Y                Z
 ----------------------------------------------------------------
    1      O      -2.2473034747     0.0003754293     1.3997997075
    2      C      -2.7800141929     0.8609628232     0.6580319588
    3      C      -4.0402523355     0.6561619087    -0.2495077045
    4      C      -4.1467710619    -0.8055495068    -0.8644880030
    5      C      -2.9023927263    -1.7093452785    -0.5499884578
    6      O      -1.8341562088    -1.2495089855    -1.3964614713
    7      C      -0.5307157740    -1.8011284572    -0.9505189164
    8      C       0.1360536201    -0.6651107070    -0.1064585485
    9      O       1.5259175790    -1.0379410296     0.2455725382
   10      C       2.1675006385     0.0883961957     0.8499766376
   11      C       3.6682210959    -0.2811890708     1.1111692152
   12      C       4.4171710317    -0.8090621790    -0.1840279270
   13      C       3.5224494867    -0.8297177996    -1.4705650862
   14      O       3.3400832632    -1.7856604226    -2.2541738015
   15      O      -2.3275391883     2.2053183502     0.5408172463
   16      O       2.9604814084     0.4788692785    -1.6507011328
   17      O       1.5921261991     1.1658073073     1.1252847777
   18      C       2.1457726809     0.5195344504    -2.8854246192
   19      C       4.5209891400     1.0060009018     1.4626340425
   20      C       5.8854580213     0.5369082780     2.1023056169
   21      C       6.6413149165    -0.0071128329     0.8328572165
   22      C       5.5778314708     0.2726348082    -0.3025119061
   23      O       4.9211882249     1.5250552181     0.1332870239
   24      H       3.7064665137    -1.0342487079     1.9200449773
   25      H       4.8171994517    -1.8272016797    -0.0367400598
   26      H       3.9565006828     1.7753884412     2.0244345106
   27      H       6.4146196247     1.3911593515     2.5537292815
   28      H       5.7384428121    -0.2363407771     2.8732685976
   29      H       7.5668256348     0.5584513379     0.6394212110
   30      H       6.8910254694    -1.0772697708     0.9119379058
   31      H       5.9962121293     0.3869875218    -1.3212976744
   32      O      -2.8267295132    -2.6838023400     0.2262054756
   33      C      -1.1893664179     2.4575548295     1.4654632667
   34      C      -5.3680874619     0.6915891851     0.6309706158
   35      C      -6.6115718817     0.8027737805    -0.3384151250
   36      C      -6.7032648200    -0.6692809307    -0.8891356449
   37      C      -5.4672422973    -1.3377455208    -0.1696368930
   38      O      -5.4521397127    -0.6861104677     1.1612540463
   39      H      -4.0457563545     1.4362706583    -1.0309808057
   40      H      -4.2569218669    -0.7485275679    -1.9624476377
   41      H      -0.2622533945     1.9075176630     1.1770315851
   42      H      -5.3495009033     1.4269360206     1.4590013709
   43      H      -7.5153545412     1.0816650945     0.2263344572
   44      H      -6.4487557180     1.5470610817    -1.1342520342
   45      H      -7.6405597388    -1.1573423340    -0.5782139491
   46      H      -6.6241685295    -0.7196519016    -1.9868812574
   47      H      -5.5093313137    -2.4385220128    -0.0583981016
   48      H      -1.4568926121     2.1815732106     2.5050637906
   49      H      -1.0018899076     3.5452999018     1.4106031688
   50      H       1.6250924995     1.4947463951    -2.8766755784
   51      H       1.4021483444    -0.3019693804    -2.9174692796
   52      H       2.7820338490     0.4503256179    -3.7917335383
   53      H       0.1355880154     0.2710541484    -0.7051108705
   54      H      -0.4893961116    -0.4826346481     0.7997694974
   55      H       0.0678880092    -2.0395451418    -1.8535985007
   56      H      -0.6882438700    -2.7180827800    -0.3441676274
 ----------------------------------------------------------------

   10   -1510.2936221503      7.93E-09 Convergence criterion met
 Total energy in the final basis set = -1510.29362215
 Final energy is   -1510.29362215034
 **  OPTIMIZATION CONVERGED  **

                    Orbital Energies (a.u.)
 --------------------------------------------------------------

 Alpha MOs
 -- Occupied --
-18.939 -18.937 -18.933 -18.926 -18.889 -18.888 -18.882 -18.878
-18.877 -18.873 -10.107 -10.103 -10.099 -10.099 -10.068 -10.064
-10.063 -10.062 -10.060 -10.059 -10.059 -10.050 -10.040 -10.040
-10.038 -10.038 -10.022 -10.021 -10.020 -10.020  -1.019  -1.015
 -1.007  -1.006  -0.971  -0.971  -0.942  -0.938  -0.935  -0.935
 -0.766  -0.764  -0.728  -0.724  -0.711  -0.707  -0.696  -0.661
 -0.659  -0.614  -0.598  -0.581  -0.547  -0.545  -0.538  -0.538
 -0.515  -0.510  -0.484  -0.478  -0.466  -0.461  -0.454  -0.443
 -0.437  -0.432  -0.429  -0.416  -0.412  -0.410  -0.407  -0.400
 -0.391  -0.382  -0.371  -0.369  -0.361  -0.358  -0.355  -0.351
 -0.346  -0.337  -0.335  -0.333  -0.332  -0.329  -0.325  -0.311
 -0.310  -0.307  -0.305  -0.300  -0.294  -0.293  -0.283  -0.278
 -0.271  -0.260  -0.251  -0.248  -0.247  -0.235  -0.235  -0.186
 -0.176  -0.175  -0.173  -0.160  -0.158  -0.152  -0.150  -0.145
 -0.144

          Ground-State Mulliken Net Atomic Charges

     Atom                 Charge (a.u.)
  ----------------------------------------
      1 O                    -0.217033
      2 C                     0.211877
      3 C                    -0.078100
      4 C                    -0.079170
      5 C                     0.214787
      6 O                    -0.181249
      7 C                    -0.053036
      8 C                    -0.061849
      9 O                    -0.173684
     10 C                     0.222167
     11 C                    -0.077851
     12 C                    -0.078779
     13 C                     0.211944
     14 O                    -0.214583
     15 O                    -0.167855
     16 O                    -0.169845
     17 O                    -0.214407
     18 C                    -0.128749
     19 C                     0.024617
     20 C                    -0.143866
     21 C                    -0.143856
     22 C                     0.025935
     23 O                    -0.185887
     24 H                     0.086579
     25 H                     0.085992
     26 H                     0.090227
     27 H                     0.078403
     28 H                     0.073599
     29 H                     0.078205
     30 H                     0.074155
     31 H                     0.082596
     32 O                    -0.204554
     33 C                    -0.142349
     34 C                     0.025945
     35 C                    -0.143879
     36 C                    -0.143700
     37 C                     0.025125
     38 O                    -0.186267
     39 H                     0.087392
     40 H                     0.085378
     41 H                     0.110422
     42 H                     0.083252
     43 H                     0.078588
     44 H                     0.074065
     45 H                     0.078583
     46 H                     0.073402
     47 H                     0.089721
     48 H                     0.085562
     49 H                     0.087468
     50 H                     0.091618
     51 H                     0.088422
     52 H                     0.086956
     53 H                     0.082455
     54 H                     0.105495
     55 H                     0.087534
     56 H                     0.102082
  ----------------------------------------
  Sum of atomic charges =     0.000000

                    Cartesian Multipole Moments
 -----------------------------------------------------------------
    Charge (ESU x 10^10)
                 0.0000
    Dipole Moment (Debye)
         X       0.3166      Y       1.3343      Z      -1.0869
       Tot       1.7498
    Quadrupole Moments (Debye-Ang)
        XX    -141.4388     XY      -8.9536     YY    -167.6646
        XZ      14.2261     YZ       1.1907     ZZ    -157.3033

 Total job time:  108.89s(wall), 5193.21s(cpu)
        *  Thank you very much for using Q-Chem.  Have a nice day.  *
