 Q-Chem 5.0, Q-Chem, Inc., Pleasanton, CA (2017)
 Q-Chem 5.0.1 for Intel X86 EM64T Linux

User input:
--------------------------------------------------------------
$molecule
0  1
O -3.94934 -3.66094 2.70899
C -3.26408 -4.56952 2.26188
C -3.36658 -6.02376 2.66595
C -4.22157 -6.35123 3.90111
C -5.02212 -5.21032 4.48892
O -4.21934 -4.43997 5.28109
C -4.90703 -3.33179 5.87124
C -4.49169 -2.03211 5.18973
O -5.06796 -0.9119 5.87959
C -4.97296 0.27938 5.23851
C -5.29234 1.45497 6.13107
C -4.26184 1.72709 7.23664
C -2.92183 1.0379 7.0751
O -1.96566 1.16222 7.82666
O -2.40553 -4.29752 1.24432
O -2.60821 0.38063 5.92614
O -4.69162 0.39315 4.05056
C -1.37167 -0.15679 5.61702
C -5.27368 2.82649 5.41525
C -6.1352 3.82173 6.19194
C -5.2795 4.03656 7.42404
C -4.03387 3.23206 7.03547
O -3.9793 3.33305 5.63303
H -6.32034 1.2882 6.52554
H -4.65039 1.44309 8.23895
H -5.61142 2.78157 4.35705
H -6.14651 4.76517 5.59982
H -7.18186 3.50575 6.39054
H -5.04732 5.12158 7.50544
H -5.71628 3.66516 8.37651
H -3.14105 3.60272 7.58608
O -6.23731 -5.0875 4.37091
C -2.20679 -3.04081 0.71194
C -4.05398 -6.86535 1.58135
C -3.66642 -8.3349 1.73771
C -4.45862 -8.70269 2.97336
C -5.17892 -7.3787 3.24848
O -5.40572 -6.85222 1.96332
H -2.3188 -6.36135 2.83183
H -3.66377 -6.84293 4.72979
H -1.83016 -2.34878 1.49552
H -3.83186 -6.51575 0.54917
H -4.0835 -8.8941 0.86989
H -2.57161 -8.51435 1.80337
H -5.205 -9.479 2.69186
H -3.8574 -9.05491 3.83916
H -6.08527 -7.57091 3.86424
H -3.15701 -2.64896 0.29011
H -1.45459 -3.10468 -0.1008
H -1.41514 -0.61813 4.60913
H -1.09797 -0.93775 6.35825
H -0.59888 0.64115 5.60576
H -3.38749 -1.95134 5.16641
H -4.89414 -2.06916 4.15764
H -4.60449 -3.28913 6.93901
H -6.01829 -3.39256 5.87585
$end

$opt
CONSTRAINT
tors           1           2           3           4     -11.192
tors           3           4           5           6     -80.944
tors           4           5           6           7    +179.751
tors           5           6           7           8    -106.558
tors           6           7           8           9    -173.625
tors           7           8           9          10    -168.698
tors           8           9          10          11    -166.448
tors           9          10          11          12     +68.810
tors          11          12          13          14    +177.704
ENDCONSTRAINT
$end

$rem
JOBTYPE                   OPT
METHOD                    B3LYP
DFT_D                     d3_op
BASIS                     STO-3G
GEOM_OPT_MAX_CYCLES       100
GEOM_OPT_TOL_GRADIENT     300
GEOM_OPT_TOL_DISPLACEMENT 1200
GEOM_OPT_TOL_ENERGY       100
SYMMETRY                  False
THRESH                    12
SCF_CONVERGENCE           8
MAX_SUB_FILE_NUM          128
MEM_STATIC                400
MEM_TOTAL                 4000
$end
--------------------------------------------------------------

   15   -1510.1513802392      6.34E-09 Convergence criterion met
 Total energy in the final basis set = -1510.15138024
   13   -1510.2227624225      8.63E-09 Convergence criterion met
 Total energy in the final basis set = -1510.22276242
   13   -1510.2612407863      7.62E-09 Convergence criterion met
 Total energy in the final basis set = -1510.26124079
   14   -1510.2776389530      5.72E-09 Convergence criterion met
 Total energy in the final basis set = -1510.27763895
   13   -1510.2813023263      9.17E-09 Convergence criterion met
 Total energy in the final basis set = -1510.28130233
   13   -1510.2834125720      4.49E-09 Convergence criterion met
 Total energy in the final basis set = -1510.28341257
   12   -1510.2838684188      6.12E-09 Convergence criterion met
 Total energy in the final basis set = -1510.28386842
   13   -1510.2840558950      2.45E-09 Convergence criterion met
   10   -1510.2843114606      8.43E-09 Convergence criterion met
 Total energy in the final basis set = -1510.28431146
   11   -1510.2843271156      2.87E-09 Convergence criterion met
 Total energy in the final basis set = -1510.28432712
   10   -1510.2843351144      6.15E-09 Convergence criterion met
 Total energy in the final basis set = -1510.28433511
    9   -1510.2843303269      4.87E-09 Convergence criterion met
 Total energy in the final basis set = -1510.28433033
    9   -1510.2843328030      5.40E-09 Convergence criterion met
 Total energy in the final basis set = -1510.28433280
    9   -1510.2843338317      4.36E-09 Convergence criterion met
 Total energy in the final basis set = -1510.28433383

             Standard Nuclear Orientation (Angstroms)
    I     Atom           X                Y                Z
 ----------------------------------------------------------------
    1      O      -2.2817590936     0.4886570097     1.0757743264
    2      C      -3.1826165613     1.1851377974     0.5531346057
    3      C      -4.3958812835     0.6715613779    -0.2915712177
    4      C      -4.2562849451    -0.8554026428    -0.6888232711
    5      C      -2.9129969418    -1.5196588006    -0.2095392031
    6      O      -1.8950809342    -1.1534023635    -1.1590071056
    7      C      -0.5944880920    -1.7431318965    -0.7643870787
    8      C       0.3063164792    -0.5887745530    -0.2081880082
    9      O       1.6569443707    -1.1429699036     0.0421212306
   10      C       2.4437718700    -0.2049592548     0.7934442033
   11      C       3.9372300357    -0.6855674675     0.7213659498
   12      C       4.6553136693    -0.5811253150    -0.6882585752
   13      C       3.9854731514     0.3004947904    -1.8045399911
   14      O       4.4610271859     0.5038186199    -2.9433846779
   15      O      -3.2595440927     2.6043884306     0.6686951022
   16      O       2.8136103983     0.9560203828    -1.3173929927
   17      O       1.9839879626     0.7623967673     1.4355270948
   18      C       2.2559610498     1.8571120889    -2.3508879233
   19      C       4.9103471530     0.1721600504     1.6356780476
   20      C       6.1401543634    -0.7393446266     2.0145819959
   21      C       6.8786961101    -0.8238904899     0.6268227829
   22      C       6.0012921136     0.1535523976    -0.2531894002
   23      O       5.5063249057     1.1635911974     0.7088193199
   24      H       3.9441197053    -1.7440693782     1.0413212281
   25      H       4.8535677797    -1.5801015523    -1.1167097111
   26      H       4.4026333092     0.6843356248     2.4762431374
   27      H       6.7661774733    -0.2434413562     2.7735282180
   28      H       5.8313365076    -1.7251302637     2.3974104223
   29      H       7.9153797944    -0.4576337735     0.6932212690
   30      H       6.8919813105    -1.8456803742     0.2143432881
   31      H       6.5358915082     0.6387520709    -1.0932899430
   32      O      -2.7618973735    -2.3525335185     0.7094650806
   33      C      -2.1300881906     3.1052218539     1.4897163130
   34      C      -5.7264129114     0.6318156417     0.5813048448
   35      C      -6.9558427813     0.4238863582    -0.3891011234
   36      C      -6.8081850281    -1.1019605201    -0.7471630414
   37      C      -5.5063954900    -1.4782493309     0.0615646747
   38      O      -5.6164464842    -0.6602192111     1.2933922979
   39      H      -4.5122675608     1.3239665375    -1.1754994794
   40      H      -4.3280461084    -0.9792837491    -1.7840306448
   41      H      -1.1513775136     2.8453245762     1.0370903418
   42      H      -5.8270484592     1.4700029323     1.2980728299
   43      H      -7.9003856971     0.6265024846     0.1405881314
   44      H      -6.9007830328     1.0770168326    -1.2748269494
   45      H      -7.6694803907    -1.6858818740    -0.3857482107
   46      H      -6.6907052574    -1.2764853573    -1.8286128905
   47      H      -5.3904761604    -2.5482179862     0.3214482907
   48      H      -2.1618194357     2.6925805870     2.5186310711
   49      H      -2.2444380157     4.2040209314     1.5258199939
   50      H       1.4314210561     2.4067671927    -1.8606038427
   51      H       1.8601202236     1.2862842806    -3.2160098759
   52      H       3.0180664787     2.5736991351    -2.7183441512
   53      H       0.3706136783     0.2284101601    -0.9588063969
   54      H      -0.1527931654    -0.1705649019     0.7150153576
   55      H      -0.1362978438    -2.1972215361    -1.6672546412
   56      H      -0.7635976766    -2.5191840018     0.0123897805
 ----------------------------------------------------------------

    9   -1510.2843336832      1.89E-09 Convergence criterion met
 Total energy in the final basis set = -1510.28433368
 Final energy is   -1510.28433368319
 **  OPTIMIZATION CONVERGED  **

                    Orbital Energies (a.u.)
 --------------------------------------------------------------

 Alpha MOs
 -- Occupied --
-18.946 -18.943 -18.919 -18.917 -18.889 -18.888 -18.884 -18.874
-18.865 -18.864 -10.109 -10.102 -10.094 -10.093 -10.069 -10.069
-10.063 -10.059 -10.058 -10.058 -10.056 -10.054 -10.042 -10.039
-10.036 -10.032 -10.022 -10.021 -10.019 -10.017  -1.022  -1.016
 -1.002  -0.997  -0.971  -0.968  -0.945  -0.938  -0.930  -0.924
 -0.765  -0.760  -0.726  -0.722  -0.711  -0.703  -0.690  -0.667
 -0.665  -0.612  -0.597  -0.576  -0.546  -0.542  -0.537  -0.535
 -0.513  -0.509  -0.485  -0.477  -0.463  -0.456  -0.454  -0.444
 -0.435  -0.431  -0.423  -0.417  -0.416  -0.413  -0.410  -0.393
 -0.392  -0.380  -0.377  -0.366  -0.361  -0.357  -0.353  -0.344
 -0.342  -0.337  -0.336  -0.331  -0.328  -0.326  -0.320  -0.313
 -0.308  -0.306  -0.305  -0.302  -0.297  -0.291  -0.279  -0.274
 -0.268  -0.260  -0.246  -0.242  -0.238  -0.235  -0.233  -0.187
 -0.182  -0.166  -0.163  -0.161  -0.155  -0.148  -0.146  -0.143
 -0.142

          Ground-State Mulliken Net Atomic Charges

     Atom                 Charge (a.u.)
  ----------------------------------------
      1 O                    -0.207107
      2 C                     0.215688
      3 C                    -0.078119
      4 C                    -0.080771
      5 C                     0.217176
      6 O                    -0.181871
      7 C                    -0.053326
      8 C                    -0.052318
      9 O                    -0.181010
     10 C                     0.221360
     11 C                    -0.081002
     12 C                    -0.076768
     13 C                     0.212273
     14 O                    -0.216304
     15 O                    -0.167748
     16 O                    -0.166250
     17 O                    -0.216842
     18 C                    -0.126202
     19 C                     0.023759
     20 C                    -0.142976
     21 C                    -0.144752
     22 C                     0.024686
     23 O                    -0.191508
     24 H                     0.083524
     25 H                     0.086518
     26 H                     0.089799
     27 H                     0.077716
     28 H                     0.073459
     29 H                     0.078105
     30 H                     0.073589
     31 H                     0.085182
     32 O                    -0.215286
     33 C                    -0.128776
     34 C                     0.025342
     35 C                    -0.143586
     36 C                    -0.144023
     37 C                     0.025125
     38 O                    -0.187983
     39 H                     0.087065
     40 H                     0.084746
     41 H                     0.094103
     42 H                     0.084871
     43 H                     0.078673
     44 H                     0.073793
     45 H                     0.078539
     46 H                     0.073432
     47 H                     0.089819
     48 H                     0.093426
     49 H                     0.092631
     50 H                     0.092254
     51 H                     0.088830
     52 H                     0.094519
     53 H                     0.078301
     54 H                     0.102006
     55 H                     0.083008
     56 H                     0.101212
  ----------------------------------------
  Sum of atomic charges =    -0.000000

                    Cartesian Multipole Moments
 -----------------------------------------------------------------
    Charge (ESU x 10^10)
                -0.0000
    Dipole Moment (Debye)
         X      -1.0677      Y       0.6354      Z      -1.7683
       Tot       2.1612
    Quadrupole Moments (Debye-Ang)
        XX    -147.1083     XY     -13.4006     YY    -156.9037
        XZ      13.1725     YZ       2.2000     ZZ    -163.3733

 Total job time:  48.10s(wall), 2287.27s(cpu)
        *  Thank you very much for using Q-Chem.  Have a nice day.  *
