 Q-Chem 5.0, Q-Chem, Inc., Pleasanton, CA (2017)
 Q-Chem 5.0.1 for Intel X86 EM64T Linux

User input:
--------------------------------------------------------------
$molecule
0  1
O -3.94934 -3.66094 2.70899
C -3.26408 -4.56952 2.26188
C -3.36658 -6.02376 2.66595
C -4.03907 -6.33284 4.01357
C -4.69256 -5.16823 4.72401
O -3.739 -4.39796 5.32638
C -4.27798 -3.24581 5.98311
C -4.06673 -2.00387 5.12341
O -4.50778 -0.83609 5.83379
C -4.56843 0.30369 5.10141
C -4.83892 1.52915 5.94149
C -3.74902 1.86171 6.97096
C -2.41942 1.16131 6.77527
O -1.43097 1.30723 7.47971
O -2.4457 -4.30738 1.2093
O -2.1584 0.48032 5.62612
O -4.40742 0.3436 3.88659
C -0.94429 -0.08629 5.28414
C -4.87705 2.85885 5.1548
C -5.69424 3.89069 5.93158
C -4.76184 4.17708 7.09174
C -3.53948 3.35324 6.67137
O -3.57378 3.37828 5.26424
H -5.83393 1.37188 6.41616
H -4.08135 1.63473 8.00756
H -5.2801 2.75555 4.12397
H -5.75353 4.80081 5.29215
H -6.72229 3.57841 6.21514
H -4.52834 5.26489 7.09409
H -5.13565 3.86319 8.09054
H -2.61572 3.75426 7.14412
O -5.90498 -5.00388 4.81688
C -2.26191 -3.05431 0.66298
C -4.24997 -6.81766 1.69301
C -3.9066 -8.30421 1.77159
C -4.50822 -8.65956 3.11402
C -5.12493 -7.31369 3.50937
O -5.52515 -6.75797 2.28001
H -2.32325 -6.41268 2.66524
H -3.37718 -6.84914 4.7448
H -1.85166 -2.36048 1.42799
H -4.17501 -6.45882 0.64286
H -4.48129 -8.82935 0.97548
H -2.82474 -8.53247 1.65952
H -5.31685 -9.40622 2.94818
H -3.79148 -9.04214 3.87238
H -5.93224 -7.47989 4.25642
H -3.22579 -2.65946 0.27651
H -1.54212 -3.1259 -0.17798
H -1.03151 -0.56287 4.28631
H -0.6611 -0.86066 6.02871
H -0.15674 0.69549 5.2333
H -3.00211 -1.90916 4.82762
H -4.71089 -2.12143 4.23086
H -3.71671 -3.11645 6.93264
H -5.34869 -3.32149 6.27882
$end

$opt
CONSTRAINT
tors           1           2           3           4     -20.216
tors           3           4           5           6     -77.400
tors           4           5           6           7    +177.961
tors           5           6           7           8    -101.480
tors           6           7           8           9    -175.214
tors           7           8           9          10    -170.064
tors           8           9          10          11    -171.510
tors           9          10          11          12     +63.244
tors          11          12          13          14    +179.176
ENDCONSTRAINT
$end

$rem
JOBTYPE                   OPT
METHOD                    B3LYP
DFT_D                     d3_op
BASIS                     STO-3G
GEOM_OPT_MAX_CYCLES       100
GEOM_OPT_TOL_GRADIENT     300
GEOM_OPT_TOL_DISPLACEMENT 1200
GEOM_OPT_TOL_ENERGY       100
SYMMETRY                  False
THRESH                    12
SCF_CONVERGENCE           8
MAX_SUB_FILE_NUM          128
MEM_STATIC                400
MEM_TOTAL                 4000
$end
--------------------------------------------------------------

   15   -1510.1526635641      6.30E-09 Convergence criterion met
 Total energy in the final basis set = -1510.15266356
   13   -1510.2238231967      7.88E-09 Convergence criterion met
 Total energy in the final basis set = -1510.22382320
   13   -1510.2620661742      6.55E-09 Convergence criterion met
 Total energy in the final basis set = -1510.26206617
   13   -1510.2782678531      8.50E-09 Convergence criterion met
 Total energy in the final basis set = -1510.27826785
   14   -1510.2821045287      3.04E-09 Convergence criterion met
 Total energy in the final basis set = -1510.28210453
   13   -1510.2843613641      5.06E-09 Convergence criterion met
 Total energy in the final basis set = -1510.28436136
   13   -1510.2848728549      2.67E-09 Convergence criterion met
 Total energy in the final basis set = -1510.28487285
   13   -1510.2851263069      2.12E-09 Convergence criterion met
   10   -1510.2854082209      9.12E-09 Convergence criterion met
 Total energy in the final basis set = -1510.28540822
   11   -1510.2854298790      5.41E-09 Convergence criterion met
 Total energy in the final basis set = -1510.28542988
    9   -1510.2854447303      9.85E-09 Convergence criterion met
 Total energy in the final basis set = -1510.28544473
    9   -1510.2854541647      8.75E-09 Convergence criterion met
 Total energy in the final basis set = -1510.28545416
    9   -1510.2854604960      8.72E-09 Convergence criterion met
 Total energy in the final basis set = -1510.28546050
    9   -1510.2854618207      5.28E-09 Convergence criterion met
 Total energy in the final basis set = -1510.28546182

             Standard Nuclear Orientation (Angstroms)
    I     Atom           X                Y                Z
 ----------------------------------------------------------------
    1      O      -2.2397795591     0.3356234663     1.1219263678
    2      C      -3.0489547352     1.0985591371     0.5439343867
    3      C      -4.3347056655     0.6693000390    -0.2384066939
    4      C      -4.2857024672    -0.8520382756    -0.6839188902
    5      C      -2.9275991153    -1.5604336523    -0.3272066427
    6      O      -1.9615889676    -1.1275139729    -1.3035471033
    7      C      -0.6347820323    -1.7171694013    -1.0051825276
    8      C       0.2158808280    -0.5984830409    -0.3122318630
    9      O       1.5907936383    -1.1045956755    -0.0986611731
   10      C       2.3127401203    -0.1871832649     0.7374357571
   11      C       3.8148876836    -0.6423579606     0.7584333925
   12      C       4.5904824979    -0.6052403553    -0.6221295957
   13      C       3.9669197966     0.2419526190    -1.7909027688
   14      O       4.4657133974     0.3806057051    -2.9294524644
   15      O      -2.9262599629     2.5184823370     0.5223282782
   16      O       2.8199699120     0.9682179185    -1.3447641753
   17      O       1.7948077399     0.7556405003     1.3725104645
   18      C       2.2929243788     1.8246876166    -2.4303635400
   19      C       4.7326669527     0.2828044724     1.6644268408
   20      C       5.9446082544    -0.5929439725     2.1644394785
   21      C       6.7445492290    -0.7737682552     0.8207646621
   22      C       5.9182249661     0.1474939188    -0.1628221404
   23      O       5.3753162948     1.2157451451     0.7076422532
   24      H       3.8247054089    -1.6803761154     1.1403593507
   25      H       4.7991645152    -1.6205611135    -1.0042723070
   26      H       4.1774279541     0.8443071617     2.4410858761
   27      H       6.5359433249    -0.0408030698     2.9124397734
   28      H       5.6203370072    -1.5497826202     2.6036647205
   29      H       7.7803750064    -0.4101721158     0.9104895543
   30      H       6.7678866741    -1.8211088989     0.4787334792
   31      H       6.4989615106     0.5799025112    -1.0009746434
   32      O      -2.7312647973    -2.4588431683     0.5179577548
   33      C      -1.7198243180     2.9308294963     1.2826308703
   34      C      -5.6021762810     0.6486960103     0.7259899113
   35      C      -6.9021919360     0.5072069875    -0.1618233734
   36      C      -6.8402988579    -1.0160951086    -0.5549023753
   37      C      -5.4946376006    -1.4537127177     0.1435309346
   38      O      -5.4862864334    -0.6633594446     1.3984090077
   39      H      -4.4828014656     1.3552554588    -1.0910810506
   40      H      -4.4443723244    -0.9424884076    -1.7734047073
   41      H      -0.8047055490     2.4346088437     0.8993731460
   42      H      -5.6263265349     1.4694941709     1.4692851318
   43      H      -7.8008219773     0.7373174784     0.4323999329
   44      H      -6.8779210406     1.1736773316    -1.0387906650
   45      H      -7.6915472398    -1.5756257111    -0.1355584149
   46      H      -6.8144050521    -1.1740582243    -1.6448274424
   47      H      -5.3944492026    -2.5329976852     0.3694183187
   48      H      -1.8216320789     2.6930961783     2.3610677758
   49      H      -1.6372211156     4.0251251783     1.1504838553
   50      H       1.4660780021     2.4062326424    -1.9827553751
   51      H       1.9064550136     1.2178186123    -3.2748396899
   52      H       3.0700375847     2.5149435883    -2.8167208326
   53      H       0.2446881146     0.2993025038    -0.9677899249
   54      H      -0.2789769508    -0.3042839053     0.6405143169
   55      H      -0.1779057800    -2.0274506111    -1.9669937260
   56      H      -0.7556805802    -2.5944440927    -0.3344543445
 ----------------------------------------------------------------

    9   -1510.2854622470      3.29E-09 Convergence criterion met
 Total energy in the final basis set = -1510.28546225
 Final energy is   -1510.28546224696
 **  OPTIMIZATION CONVERGED  **

                    Orbital Energies (a.u.)
 --------------------------------------------------------------

 Alpha MOs
 -- Occupied --
-18.945 -18.942 -18.920 -18.919 -18.889 -18.886 -18.884 -18.874
-18.868 -18.863 -10.108 -10.101 -10.094 -10.094 -10.069 -10.067
-10.063 -10.061 -10.059 -10.058 -10.055 -10.055 -10.042 -10.039
-10.036 -10.032 -10.022 -10.021 -10.019 -10.017  -1.021  -1.016
 -1.003  -0.998  -0.972  -0.968  -0.944  -0.938  -0.931  -0.925
 -0.765  -0.761  -0.726  -0.722  -0.710  -0.704  -0.691  -0.666
 -0.665  -0.612  -0.597  -0.577  -0.546  -0.542  -0.538  -0.535
 -0.513  -0.509  -0.485  -0.477  -0.464  -0.457  -0.454  -0.444
 -0.435  -0.431  -0.423  -0.416  -0.415  -0.413  -0.410  -0.394
 -0.393  -0.380  -0.376  -0.366  -0.362  -0.358  -0.353  -0.346
 -0.342  -0.337  -0.336  -0.331  -0.329  -0.327  -0.319  -0.313
 -0.307  -0.306  -0.305  -0.302  -0.297  -0.292  -0.280  -0.274
 -0.268  -0.260  -0.246  -0.243  -0.240  -0.235  -0.233  -0.186
 -0.181  -0.168  -0.164  -0.160  -0.155  -0.149  -0.146  -0.143
 -0.142

          Ground-State Mulliken Net Atomic Charges

     Atom                 Charge (a.u.)
  ----------------------------------------
      1 O                    -0.208688
      2 C                     0.215375
      3 C                    -0.078167
      4 C                    -0.080243
      5 C                     0.216285
      6 O                    -0.182367
      7 C                    -0.053145
      8 C                    -0.054846
      9 O                    -0.179843
     10 C                     0.221431
     11 C                    -0.080862
     12 C                    -0.076394
     13 C                     0.212785
     14 O                    -0.216203
     15 O                    -0.167075
     16 O                    -0.166075
     17 O                    -0.219352
     18 C                    -0.125992
     19 C                     0.023552
     20 C                    -0.142719
     21 C                    -0.144862
     22 C                     0.024442
     23 O                    -0.191733
     24 H                     0.083474
     25 H                     0.086754
     26 H                     0.090336
     27 H                     0.077749
     28 H                     0.073529
     29 H                     0.078170
     30 H                     0.073712
     31 H                     0.084974
     32 O                    -0.213005
     33 C                    -0.129663
     34 C                     0.025579
     35 C                    -0.143679
     36 C                    -0.143836
     37 C                     0.024951
     38 O                    -0.187400
     39 H                     0.087208
     40 H                     0.084986
     41 H                     0.097934
     42 H                     0.083821
     43 H                     0.078669
     44 H                     0.073877
     45 H                     0.078655
     46 H                     0.073509
     47 H                     0.090200
     48 H                     0.092301
     49 H                     0.092185
     50 H                     0.091689
     51 H                     0.088979
     52 H                     0.094027
     53 H                     0.076422
     54 H                     0.104083
     55 H                     0.083943
     56 H                     0.100561
  ----------------------------------------
  Sum of atomic charges =    -0.000000

                    Cartesian Multipole Moments
 -----------------------------------------------------------------
    Charge (ESU x 10^10)
                 0.0000
    Dipole Moment (Debye)
         X      -1.0129      Y       0.7061      Z      -1.6132
       Tot       2.0315
    Quadrupole Moments (Debye-Ang)
        XX    -146.2628     XY     -12.4201     YY    -158.0618
        XZ      13.5023     YZ       1.7742     ZZ    -163.3177

 Total job time:  50.61s(wall), 2400.63s(cpu)
        *  Thank you very much for using Q-Chem.  Have a nice day.  *
