 Q-Chem 5.0, Q-Chem, Inc., Pleasanton, CA (2017)
 Q-Chem 5.0.1 for Intel X86 EM64T Linux

User input:
--------------------------------------------------------------
$molecule
0  1
O -2.2397795591 0.3356234663 1.1219263678
C -3.0489547352 1.0985591371 0.5439343867
C -4.3347056655 0.669300039 -0.2384066939
C -4.2857024672 -0.8520382756 -0.6839188902
C -2.9275991153 -1.5604336523 -0.3272066427
O -1.9615889676 -1.1275139729 -1.3035471033
C -0.6347820323 -1.7171694013 -1.0051825276
C 0.215880828 -0.5984830409 -0.312231863
O 1.5907936383 -1.1045956755 -0.0986611731
C 2.3127401203 -0.1871832649 0.7374357571
C 3.8148876836 -0.6423579606 0.7584333925
C 4.5904824979 -0.6052403553 -0.6221295957
C 3.9669197966 0.241952619 -1.7909027688
O 4.4657133974 0.3806057051 -2.9294524644
O -2.9262599629 2.518482337 0.5223282782
O 2.819969912 0.9682179185 -1.3447641753
O 1.7948077399 0.7556405003 1.3725104645
C 2.2929243788 1.8246876166 -2.43036354
C 4.7326669527 0.2828044724 1.6644268408
C 5.9446082544 -0.5929439725 2.1644394785
C 6.744549229 -0.7737682552 0.8207646621
C 5.9182249661 0.1474939188 -0.1628221404
O 5.3753162948 1.2157451451 0.7076422532
H 3.8247054089 -1.6803761154 1.1403593507
H 4.7991645152 -1.6205611135 -1.004272307
H 4.1774279541 0.8443071617 2.4410858761
H 6.5359433249 -0.0408030698 2.9124397734
H 5.6203370072 -1.5497826202 2.6036647205
H 7.7803750064 -0.4101721158 0.9104895543
H 6.7678866741 -1.8211088989 0.4787334792
H 6.4989615106 0.5799025112 -1.0009746434
O -2.7312647973 -2.4588431683 0.5179577548
C -1.719824318 2.9308294963 1.2826308703
C -5.602176281 0.6486960103 0.7259899113
C -6.902191936 0.5072069875 -0.1618233734
C -6.8402988579 -1.0160951086 -0.5549023753
C -5.4946376006 -1.4537127177 0.1435309346
O -5.4862864334 -0.6633594446 1.3984090077
H -4.4828014656 1.3552554588 -1.0910810506
H -4.4443723244 -0.9424884076 -1.7734047073
H -0.804705549 2.4346088437 0.899373146
H -5.6263265349 1.4694941709 1.4692851318
H -7.8008219773 0.7373174784 0.4323999329
H -6.8779210406 1.1736773316 -1.038790665
H -7.6915472398 -1.5756257111 -0.1355584149
H -6.8144050521 -1.1740582243 -1.6448274424
H -5.3944492026 -2.5329976852 0.3694183187
H -1.8216320789 2.6930961783 2.3610677758
H -1.6372211156 4.0251251783 1.1504838553
H 1.4660780021 2.4062326424 -1.9827553751
H 1.9064550136 1.2178186123 -3.2748396899
H 3.0700375847 2.5149435883 -2.8167208326
H 0.2446881146 0.2993025038 -0.9677899249
H -0.2789769508 -0.3042839053 0.6405143169
H -0.17790578 -2.0274506111 -1.966993726
H -0.7556805802 -2.5944440927 -0.3344543445
$end

$rem
JOBTYPE                   OPT
METHOD                    B3LYP
DFT_D                     d3_op
BASIS                     STO-3G
GEOM_OPT_MAX_CYCLES       100
GEOM_OPT_TOL_GRADIENT     300
GEOM_OPT_TOL_DISPLACEMENT 1200
GEOM_OPT_TOL_ENERGY       100
SYMMETRY                  False
THRESH                    12
SCF_CONVERGENCE           8
MAX_SUB_FILE_NUM          128
MEM_STATIC                400
MEM_TOTAL                 4000
$end
--------------------------------------------------------------

   16   -1510.2855215981      5.95E-09 Convergence criterion met
 Total energy in the final basis set = -1510.28552160
   14   -1510.2869466648      5.71E-09 Convergence criterion met
 Total energy in the final basis set = -1510.28694666
   14   -1510.2868955396      9.85E-09 Convergence criterion met
 Total energy in the final basis set = -1510.28689554
   14   -1510.2879145911      4.89E-09 Convergence criterion met
 Total energy in the final basis set = -1510.28791459
   13   -1510.2899310155      7.90E-09 Convergence criterion met
 Total energy in the final basis set = -1510.28993102
   13   -1510.2902254860      4.52E-09 Convergence criterion met
 Total energy in the final basis set = -1510.29022549
   13   -1510.2888088639      9.68E-09 Convergence criterion met
 Total energy in the final basis set = -1510.28880886
   13   -1510.2911540160      4.08E-09 Convergence criterion met
   12   -1510.2937486578      6.11E-09 Convergence criterion met
 Total energy in the final basis set = -1510.29374866
   12   -1510.2937667081      3.61E-09 Convergence criterion met
 Total energy in the final basis set = -1510.29376671
   12   -1510.2937430534      1.57E-09 Convergence criterion met
 Total energy in the final basis set = -1510.29374305
   11   -1510.2937654194      6.81E-09 Convergence criterion met
 Total energy in the final basis set = -1510.29376542
   10   -1510.2937568570      9.75E-09 Convergence criterion met
 Total energy in the final basis set = -1510.29375686
   10   -1510.2937625457      6.35E-09 Convergence criterion met
 Total energy in the final basis set = -1510.29376255

             Standard Nuclear Orientation (Angstroms)
    I     Atom           X                Y                Z
 ----------------------------------------------------------------
    1      O      -2.2150340033     0.3526950745     1.3085148741
    2      C      -2.7662358892     1.0445192457     0.4183879320
    3      C      -4.0588289612     0.6702993495    -0.3846895059
    4      C      -4.1868343068    -0.8852729854    -0.6848995406
    5      C      -2.9213577893    -1.7128033710    -0.2628885987
    6      O      -1.8843554310    -1.4067680903    -1.2115348117
    7      C      -0.5652946006    -1.8774504157    -0.7192572669
    8      C       0.1220843309    -0.6191724378    -0.0932415335
    9      O       1.4960424108    -0.9565098012     0.3454960605
   10      C       2.1533158804     0.2384768176     0.7763523434
   11      C       3.6285296402    -0.1267408310     1.1598116924
   12      C       4.4098262134    -0.8819703056     0.0028583780
   13      C       3.5658497204    -1.0925468385    -1.2994320194
   14      O       3.3795939886    -2.1604640518    -1.9209750209
   15      O      -2.3107260079     2.3279052295     0.0058722412
   16      O       3.0533819306     0.1813084765    -1.7183752047
   17      O       1.6052462721     1.3619068981     0.8457571363
   18      C       2.2711435868     0.0288219064    -2.9653201712
   19      C       4.5167766298     1.1720844054     1.3394035601
   20      C       5.8351155505     0.7668590852     2.1072384907
   21      C       6.6200800529     0.0032345196     0.9760001589
   22      C       5.6135403123     0.1313746190    -0.2358729715
   23      O       4.9897356684     1.4574637280    -0.0353486798
   24      H       3.6074160164    -0.7379870507     2.0808281978
   25      H       4.7672302220    -1.8724304608     0.3343947769
   26      H       3.9623673857     2.0400970361     1.7462106966
   27      H       6.3794533557     1.6646577347     2.4403525870
   28      H       5.6261439718     0.1327271629     2.9836454517
   29      H       7.5731900107     0.5018507645     0.7382928964
   30      H       6.8259975685    -1.0476157319     1.2352975791
   31      H       6.0753807923     0.0676911830    -1.2402706911
   32      O      -2.8116432734    -2.5333441262     0.6714248075
   33      C      -1.1491816873     2.7635722186     0.8277834857
   34      C      -5.3465837223     0.8892626482     0.5265798630
   35      C      -6.6360114076     0.7898419811    -0.3822697874
   36      C      -6.7437871695    -0.7661299947    -0.5942277236
   37      C      -5.4614975280    -1.2633930125     0.1782625352
   38      O      -5.3857116277    -0.3456100655     1.3398890873
   39      H      -4.0961742991     1.2783102983    -1.3053710632
   40      H      -4.3601359816    -1.0508147431    -1.7638086575
   41      H      -0.2382612864     2.1393148053     0.6689233979
   42      H      -5.2980944545     1.7840578643     1.1772243395
   43      H      -7.5134464981     1.1878885716     0.1515866727
   44      H      -6.5183765226     1.3415793357    -1.3287347604
   45      H      -7.6549989251    -1.1735011730    -0.1279553240
   46      H      -6.7306455461    -1.0554854848    -1.6571772090
   47      H      -5.4792400604    -2.3161838728     0.5208817084
   48      H      -1.4030302016     2.7498030867     1.9066410350
   49      H      -0.9411865763     3.8023149683     0.5129981869
   50      H       1.8099581920     1.0145563314    -3.1597942583
   51      H       1.4795780792    -0.7407320573    -2.8633183226
   52      H       2.9206474279    -0.2493542960    -3.8206433421
   53      H       0.1514844974     0.1912222002    -0.8531375530
   54      H      -0.5084621142    -0.2619830456     0.7559402266
   55      H       0.0059932446    -2.2652734694    -1.5872407599
   56      H      -0.7019354593    -2.6783277446     0.0377518075
 ----------------------------------------------------------------

    9   -1510.2937622029      4.23E-09 Convergence criterion met
 Total energy in the final basis set = -1510.29376220
 Final energy is   -1510.29376220286
 **  OPTIMIZATION CONVERGED  **

                    Orbital Energies (a.u.)
 --------------------------------------------------------------

 Alpha MOs
 -- Occupied --
-18.939 -18.937 -18.933 -18.926 -18.889 -18.888 -18.882 -18.878
-18.878 -18.873 -10.106 -10.103 -10.099 -10.098 -10.067 -10.064
-10.063 -10.061 -10.059 -10.059 -10.058 -10.050 -10.040 -10.040
-10.038 -10.038 -10.022 -10.021 -10.020 -10.020  -1.019  -1.015
 -1.007  -1.006  -0.971  -0.971  -0.941  -0.938  -0.935  -0.934
 -0.766  -0.763  -0.728  -0.724  -0.711  -0.707  -0.696  -0.661
 -0.659  -0.614  -0.598  -0.581  -0.547  -0.545  -0.538  -0.538
 -0.515  -0.510  -0.484  -0.478  -0.466  -0.461  -0.454  -0.443
 -0.437  -0.432  -0.429  -0.416  -0.412  -0.410  -0.407  -0.399
 -0.391  -0.382  -0.371  -0.369  -0.361  -0.358  -0.356  -0.352
 -0.345  -0.337  -0.335  -0.333  -0.332  -0.329  -0.325  -0.311
 -0.310  -0.307  -0.305  -0.299  -0.294  -0.292  -0.283  -0.278
 -0.270  -0.260  -0.251  -0.248  -0.247  -0.235  -0.235  -0.186
 -0.176  -0.175  -0.173  -0.160  -0.158  -0.152  -0.149  -0.145
 -0.144

          Ground-State Mulliken Net Atomic Charges

     Atom                 Charge (a.u.)
  ----------------------------------------
      1 O                    -0.216856
      2 C                     0.212699
      3 C                    -0.077940
      4 C                    -0.079139
      5 C                     0.214482
      6 O                    -0.180808
      7 C                    -0.053143
      8 C                    -0.062564
      9 O                    -0.174018
     10 C                     0.222051
     11 C                    -0.077851
     12 C                    -0.078824
     13 C                     0.211876
     14 O                    -0.214417
     15 O                    -0.167638
     16 O                    -0.169669
     17 O                    -0.214505
     18 C                    -0.128544
     19 C                     0.024670
     20 C                    -0.143884
     21 C                    -0.143902
     22 C                     0.026092
     23 O                    -0.186065
     24 H                     0.086593
     25 H                     0.085983
     26 H                     0.090106
     27 H                     0.078338
     28 H                     0.073598
     29 H                     0.078155
     30 H                     0.074156
     31 H                     0.082604
     32 O                    -0.204838
     33 C                    -0.141953
     34 C                     0.025760
     35 C                    -0.143999
     36 C                    -0.143598
     37 C                     0.025010
     38 O                    -0.186265
     39 H                     0.087579
     40 H                     0.085321
     41 H                     0.110546
     42 H                     0.083104
     43 H                     0.078643
     44 H                     0.074108
     45 H                     0.078634
     46 H                     0.073470
     47 H                     0.090065
     48 H                     0.085526
     49 H                     0.087673
     50 H                     0.091580
     51 H                     0.087654
     52 H                     0.087363
     53 H                     0.081540
     54 H                     0.106056
     55 H                     0.087152
     56 H                     0.102234
  ----------------------------------------
  Sum of atomic charges =     0.000000

                    Cartesian Multipole Moments
 -----------------------------------------------------------------
    Charge (ESU x 10^10)
                 0.0000
    Dipole Moment (Debye)
         X       0.1199      Y       1.0390      Z      -1.2832
       Tot       1.6555
    Quadrupole Moments (Debye-Ang)
        XX    -141.2344     XY      -6.3652     YY    -166.3513
        XZ      15.2850     YZ       2.2591     ZZ    -158.1250

 Total job time:  77.76s(wall), 3707.26s(cpu)
        *  Thank you very much for using Q-Chem.  Have a nice day.  *
