 Q-Chem 5.0, Q-Chem, Inc., Pleasanton, CA (2017)
 Q-Chem 5.0.1 for Intel X86 EM64T Linux

User input:
--------------------------------------------------------------
$molecule
0  1
O -3.94934 -3.66094 2.70899
C -3.26408 -4.56952 2.26188
C -3.36658 -6.02376 2.66595
C -3.85758 -6.32393 4.09167
C -4.36023 -5.14436 4.89419
O -3.30299 -4.4183 5.36378
C -3.70025 -3.25485 6.09714
C -3.56154 -2.01118 5.22525
O -3.7824 -0.83236 6.0155
C -3.89444 0.32499 5.31755
C -3.92035 1.54689 6.20465
C -2.57918 1.8945 6.86699
C -1.35791 1.21218 6.2842
O -0.20733 1.37171 6.66536
O -2.22573 -4.25517 1.44361
O -1.4449 0.46237 5.15243
O -4.03583 0.37446 4.10049
C -0.38408 -0.12918 4.49255
C -4.18742 2.87484 5.45527
C -4.75793 3.9065 6.42807
C -3.53803 4.19987 7.2779
C -2.47873 3.38722 6.52471
O -2.91273 3.40635 5.18649
H -4.74717 1.3982 6.9358
H -2.5885 1.66185 7.95421
H -4.86701 2.76519 4.5823
H -4.99729 4.81347 5.82725
H -5.66419 3.59512 6.99064
H -3.32437 5.29023 7.22103
H -3.61004 3.87768 8.33947
H -1.46206 3.79764 6.71363
O -5.53992 -4.93548 5.16059
C -1.93468 -2.97661 1.01588
C -4.47347 -6.71644 1.8432
C -4.2275 -8.22345 1.79988
C -4.57062 -8.60184 3.2232
C -5.05019 -7.24769 3.75858
O -5.6247 -6.62005 2.64132
H -2.40018 -6.51789 2.4161
H -3.11295 -6.86644 4.71597
H -1.71885 -2.32166 1.88664
H -4.56411 -6.31823 0.80808
H -4.99547 -8.66067 1.12194
H -3.21717 -8.53247 1.45552
H -5.4095 -9.33264 3.19927
H -3.72858 -9.00844 3.82411
H -5.72328 -7.40631 4.63011
H -2.78891 -2.5631 0.43817
H -1.04046 -3.0066 0.36025
H -0.76397 -0.66532 3.59953
H 0.12279 -0.85826 5.16002
H 0.33931 0.6449 4.15859
H -2.55265 -1.97669 4.76307
H -4.34125 -2.07961 4.43938
H -3.00074 -3.16008 6.95459
H -4.71788 -3.29332 6.54705
$end

$opt
CONSTRAINT
tors           1           2           3           4     -28.509
tors           3           4           5           6     -77.400
tors           4           5           6           7    +177.961
tors           5           6           7           8    -101.480
tors           6           7           8           9    -172.090
tors           7           8           9          10    -170.064
tors           8           9          10          11    -171.510
tors           9          10          11          12     +71.487
tors          11          12          13          14    +179.176
ENDCONSTRAINT
$end

$rem
JOBTYPE                   OPT
METHOD                    B3LYP
DFT_D                     d3_op
BASIS                     STO-3G
GEOM_OPT_MAX_CYCLES       100
GEOM_OPT_TOL_GRADIENT     300
GEOM_OPT_TOL_DISPLACEMENT 1200
GEOM_OPT_TOL_ENERGY       100
SYMMETRY                  False
THRESH                    12
SCF_CONVERGENCE           8
MAX_SUB_FILE_NUM          128
MEM_STATIC                400
MEM_TOTAL                 4000
$end
--------------------------------------------------------------

   15   -1510.1515429439      8.33E-09 Convergence criterion met
 Total energy in the final basis set = -1510.15154294
   13   -1510.2229135890      5.76E-09 Convergence criterion met
 Total energy in the final basis set = -1510.22291359
   13   -1510.2613558867      6.30E-09 Convergence criterion met
 Total energy in the final basis set = -1510.26135589
    2   -1510.2613558868      7.01E-09 Convergence criterion met
 Total energy in the final basis set = -1510.26135589
   14   -1510.2773908567      7.64E-09 Convergence criterion met
 Total energy in the final basis set = -1510.27739086
    2   -1510.2773908566      3.57E-09 Convergence criterion met
 Total energy in the final basis set = -1510.27739086
   14   -1510.2813364016      1.68E-09 Convergence criterion met
 Total energy in the final basis set = -1510.28133640
   13   -1510.2837969768      2.61E-09 Convergence criterion met
   11   -1510.2853459742      8.27E-09 Convergence criterion met
 Total energy in the final basis set = -1510.28534597
   11   -1510.2853696875      4.79E-09 Convergence criterion met
 Total energy in the final basis set = -1510.28536969
   11   -1510.2853794177      4.24E-09 Convergence criterion met
 Total energy in the final basis set = -1510.28537942
    9   -1510.2853847581      6.27E-09 Convergence criterion met
 Total energy in the final basis set = -1510.28538476
    9   -1510.2853862646      4.16E-09 Convergence criterion met
 Total energy in the final basis set = -1510.28538626
    9   -1510.2853877326      4.47E-09 Convergence criterion met
 Total energy in the final basis set = -1510.28538773

             Standard Nuclear Orientation (Angstroms)
    I     Atom           X                Y                Z
 ----------------------------------------------------------------
    1      O      -2.2441328276     0.0245790645     1.2230966428
    2      C      -2.9796327827     0.9328105925     0.7709612582
    3      C      -4.3054676027     0.7379673210    -0.0377122585
    4      C      -4.3142087547    -0.6199090876    -0.8598864516
    5      C      -2.9818160301    -1.4373356479    -0.7000204831
    6      O      -2.0018529182    -0.7992394848    -1.5387593679
    7      C      -0.6921252490    -1.4809094518    -1.4107889943
    8      C       0.1861751025    -0.5964210468    -0.4612909467
    9      O       1.5674601444    -1.1276813143    -0.4492542929
   10      C       2.3201279247    -0.4761655605     0.5859812355
   11      C       3.8212465318    -0.9047281237     0.4208609624
   12      C       4.6065775893    -0.3061974524    -0.8204349955
   13      C       3.9521142011     0.8833034244    -1.6130958019
   14      O       4.4613511608     1.4608993931    -2.5987400106
   15      O      -2.7238325191     2.3252314924     0.9476219596
   16      O       2.7316084447     1.3038776188    -1.0022922746
   17      O       1.8244969049     0.2297673785     1.4896844217
   18      C       2.1637793543     2.4684831392    -1.7172484228
   19      C       4.7248265475    -0.4144094639     1.6297837427
   20      C       5.9649704829    -1.3846409140     1.7259297586
   21      C       6.7741558720    -0.9526703918     0.4469426860
   22      C       5.9016100643     0.2545814319    -0.0813072743
   23      O       5.3271944755     0.8506195095     1.1460691691
   24      H       3.8338394361    -2.0078033877     0.3498247104
   25      H       4.8639097683    -1.0939887487    -1.5513731478
   26      H       4.1633342920    -0.2416746277     2.5685938163
   27      H       6.5367836730    -1.1913926551     2.6478271039
   28      H       5.6697456985    -2.4458771239     1.7074453373
   29      H       7.7887181570    -0.6093954813     0.7041318309
   30      H       6.8549042815    -1.7595848736    -0.2992261765
   31      H       6.4562385707     1.0148151456    -0.6655725929
   32      O      -2.8091989460    -2.5177884455    -0.0983063037
   33      C      -1.4861842146     2.5106466792     1.7461637273
   34      C      -5.5428379615     0.4996324062     0.9366026653
   35      C      -6.8714239499     0.6422960458     0.0931924754
   36      C      -6.8730458664    -0.7130696158    -0.7066478741
   37      C      -5.5359604936    -1.3731045076    -0.1887832149
   38      O      -5.4659387188    -0.9476539973     1.2299677945
   39      H      -4.4639698326     1.6196903019    -0.6832115298
   40      H      -4.4788670223    -0.4277163355    -1.9351165590
   41      H      -0.6182321498     1.9948241359     1.2864436387
   42      H      -5.5119182683     1.0918887040     1.8716952690
   43      H      -7.7431716623     0.7188033244     0.7624285241
   44      H      -6.8523083538     1.5260838144    -0.5643228226
   45      H      -7.7401160330    -1.3382960597    -0.4403035372
   46      H      -6.8675834688    -0.5638365410    -1.7982129405
   47      H      -5.4810283394    -2.4765665652    -0.2609304467
   48      H      -1.6116275296     2.1285441828     2.7796458090
   49      H      -1.3032076302     3.6003093975     1.7744029954
   50      H       1.2783205322     2.7798222413    -1.1328478349
   51      H       1.8535749609     2.2001987073    -2.7481408532
   52      H       2.8897104110     3.3048566843    -1.7715880823
   53      H       0.1901862611     0.4491998350    -0.8404746984
   54      H      -0.2690590472    -0.5834206303     0.5545385355
   55      H      -0.2429433193    -1.5441662728    -2.4229212864
   56      H      -0.8352103381    -2.4970893692    -0.9860909710
 ----------------------------------------------------------------

    9   -1510.2853880761      2.64E-09 Convergence criterion met
 Total energy in the final basis set = -1510.28538808
 Final energy is   -1510.28538807613
 **  OPTIMIZATION CONVERGED  **

                    Orbital Energies (a.u.)
 --------------------------------------------------------------

 Alpha MOs
 -- Occupied --
-18.944 -18.943 -18.922 -18.920 -18.889 -18.885 -18.883 -18.875
-18.870 -18.863 -10.105 -10.103 -10.096 -10.095 -10.070 -10.066
-10.063 -10.063 -10.059 -10.059 -10.057 -10.055 -10.041 -10.039
-10.037 -10.033 -10.022 -10.021 -10.019 -10.018  -1.019  -1.017
 -1.004  -0.999  -0.971  -0.969  -0.942  -0.939  -0.933  -0.926
 -0.765  -0.761  -0.726  -0.722  -0.711  -0.704  -0.692  -0.666
 -0.665  -0.613  -0.597  -0.578  -0.546  -0.543  -0.538  -0.536
 -0.512  -0.510  -0.485  -0.477  -0.464  -0.457  -0.454  -0.445
 -0.435  -0.431  -0.424  -0.417  -0.415  -0.412  -0.410  -0.395
 -0.393  -0.381  -0.375  -0.368  -0.362  -0.358  -0.353  -0.347
 -0.342  -0.338  -0.335  -0.332  -0.329  -0.328  -0.321  -0.312
 -0.309  -0.306  -0.305  -0.301  -0.296  -0.292  -0.281  -0.274
 -0.269  -0.259  -0.247  -0.244  -0.241  -0.235  -0.233  -0.184
 -0.183  -0.170  -0.165  -0.159  -0.156  -0.150  -0.146  -0.144
 -0.143

          Ground-State Mulliken Net Atomic Charges

     Atom                 Charge (a.u.)
  ----------------------------------------
      1 O                    -0.210114
      2 C                     0.213039
      3 C                    -0.078533
      4 C                    -0.079731
      5 C                     0.215827
      6 O                    -0.181931
      7 C                    -0.053035
      8 C                    -0.054093
      9 O                    -0.179596
     10 C                     0.221483
     11 C                    -0.081115
     12 C                    -0.076993
     13 C                     0.212311
     14 O                    -0.215782
     15 O                    -0.167567
     16 O                    -0.166330
     17 O                    -0.218742
     18 C                    -0.125717
     19 C                     0.023884
     20 C                    -0.143038
     21 C                    -0.144670
     22 C                     0.024762
     23 O                    -0.191081
     24 H                     0.083867
     25 H                     0.086534
     26 H                     0.090014
     27 H                     0.077797
     28 H                     0.073462
     29 H                     0.078226
     30 H                     0.073681
     31 H                     0.085184
     32 O                    -0.210516
     33 C                    -0.130133
     34 C                     0.025709
     35 C                    -0.143487
     36 C                    -0.144081
     37 C                     0.025293
     38 O                    -0.186430
     39 H                     0.086688
     40 H                     0.085295
     41 H                     0.097304
     42 H                     0.083576
     43 H                     0.078689
     44 H                     0.073954
     45 H                     0.078597
     46 H                     0.073410
     47 H                     0.089899
     48 H                     0.092086
     49 H                     0.091344
     50 H                     0.091491
     51 H                     0.089539
     52 H                     0.094317
     53 H                     0.076430
     54 H                     0.103388
     55 H                     0.085004
     56 H                     0.100633
  ----------------------------------------
  Sum of atomic charges =    -0.000000

                    Cartesian Multipole Moments
 -----------------------------------------------------------------
    Charge (ESU x 10^10)
                -0.0000
    Dipole Moment (Debye)
         X      -0.8816      Y       1.0203      Z      -1.7653
       Tot       2.2213
    Quadrupole Moments (Debye-Ang)
        XX    -145.8919     XY     -15.9839     YY    -159.0863
        XZ       8.7259     YZ       3.6352     ZZ    -163.0317

 Total job time:  53.95s(wall), 2568.00s(cpu)
        *  Thank you very much for using Q-Chem.  Have a nice day.  *
