 Q-Chem 5.0, Q-Chem, Inc., Pleasanton, CA (2017)
 Q-Chem 5.0.1 for Intel X86 EM64T Linux

User input:
--------------------------------------------------------------
$molecule
0  1
O -2.2441328276 0.0245790645 1.2230966428
C -2.9796327827 0.9328105925 0.7709612582
C -4.3054676027 0.737967321 -0.0377122585
C -4.3142087547 -0.6199090876 -0.8598864516
C -2.9818160301 -1.4373356479 -0.7000204831
O -2.0018529182 -0.7992394848 -1.5387593679
C -0.692125249 -1.4809094518 -1.4107889943
C 0.1861751025 -0.5964210468 -0.4612909467
O 1.5674601444 -1.1276813143 -0.4492542929
C 2.3201279247 -0.4761655605 0.5859812355
C 3.8212465318 -0.9047281237 0.4208609624
C 4.6065775893 -0.3061974524 -0.8204349955
C 3.9521142011 0.8833034244 -1.6130958019
O 4.4613511608 1.4608993931 -2.5987400106
O -2.7238325191 2.3252314924 0.9476219596
O 2.7316084447 1.3038776188 -1.0022922746
O 1.8244969049 0.2297673785 1.4896844217
C 2.1637793543 2.4684831392 -1.7172484228
C 4.7248265475 -0.4144094639 1.6297837427
C 5.9649704829 -1.384640914 1.7259297586
C 6.774155872 -0.9526703918 0.446942686
C 5.9016100643 0.2545814319 -0.0813072743
O 5.3271944755 0.8506195095 1.1460691691
H 3.8338394361 -2.0078033877 0.3498247104
H 4.8639097683 -1.0939887487 -1.5513731478
H 4.163334292 -0.2416746277 2.5685938163
H 6.536783673 -1.1913926551 2.6478271039
H 5.6697456985 -2.4458771239 1.7074453373
H 7.788718157 -0.6093954813 0.7041318309
H 6.8549042815 -1.7595848736 -0.2992261765
H 6.4562385707 1.0148151456 -0.6655725929
O -2.809198946 -2.5177884455 -0.0983063037
C -1.4861842146 2.5106466792 1.7461637273
C -5.5428379615 0.4996324062 0.9366026653
C -6.8714239499 0.6422960458 0.0931924754
C -6.8730458664 -0.7130696158 -0.7066478741
C -5.5359604936 -1.3731045076 -0.1887832149
O -5.4659387188 -0.9476539973 1.2299677945
H -4.4639698326 1.6196903019 -0.6832115298
H -4.4788670223 -0.4277163355 -1.935116559
H -0.6182321498 1.9948241359 1.2864436387
H -5.5119182683 1.091888704 1.871695269
H -7.7431716623 0.7188033244 0.7624285241
H -6.8523083538 1.5260838144 -0.5643228226
H -7.740116033 -1.3382960597 -0.4403035372
H -6.8675834688 -0.563836541 -1.7982129405
H -5.4810283394 -2.4765665652 -0.2609304467
H -1.6116275296 2.1285441828 2.779645809
H -1.3032076302 3.6003093975 1.7744029954
H 1.2783205322 2.7798222413 -1.1328478349
H 1.8535749609 2.2001987073 -2.7481408532
H 2.889710411 3.3048566843 -1.7715880823
H 0.1901862611 0.449199835 -0.8404746984
H -0.2690590472 -0.5834206303 0.5545385355
H -0.2429433193 -1.5441662728 -2.4229212864
H -0.8352103381 -2.4970893692 -0.986090971
$end

$rem
JOBTYPE                   OPT
METHOD                    B3LYP
DFT_D                     d3_op
BASIS                     STO-3G
GEOM_OPT_MAX_CYCLES       100
GEOM_OPT_TOL_GRADIENT     300
GEOM_OPT_TOL_DISPLACEMENT 1200
GEOM_OPT_TOL_ENERGY       100
SYMMETRY                  False
THRESH                    12
SCF_CONVERGENCE           8
MAX_SUB_FILE_NUM          128
MEM_STATIC                400
MEM_TOTAL                 4000
$end
--------------------------------------------------------------

   16   -1510.2854381469      6.22E-09 Convergence criterion met
 Total energy in the final basis set = -1510.28543815
   14   -1510.2837677250      4.39E-09 Convergence criterion met
 Total energy in the final basis set = -1510.28376773
   14   -1510.2874935212      7.23E-09 Convergence criterion met
 Total energy in the final basis set = -1510.28749352
   13   -1510.2880351740      8.02E-09 Convergence criterion met
 Total energy in the final basis set = -1510.28803517
   14   -1510.2860047347      2.77E-09 Convergence criterion met
 Total energy in the final basis set = -1510.28600473
   14   -1510.2876685207      3.24E-09 Convergence criterion met
 Total energy in the final basis set = -1510.28766852
   14   -1510.2890957008      4.96E-09 Convergence criterion met
 Total energy in the final basis set = -1510.28909570
   13   -1510.2902534086      6.49E-09 Convergence criterion met
   13   -1510.2935630255      2.74E-09 Convergence criterion met
 Total energy in the final basis set = -1510.29356303
   12   -1510.2935302844      5.19E-09 Convergence criterion met
 Total energy in the final basis set = -1510.29353028
   12   -1510.2935800367      3.53E-09 Convergence criterion met
 Total energy in the final basis set = -1510.29358004
   12   -1510.2934966910      3.62E-09 Convergence criterion met
 Total energy in the final basis set = -1510.29349669
   12   -1510.2935918094      3.44E-09 Convergence criterion met
 Total energy in the final basis set = -1510.29359181
   11   -1510.2935933520      6.05E-09 Convergence criterion met
 Total energy in the final basis set = -1510.29359335

             Standard Nuclear Orientation (Angstroms)
    I     Atom           X                Y                Z
 ----------------------------------------------------------------
    1      O       2.0515447808    -0.3519532361    -1.0959434555
    2      C       2.7253093673     0.6857658482    -0.8809577639
    3      C       4.1015320235     0.7518344716    -0.1377859920
    4      C       4.2558400773    -0.3675609855     0.9784442971
    5      C       2.9423993466    -1.1863029393     1.2441856184
    6      O       2.0344643971    -0.3139116891     1.9405170891
    7      C       0.6684125485    -0.8965093484     1.9700826173
    8      C      -0.1152941798    -0.2010404671     0.8087434586
    9      O      -1.4685790567    -0.7910279310     0.6757181908
   10      C      -2.0908857173    -0.2422937901    -0.4894107226
   11      C      -3.5207785076    -0.8729440748    -0.6343638007
   12      C      -4.4508947114    -0.6524912738     0.6320217689
   13      C      -3.7746238510     0.1662808896     1.7820627886
   14      O      -3.7258262211    -0.1247069710     2.9961507290
   15      O       2.3434975105     1.9881168361    -1.3045357954
   16      O      -3.2288849591     1.3679709635     1.2199035523
   17      O      -1.5407109035     0.5662588997    -1.2712002572
   18      C      -2.5859981661     2.1778789382     2.2782284557
   19      C      -4.3566396874    -0.1425057290    -1.7636198291
   20      C      -5.5842817394    -1.0564616093    -2.1472327107
   21      C      -6.5142079200    -0.8550354603    -0.8929456242
   22      C      -5.6533536657     0.1532264690    -0.0320062437
   23      O      -4.9818944634     0.9939926246    -1.0470451703
   24      H      -3.4004598172    -1.9516035438    -0.8458022498
   25      H      -4.7893305660    -1.6124109297     1.0594362765
   26      H      -3.7411099875     0.2250047893    -2.6076156792
   27      H      -6.0643478871    -0.6885758309    -3.0679271691
   28      H      -5.2913820287    -2.1078340408    -2.2972229561
   29      H      -7.4758842335    -0.3959410267    -1.1722293375
   30      H      -6.7154867707    -1.7951041722    -0.3544238000
   31      H      -6.2304134884     0.7818178698     0.6737851579
   32      O       2.7163856956    -2.3867718515     0.9859644919
   33      C       1.0968954493     1.9350357163    -2.1163170720
   34      C       5.2700204431     0.3242983838    -1.1330213702
   35      C       6.6607082623     0.6468958967    -0.4548168048
   36      C       6.7783442218    -0.5321821842     0.5824311699
   37      C       5.4015976567    -1.2679783568     0.3558924805
   38      O       5.1919108936    -1.1524421305    -1.1068506462
   39      H       4.2483968563     1.7698827040     0.2633112861
   40      H       4.5716099792     0.0902615047     1.9332286608
   41      H       0.2446625380     1.4400436732    -1.5943121969
   42      H       5.1504636912     0.7039955015    -2.1665109775
   43      H       7.4697565736     0.6144531170    -1.2017249726
   44      H       6.6637887292     1.6379853359     0.0263834564
   45      H       7.6178424325    -1.2019706266     0.3366031296
   46      H       6.8986466768    -0.1788112512     1.6188347499
   47      H       5.3597963599    -2.3298982539     0.6666254886
   48      H       1.2778285847     1.4039120759    -3.0727852392
   49      H       0.8410480133     2.9889190459    -2.3289517986
   50      H      -2.1118385989     3.0333327187     1.7627763101
   51      H      -1.8163697431     1.5984708502     2.8276653420
   52      H      -3.3296781172     2.5541350721     3.0105356311
   53      H      -0.1899224431     0.8896085982     1.0086433081
   54      H       0.4755286146    -0.3395993622    -0.1290194550
   55      H       0.2247064351    -0.6761012504     2.9619428111
   56      H       0.7207015977    -1.9944617124     1.8085590582
 ----------------------------------------------------------------

   10   -1510.2935936793      5.79E-09 Convergence criterion met
 Total energy in the final basis set = -1510.29359368
 Final energy is   -1510.29359367926
 **  OPTIMIZATION CONVERGED  **

                    Orbital Energies (a.u.)
 --------------------------------------------------------------

 Alpha MOs
 -- Occupied --
-18.941 -18.934 -18.933 -18.924 -18.889 -18.887 -18.880 -18.878
-18.876 -18.874 -10.105 -10.103 -10.098 -10.098 -10.066 -10.064
-10.063 -10.061 -10.058 -10.057 -10.056 -10.051 -10.041 -10.038
-10.037 -10.037 -10.022 -10.020 -10.020 -10.019  -1.018  -1.015
 -1.007  -1.005  -0.971  -0.970  -0.939  -0.938  -0.935  -0.933
 -0.765  -0.763  -0.727  -0.723  -0.710  -0.706  -0.695  -0.661
 -0.659  -0.613  -0.598  -0.580  -0.546  -0.545  -0.538  -0.537
 -0.514  -0.510  -0.483  -0.477  -0.465  -0.460  -0.454  -0.443
 -0.436  -0.431  -0.427  -0.416  -0.413  -0.410  -0.407  -0.398
 -0.391  -0.379  -0.371  -0.368  -0.360  -0.358  -0.357  -0.351
 -0.345  -0.337  -0.334  -0.333  -0.331  -0.329  -0.324  -0.311
 -0.309  -0.306  -0.305  -0.299  -0.293  -0.292  -0.282  -0.278
 -0.269  -0.260  -0.251  -0.247  -0.244  -0.235  -0.234  -0.186
 -0.176  -0.173  -0.171  -0.159  -0.157  -0.152  -0.149  -0.145
 -0.143

          Ground-State Mulliken Net Atomic Charges

     Atom                 Charge (a.u.)
  ----------------------------------------
      1 O                    -0.215529
      2 C                     0.214920
      3 C                    -0.077671
      4 C                    -0.079381
      5 C                     0.214811
      6 O                    -0.181089
      7 C                    -0.053640
      8 C                    -0.064075
      9 O                    -0.175136
     10 C                     0.221994
     11 C                    -0.077851
     12 C                    -0.079028
     13 C                     0.211902
     14 O                    -0.213132
     15 O                    -0.166934
     16 O                    -0.168441
     17 O                    -0.216170
     18 C                    -0.128150
     19 C                     0.024867
     20 C                    -0.144084
     21 C                    -0.143748
     22 C                     0.025935
     23 O                    -0.186393
     24 H                     0.086327
     25 H                     0.085909
     26 H                     0.090166
     27 H                     0.078192
     28 H                     0.073783
     29 H                     0.077998
     30 H                     0.074068
     31 H                     0.082358
     32 O                    -0.206358
     33 C                    -0.141222
     34 C                     0.025674
     35 C                    -0.144005
     36 C                    -0.143508
     37 C                     0.024991
     38 O                    -0.186742
     39 H                     0.087795
     40 H                     0.085320
     41 H                     0.113178
     42 H                     0.083291
     43 H                     0.078689
     44 H                     0.074086
     45 H                     0.078623
     46 H                     0.073490
     47 H                     0.090423
     48 H                     0.084587
     49 H                     0.087885
     50 H                     0.091607
     51 H                     0.088204
     52 H                     0.088038
     53 H                     0.077583
     54 H                     0.107627
     55 H                     0.086041
     56 H                     0.101927
  ----------------------------------------
  Sum of atomic charges =     0.000000

                    Cartesian Multipole Moments
 -----------------------------------------------------------------
    Charge (ESU x 10^10)
                 0.0000
    Dipole Moment (Debye)
         X       0.3446      Y       1.4880      Z       0.4203
       Tot       1.5842
    Quadrupole Moments (Debye-Ang)
        XX    -140.7544     XY      12.8663     YY    -162.9507
        XZ       7.4751     YZ       2.8598     ZZ    -160.8352

 Total job time:  73.13s(wall), 3480.98s(cpu)
        *  Thank you very much for using Q-Chem.  Have a nice day.  *
