 Q-Chem 5.0, Q-Chem, Inc., Pleasanton, CA (2017)
 Q-Chem 5.0.1 for Intel X86 EM64T Linux

User input:
--------------------------------------------------------------
$molecule
0  1
O -3.94934 -3.66094 2.70899
C -3.26408 -4.56952 2.26188
C -3.36658 -6.02376 2.66595
C -4.06185 -6.33457 4.00156
C -4.73396 -5.1724 4.69848
O -3.7987 -4.4145 5.3437
C -4.35971 -3.28737 6.02495
C -4.20559 -2.02986 5.1758
O -4.5459 -0.87037 5.95211
C -4.65201 0.2878 5.25459
C -4.74094 1.50461 6.1446
C -3.5217 1.7354 7.04928
C -2.27412 0.95415 6.68887
O -1.20543 1.01327 7.2796
O -2.44194 -4.30636 1.21247
O -2.17876 0.34705 5.47422
O -4.6368 0.35026 4.03028
C -1.04095 -0.24752 4.95968
C -4.78103 2.85533 5.396
C -5.43099 3.91509 6.285
C -4.35226 4.10866 7.33202
C -3.24635 3.21783 6.75508
O -3.44147 3.28484 5.36238
H -5.68146 1.3952 6.73065
H -3.74861 1.50549 8.11333
H -5.30686 2.80735 4.4178
H -5.50431 4.84497 5.67623
H -6.4371 3.66018 6.68196
H -4.04553 5.17813 7.32627
H -4.62793 3.79474 8.36222
H -2.24891 3.5443 7.12412
O -5.94803 -5.00554 4.76067
C -2.25501 -3.05247 0.66909
C -4.22569 -6.82407 1.67715
C -3.87739 -8.30891 1.76679
C -4.50726 -8.66393 3.09625
C -5.13509 -7.31899 3.47664
O -5.51251 -6.76746 2.23816
H -2.32071 -6.40506 2.6878
H -3.41445 -6.85141 4.74535
H -1.84641 -2.36052 1.43673
H -4.13068 -6.46745 0.62788
H -4.4309 -8.83949 0.95939
H -2.7919 -8.53097 1.68008
H -5.31165 -9.41127 2.91353
H -3.80678 -9.04588 3.86993
H -5.95687 -7.48629 4.20753
H -3.2172 -2.65582 0.28026
H -1.53259 -3.12329 -0.16966
H -1.26343 -0.64906 3.94974
H -0.71709 -1.08382 5.61548
H -0.22436 0.50015 4.86971
H -3.16461 -1.94989 4.80528
H -4.90626 -2.12958 4.31933
H -3.75803 -3.147 6.94801
H -5.41024 -3.41298 6.37247
$end

$opt
CONSTRAINT
tors           1           2           3           4     -19.135
tors           3           4           5           6     -78.841
tors           4           5           6           7    +179.740
tors           5           6           7           8     -98.539
tors           6           7           8           9    -169.678
tors           7           8           9          10    -170.064
tors           8           9          10          11    -168.719
tors           9          10          11          12     +61.305
tors          11          12          13          14    +179.276
ENDCONSTRAINT
$end

$rem
JOBTYPE                   OPT
METHOD                    B3LYP
DFT_D                     d3_op
BASIS                     STO-3G
GEOM_OPT_MAX_CYCLES       100
GEOM_OPT_TOL_GRADIENT     300
GEOM_OPT_TOL_DISPLACEMENT 1200
GEOM_OPT_TOL_ENERGY       100
SYMMETRY                  False
THRESH                    12
SCF_CONVERGENCE           8
MAX_SUB_FILE_NUM          128
MEM_STATIC                400
MEM_TOTAL                 4000
$end
--------------------------------------------------------------

   15   -1510.1526093620      6.73E-09 Convergence criterion met
 Total energy in the final basis set = -1510.15260936
   13   -1510.2236371561      7.99E-09 Convergence criterion met
 Total energy in the final basis set = -1510.22363716
   13   -1510.2617853301      6.02E-09 Convergence criterion met
 Total energy in the final basis set = -1510.26178533
   13   -1510.2779932050      6.85E-09 Convergence criterion met
 Total energy in the final basis set = -1510.27799320
   13   -1510.2819996045      9.00E-09 Convergence criterion met
 Total energy in the final basis set = -1510.28199960
   13   -1510.2830412098      7.16E-09 Convergence criterion met
 Total energy in the final basis set = -1510.28304121
   12   -1510.2839167028      9.45E-09 Convergence criterion met
 Total energy in the final basis set = -1510.28391670
   12   -1510.2840899493      8.11E-09 Convergence criterion met
   10   -1510.2843732633      7.20E-09 Convergence criterion met
 Total energy in the final basis set = -1510.28437326
   11   -1510.2843922183      3.30E-09 Convergence criterion met
 Total energy in the final basis set = -1510.28439222
   10   -1510.2844035652      5.28E-09 Convergence criterion met
 Total energy in the final basis set = -1510.28440357
    9   -1510.2844108916      7.60E-09 Convergence criterion met
 Total energy in the final basis set = -1510.28441089
    9   -1510.2844191944      4.85E-09 Convergence criterion met
 Total energy in the final basis set = -1510.28441919
    9   -1510.2844206164      5.06E-09 Convergence criterion met
 Total energy in the final basis set = -1510.28442062

             Standard Nuclear Orientation (Angstroms)
    I     Atom           X                Y                Z
 ----------------------------------------------------------------
    1      O      -2.2576865214     0.4221242444     1.1095732758
    2      C      -3.0974393997     1.1513315263     0.5334998009
    3      C      -4.3551817181     0.6754776131    -0.2646409160
    4      C      -4.2500968707    -0.8425196559    -0.7069771846
    5      C      -2.8927857360    -1.5293019284    -0.3025774847
    6      O      -1.9032394385    -1.1059500868    -1.2586704530
    7      C      -0.5887193439    -1.7097293739    -0.9391833411
    8      C       0.2652914981    -0.6526536284    -0.1578492781
    9      O       1.6514861134    -1.1658847390    -0.0640601219
   10      C       2.4145692161    -0.3488802021     0.8373190740
   11      C       3.9244230698    -0.7493250847     0.6777288398
   12      C       4.5682361300    -0.5340966630    -0.7537929459
   13      C       3.8276473254     0.4353021652    -1.7461574016
   14      O       4.2088265792     0.7218243307    -2.9024456310
   15      O      -3.0456102105     2.5770533855     0.5280185103
   16      O       2.7351901831     1.0929896762    -1.0993705139
   17      O       1.9309997276     0.4793953292     1.6370819525
   18      C       2.1143887530     2.0810557535    -2.0093541619
   19      C       4.9018451748     0.0955754150     1.5987486755
   20      C       6.1690539588    -0.7960525989     1.8889807983
   21      C       6.8452717950    -0.8089084355     0.4670980838
   22      C       5.9197205200     0.1971965220    -0.3283867455
   23      O       5.4395975612     1.1460389223     0.7019942865
   24      H       3.9950625849    -1.8225880998     0.9353214994
   25      H       4.7562641740    -1.4914113107    -1.2720012741
   26      H       4.4076740239     0.5507146585     2.4793641578
   27      H       6.8163596112    -0.3103673503     2.6366905575
   28      H       5.9043311325    -1.8033484880     2.2480646034
   29      H       7.8808533982    -0.4354213923     0.5034539675
   30      H       6.8481650961    -1.8106852464     0.0079882172
   31      H       6.4157947999     0.7374375792    -1.1585420467
   32      O      -2.7122564200    -2.4102314724     0.5641677764
   33      C      -1.8671283535     3.0406778662     1.3005120093
   34      C      -5.6407895368     0.6203640611     0.6740027811
   35      C      -6.9182399889     0.4530183266    -0.2413334048
   36      C      -6.8054140219    -1.0636675232    -0.6484972835
   37      C      -5.4693619273    -1.4751171002     0.0831548185
   38      O      -5.5097192044    -0.6923300631     1.3420731429
   39      H      -4.5103175733     1.3531296190    -1.1228252525
   40      H      -4.3712950430    -0.9374817809    -1.8008634352
   41      H      -0.9256155695     2.6050481124     0.9081557944
   42      H      -5.6992773509     1.4368229236     1.4200926070
   43      H      -7.8343444459     0.6508353463     0.3377838242
   44      H      -6.8961939215     1.1297229129    -1.1105292200
   45      H      -7.6537033017    -1.6494506100    -0.2603520876
   46      H      -6.7438747452    -1.2084442057    -1.7388523470
   47      H      -5.3517032664    -2.5531444129     0.3064644547
   48      H      -1.9554381669     2.7748095096     2.3735825713
   49      H      -1.8452404836     4.1404381842     1.1913476726
   50      H       1.3448998438     2.6030415016    -1.4111650196
   51      H       1.6363769932     1.5874919394    -2.8806564263
   52      H       2.8589561121     2.8132828439    -2.3823512123
   53      H       0.2585542536     0.3098426044    -0.7142032928
   54      H      -0.1823493516    -0.4675498569     0.8428419249
   55      H      -0.0996187489    -1.9645427706    -1.9015789977
   56      H      -0.7314996335    -2.6253316113    -0.3267399416
 ----------------------------------------------------------------

    9   -1510.2844212164      4.10E-09 Convergence criterion met
 Total energy in the final basis set = -1510.28442122
 Final energy is   -1510.28442121641
 **  OPTIMIZATION CONVERGED  **

                    Orbital Energies (a.u.)
 --------------------------------------------------------------

 Alpha MOs
 -- Occupied --
-18.945 -18.942 -18.921 -18.918 -18.889 -18.886 -18.885 -18.874
-18.867 -18.864 -10.107 -10.101 -10.094 -10.094 -10.069 -10.068
-10.063 -10.062 -10.059 -10.058 -10.057 -10.055 -10.042 -10.039
-10.036 -10.032 -10.022 -10.021 -10.019 -10.018  -1.021  -1.016
 -1.003  -0.998  -0.971  -0.969  -0.944  -0.938  -0.931  -0.926
 -0.765  -0.761  -0.726  -0.722  -0.711  -0.704  -0.691  -0.667
 -0.665  -0.612  -0.597  -0.578  -0.546  -0.542  -0.538  -0.536
 -0.513  -0.509  -0.485  -0.477  -0.464  -0.457  -0.454  -0.444
 -0.435  -0.431  -0.423  -0.416  -0.416  -0.413  -0.409  -0.394
 -0.391  -0.380  -0.376  -0.368  -0.361  -0.358  -0.353  -0.345
 -0.342  -0.339  -0.336  -0.331  -0.329  -0.327  -0.320  -0.313
 -0.307  -0.306  -0.305  -0.301  -0.298  -0.292  -0.280  -0.274
 -0.268  -0.260  -0.246  -0.243  -0.240  -0.235  -0.233  -0.186
 -0.181  -0.168  -0.165  -0.160  -0.155  -0.148  -0.146  -0.143
 -0.143

          Ground-State Mulliken Net Atomic Charges

     Atom                 Charge (a.u.)
  ----------------------------------------
      1 O                    -0.208045
      2 C                     0.214403
      3 C                    -0.078503
      4 C                    -0.080316
      5 C                     0.216255
      6 O                    -0.181576
      7 C                    -0.052154
      8 C                    -0.052361
      9 O                    -0.180945
     10 C                     0.221373
     11 C                    -0.080831
     12 C                    -0.076240
     13 C                     0.212702
     14 O                    -0.216092
     15 O                    -0.167875
     16 O                    -0.166132
     17 O                    -0.217017
     18 C                    -0.126090
     19 C                     0.023667
     20 C                    -0.142623
     21 C                    -0.144924
     22 C                     0.024463
     23 O                    -0.191842
     24 H                     0.083117
     25 H                     0.086750
     26 H                     0.090658
     27 H                     0.077818
     28 H                     0.073548
     29 H                     0.078165
     30 H                     0.073663
     31 H                     0.084793
     32 O                    -0.213400
     33 C                    -0.128881
     34 C                     0.025633
     35 C                    -0.143549
     36 C                    -0.144037
     37 C                     0.025066
     38 O                    -0.187381
     39 H                     0.086972
     40 H                     0.084751
     41 H                     0.093796
     42 H                     0.083943
     43 H                     0.078636
     44 H                     0.073835
     45 H                     0.078625
     46 H                     0.073461
     47 H                     0.089981
     48 H                     0.092781
     49 H                     0.092086
     50 H                     0.091148
     51 H                     0.088854
     52 H                     0.094125
     53 H                     0.077907
     54 H                     0.103669
     55 H                     0.084999
     56 H                     0.099174
  ----------------------------------------
  Sum of atomic charges =    -0.000000

                    Cartesian Multipole Moments
 -----------------------------------------------------------------
    Charge (ESU x 10^10)
                 0.0000
    Dipole Moment (Debye)
         X      -0.9153      Y       0.6904      Z      -1.8207
       Tot       2.1516
    Quadrupole Moments (Debye-Ang)
        XX    -145.1317     XY     -13.1710     YY    -156.5109
        XZ      12.1002     YZ       2.7166     ZZ    -165.3288

 Total job time:  48.29s(wall), 2295.60s(cpu)
        *  Thank you very much for using Q-Chem.  Have a nice day.  *
