 Q-Chem 5.0, Q-Chem, Inc., Pleasanton, CA (2017)
 Q-Chem 5.0.1 for Intel X86 EM64T Linux

User input:
--------------------------------------------------------------
$molecule
0  1
O -2.2576865214 0.4221242444 1.1095732758
C -3.0974393997 1.1513315263 0.5334998009
C -4.3551817181 0.6754776131 -0.264640916
C -4.2500968707 -0.8425196559 -0.7069771846
C -2.892785736 -1.5293019284 -0.3025774847
O -1.9032394385 -1.1059500868 -1.258670453
C -0.5887193439 -1.7097293739 -0.9391833411
C 0.2652914981 -0.6526536284 -0.1578492781
O 1.6514861134 -1.165884739 -0.0640601219
C 2.4145692161 -0.3488802021 0.837319074
C 3.9244230698 -0.7493250847 0.6777288398
C 4.56823613 -0.534096663 -0.7537929459
C 3.8276473254 0.4353021652 -1.7461574016
O 4.2088265792 0.7218243307 -2.902445631
O -3.0456102105 2.5770533855 0.5280185103
O 2.7351901831 1.0929896762 -1.0993705139
O 1.9309997276 0.4793953292 1.6370819525
C 2.114388753 2.0810557535 -2.0093541619
C 4.9018451748 0.095575415 1.5987486755
C 6.1690539588 -0.7960525989 1.8889807983
C 6.845271795 -0.8089084355 0.4670980838
C 5.91972052 0.197196522 -0.3283867455
O 5.4395975612 1.1460389223 0.7019942865
H 3.9950625849 -1.8225880998 0.9353214994
H 4.756264174 -1.4914113107 -1.2720012741
H 4.4076740239 0.5507146585 2.4793641578
H 6.8163596112 -0.3103673503 2.6366905575
H 5.9043311325 -1.803348488 2.2480646034
H 7.8808533982 -0.4354213923 0.5034539675
H 6.8481650961 -1.8106852464 0.0079882172
H 6.4157947999 0.7374375792 -1.1585420467
O -2.71225642 -2.4102314724 0.5641677764
C -1.8671283535 3.0406778662 1.3005120093
C -5.6407895368 0.6203640611 0.6740027811
C -6.9182399889 0.4530183266 -0.2413334048
C -6.8054140219 -1.0636675232 -0.6484972835
C -5.4693619273 -1.4751171002 0.0831548185
O -5.5097192044 -0.6923300631 1.3420731429
H -4.5103175733 1.353129619 -1.1228252525
H -4.371295043 -0.9374817809 -1.8008634352
H -0.9256155695 2.6050481124 0.9081557944
H -5.6992773509 1.4368229236 1.420092607
H -7.8343444459 0.6508353463 0.3377838242
H -6.8961939215 1.1297229129 -1.11052922
H -7.6537033017 -1.64945061 -0.2603520876
H -6.7438747452 -1.2084442057 -1.738852347
H -5.3517032664 -2.5531444129 0.3064644547
H -1.9554381669 2.7748095096 2.3735825713
H -1.8452404836 4.1404381842 1.1913476726
H 1.3448998438 2.6030415016 -1.4111650196
H 1.6363769932 1.5874919394 -2.8806564263
H 2.8589561121 2.8132828439 -2.3823512123
H 0.2585542536 0.3098426044 -0.7142032928
H -0.1823493516 -0.4675498569 0.8428419249
H -0.0996187489 -1.9645427706 -1.9015789977
H -0.7314996335 -2.6253316113 -0.3267399416
$end

$rem
JOBTYPE                   OPT
METHOD                    B3LYP
DFT_D                     d3_op
BASIS                     STO-3G
GEOM_OPT_MAX_CYCLES       100
GEOM_OPT_TOL_GRADIENT     300
GEOM_OPT_TOL_DISPLACEMENT 1200
GEOM_OPT_TOL_ENERGY       100
SYMMETRY                  False
THRESH                    12
SCF_CONVERGENCE           8
MAX_SUB_FILE_NUM          128
MEM_STATIC                400
MEM_TOTAL                 4000
$end
--------------------------------------------------------------

   16   -1510.2843539486      5.80E-09 Convergence criterion met
 Total energy in the final basis set = -1510.28435395
   13   -1510.2848531799      9.41E-09 Convergence criterion met
 Total energy in the final basis set = -1510.28485318
   14   -1510.2864348309      3.61E-09 Convergence criterion met
 Total energy in the final basis set = -1510.28643483
   14   -1510.2873958089      4.63E-09 Convergence criterion met
 Total energy in the final basis set = -1510.28739581
   13   -1510.2887621413      4.27E-09 Convergence criterion met
 Total energy in the final basis set = -1510.28876214
   14   -1510.2901690992      3.77E-09 Convergence criterion met
 Total energy in the final basis set = -1510.29016910
   14   -1510.2840318277      2.61E-09 Convergence criterion met
 Total energy in the final basis set = -1510.28403183
   14   -1510.2910092676      4.48E-09 Convergence criterion met
   11   -1510.2937718796      8.28E-09 Convergence criterion met
 Total energy in the final basis set = -1510.29377188
   11   -1510.2937709620      9.93E-09 Convergence criterion met
 Total energy in the final basis set = -1510.29377096
   11   -1510.2937831652      8.50E-09 Convergence criterion met
 Total energy in the final basis set = -1510.29378317
   10   -1510.2937810052      8.11E-09 Convergence criterion met
 Total energy in the final basis set = -1510.29378101
   11   -1510.2937823076      5.96E-09 Convergence criterion met
 Total energy in the final basis set = -1510.29378231
   10   -1510.2937835084      7.67E-09 Convergence criterion met
 Total energy in the final basis set = -1510.29378351

             Standard Nuclear Orientation (Angstroms)
    I     Atom           X                Y                Z
 ----------------------------------------------------------------
    1      O      -2.2034328900    -0.2538343508     1.3479687055
    2      C      -2.7475561356     0.7363796936     0.8019018877
    3      C      -4.0370498719     0.7166603854    -0.0884297335
    4      C      -4.1844091683    -0.6077446101    -0.9524255865
    5      C      -2.9219107879    -1.5387846453    -0.8911166378
    6      O      -1.8915201290    -0.8879004110    -1.6556541838
    7      C      -0.5683048346    -1.5082062197    -1.3961751005
    8      C       0.1267342108    -0.5936864165    -0.3341482309
    9      O       1.5162157029    -1.0519211470    -0.1050442405
   10      C       2.1716501681    -0.1343337031     0.7753998100
   11      C       3.6637858939    -0.5916283660     0.9265037413
   12      C       4.4231191702    -0.7185089444    -0.4612267059
   13      C       3.5497175938    -0.3261285062    -1.6999666452
   14      O       3.3848789585    -0.9787094691    -2.7527316220
   15      O      -2.2847740891     2.0760027832     0.9299812083
   16      O       2.9692294714     0.9634166942    -1.4547334441
   17      O       1.6115639800     0.8356315859     1.3346895376
   18      C       2.1541310813     1.3851551297    -2.6157967448
   19      C       4.5383125966     0.5040446002     1.6616040841
   20      C       5.8802964832    -0.1753263669     2.1406376588
   21      C       6.6461555208    -0.3260773720     0.7733369707
   22      C       5.6102040669     0.3174950132    -0.2316152442
   23      O       4.9752380299     1.3934675454     0.5596252139
   24      H       3.6768283155    -1.5563020542     1.4664334537
   25      H       4.7993303683    -1.7428670189    -0.6276375478
   26      H       3.9840686247     1.0814766739     2.4270085334
   27      H       6.4215217833     0.4867131264     2.8350950599
   28      H       5.7027287516    -1.1420226388     2.6383862739
   29      H       7.5880519517     0.2450109244     0.7721696721
   30      H       6.8686461752    -1.3756942061     0.5231509333
   31      H       6.0487975210     0.7265743235    -1.1624605618
   32      O      -2.8081005611    -2.6575491536    -0.3497432525
   33      C      -1.1269411203     2.1461750773     1.8618407350
   34      C      -5.3310357735     0.5973951647     0.8317078371
   35      C      -6.6121111337     0.8552900563    -0.0595604169
   36      C      -6.7382913173    -0.5158265587    -0.8228634349
   37      C      -5.4618546888    -1.2727704573    -0.2888921409
   38      O      -5.3868295039    -0.8502830277     1.1300491783
   39      H      -4.0556309146     1.6278581675    -0.7113598156
   40      H      -4.3654919573    -0.3504216901    -2.0118630211
   41      H      -0.2200413411     1.6205900516     1.4793100245
   42      H      -5.2829773307     1.1877943028     1.7673109813
   43      H      -7.4911376374     1.0490830407     0.5754364851
   44      H      -6.4723915505     1.7096849539    -0.7408656097
   45      H      -7.6539524143    -1.0549498420    -0.5322021778
   46      H      -6.7289918138    -0.3982592290    -1.9182276608
   47      H      -5.4866141659    -2.3773739345    -0.3609068127
   48      H      -1.3914017253     1.7206811045     2.8505953792
   49      H      -0.9065935549     3.2233666482     1.9735664983
   50      H       1.5936058740     2.2803241214    -2.2890280154
   51      H       1.4465529276     0.5920575840    -2.9310325583
   52      H       2.7936273103     1.6482848991    -3.4835029651
   53      H       0.1274492761     0.4533307854    -0.7064147724
   54      H      -0.4799371312    -0.6159619081     0.6023867887
   55      H      -0.0047146450    -1.5214561304    -2.3514367767
   56      H      -0.6971350403    -2.5428199723    -1.0136654586
 ----------------------------------------------------------------

   10   -1510.2937844615      5.01E-09 Convergence criterion met
 Total energy in the final basis set = -1510.29378446
 Final energy is   -1510.29378446153
 **  OPTIMIZATION CONVERGED  **

                    Orbital Energies (a.u.)
 --------------------------------------------------------------

 Alpha MOs
 -- Occupied --
-18.939 -18.936 -18.934 -18.926 -18.889 -18.888 -18.881 -18.878
-18.877 -18.874 -10.106 -10.103 -10.099 -10.099 -10.068 -10.065
-10.062 -10.062 -10.059 -10.059 -10.058 -10.049 -10.040 -10.040
-10.038 -10.037 -10.022 -10.021 -10.020 -10.020  -1.019  -1.015
 -1.008  -1.006  -0.971  -0.971  -0.941  -0.937  -0.936  -0.935
 -0.766  -0.764  -0.728  -0.724  -0.711  -0.707  -0.696  -0.662
 -0.658  -0.614  -0.598  -0.581  -0.548  -0.545  -0.538  -0.538
 -0.515  -0.510  -0.484  -0.478  -0.465  -0.461  -0.454  -0.444
 -0.437  -0.432  -0.428  -0.416  -0.413  -0.410  -0.407  -0.399
 -0.391  -0.381  -0.370  -0.369  -0.361  -0.358  -0.356  -0.351
 -0.346  -0.337  -0.335  -0.333  -0.332  -0.329  -0.325  -0.311
 -0.310  -0.307  -0.305  -0.299  -0.295  -0.293  -0.283  -0.278
 -0.271  -0.260  -0.252  -0.247  -0.247  -0.235  -0.235  -0.185
 -0.177  -0.175  -0.173  -0.160  -0.158  -0.152  -0.150  -0.145
 -0.145

          Ground-State Mulliken Net Atomic Charges

     Atom                 Charge (a.u.)
  ----------------------------------------
      1 O                    -0.216699
      2 C                     0.212382
      3 C                    -0.077854
      4 C                    -0.079208
      5 C                     0.214741
      6 O                    -0.181133
      7 C                    -0.053048
      8 C                    -0.062014
      9 O                    -0.174963
     10 C                     0.222451
     11 C                    -0.077863
     12 C                    -0.078720
     13 C                     0.211764
     14 O                    -0.213900
     15 O                    -0.168172
     16 O                    -0.169195
     17 O                    -0.214509
     18 C                    -0.128739
     19 C                     0.024768
     20 C                    -0.143859
     21 C                    -0.143892
     22 C                     0.026007
     23 O                    -0.186082
     24 H                     0.086552
     25 H                     0.086148
     26 H                     0.090171
     27 H                     0.078384
     28 H                     0.073694
     29 H                     0.078267
     30 H                     0.074216
     31 H                     0.082569
     32 O                    -0.204986
     33 C                    -0.142291
     34 C                     0.025669
     35 C                    -0.144049
     36 C                    -0.143481
     37 C                     0.024935
     38 O                    -0.186519
     39 H                     0.087459
     40 H                     0.085265
     41 H                     0.110878
     42 H                     0.083188
     43 H                     0.078520
     44 H                     0.073951
     45 H                     0.078607
     46 H                     0.073439
     47 H                     0.090075
     48 H                     0.085263
     49 H                     0.087311
     50 H                     0.091732
     51 H                     0.089356
     52 H                     0.087238
     53 H                     0.081081
     54 H                     0.105870
     55 H                     0.087544
     56 H                     0.101681
  ----------------------------------------
  Sum of atomic charges =     0.000000

                    Cartesian Multipole Moments
 -----------------------------------------------------------------
    Charge (ESU x 10^10)
                 0.0000
    Dipole Moment (Debye)
         X       0.2129      Y       1.4014      Z      -0.8753
       Tot       1.6660
    Quadrupole Moments (Debye-Ang)
        XX    -141.0869     XY     -11.9069     YY    -166.0899
        XZ      11.4717     YZ      -1.3778     ZZ    -159.0357

 Total job time:  77.42s(wall), 3690.87s(cpu)
        *  Thank you very much for using Q-Chem.  Have a nice day.  *
