 Q-Chem 5.0, Q-Chem, Inc., Pleasanton, CA (2017)
 Q-Chem 5.0.1 for Intel X86 EM64T Linux

User input:
--------------------------------------------------------------
$molecule
0  1
O -2.2356598221 0.2638709989 1.1458302327
C -3.0384850814 1.0656383698 0.6143992428
C -4.3442525445 0.6927607356 -0.1621183684
C -4.2757007526 -0.7673219804 -0.7777024669
C -2.897066718 -1.4820802271 -0.5274482441
O -1.9590997753 -0.9220744484 -1.4650993675
C -0.6240926126 -1.5404762931 -1.2885315835
C 0.2255357639 -0.5979566507 -0.3682132287
O 1.5978978568 -1.1468273373 -0.2795190433
C 2.3362963668 -0.4450577884 0.7331933486
C 3.8483050091 -0.8385326417 0.575286474
C 4.5537623163 -0.4257377528 -0.7819316975
C 3.8571591055 0.6746819916 -1.662734201
O 4.2925020602 1.1182713965 -2.7480502192
O -2.8940752326 2.4841902868 0.6584238193
O 2.7291797396 1.2344173674 -0.9859048095
O 1.8311563689 0.2898953829 1.6074027322
C 2.1479003959 2.3433091793 -1.7749322879
C 4.7879132533 -0.1417283132 1.6479831443
C 6.041779722 -1.0741309126 1.8583353732
C 6.7770829099 -0.8855007445 0.4786747298
C 5.8858602472 0.2292055045 -0.2015046812
O 5.3625980759 1.023239017 0.9337730269
H 3.9016192547 -1.9382787458 0.6791423976
H 4.7656078565 -1.3013861927 -1.4214257524
H 4.257077144 0.1858466985 2.563091319
H 6.6577687482 -0.7075431834 2.6951075153
H 5.7615740033 -2.1211886869 2.0553753162
H 7.8100209121 -0.5272043862 0.6117290531
H 6.7987238125 -1.8115249066 -0.1179597641
H 6.4154486917 0.8799751509 -0.9245184911
O -2.6660617103 -2.4645432581 0.2078369203
C -1.67118655 2.839860186 1.4198544029
C -5.5747398704 0.5304957768 0.8360812343
C -6.9015664554 0.4641629897 -0.0204461529
C -6.8231041078 -1.0000010686 -0.5934211108
C -5.4480193993 -1.4865870902 0.0088520708
O -5.4118670072 -0.8476804614 1.3459856451
H -4.5422165072 1.4648506113 -0.926095267
H -4.4586005135 -0.7424712521 -1.866884405
H -0.769767224 2.353300972 0.9943999847
H -5.5879768452 1.2576430688 1.6714155672
H -7.7833209143 0.5995996305 0.6259521419
H -6.9224158762 1.2305570965 -0.8117928936
H -7.649770858 -1.6240692775 -0.2184646776
H -6.8292972034 -1.0281747832 -1.6948295706
H -5.321492011 -2.5824235024 0.1042746833
H -1.7572289421 2.5444062592 2.4853612927
H -1.5753389151 3.9385876265 1.3461988878
H 1.3704600007 2.7977228438 -1.1334364305
H 1.6859976179 1.9743645355 -2.7139081809
H 2.9130812506 3.1032083227 -2.0324426642
H 0.2575431704 0.420835151 -0.8117977103
H -0.2609446804 -0.5157996339 0.6292904154
H -0.1650759366 -1.6289815513 -2.2940130233
H -0.7277254268 -2.5431821389 -0.8222153559
$end

$rem
JOBTYPE                   OPT
METHOD                    B3LYP
DFT_D                     d3_op
BASIS                     STO-3G
GEOM_OPT_MAX_CYCLES       100
GEOM_OPT_TOL_GRADIENT     300
GEOM_OPT_TOL_DISPLACEMENT 1200
GEOM_OPT_TOL_ENERGY       100
SYMMETRY                  False
THRESH                    12
SCF_CONVERGENCE           8
MAX_SUB_FILE_NUM          128
MEM_STATIC                400
MEM_TOTAL                 4000
$end
--------------------------------------------------------------

   16   -1510.2847368522      6.52E-09 Convergence criterion met
 Total energy in the final basis set = -1510.28473685
   14   -1510.2853697038      3.91E-09 Convergence criterion met
 Total energy in the final basis set = -1510.28536970
   14   -1510.2871655296      7.02E-09 Convergence criterion met
 Total energy in the final basis set = -1510.28716553
   13   -1510.2880921471      9.95E-09 Convergence criterion met
 Total energy in the final basis set = -1510.28809215
   13   -1510.2890822195      8.63E-09 Convergence criterion met
 Total energy in the final basis set = -1510.28908222
   14   -1510.2865935427      4.10E-09 Convergence criterion met
 Total energy in the final basis set = -1510.28659354
   14   -1510.2896698766      3.14E-09 Convergence criterion met
 Total energy in the final basis set = -1510.28966988
   13   -1510.2911971821      6.19E-09 Convergence criterion met
   13   -1510.2935516411      4.37E-09 Convergence criterion met
 Total energy in the final basis set = -1510.29355164
   12   -1510.2935578845      3.63E-09 Convergence criterion met
 Total energy in the final basis set = -1510.29355788
   12   -1510.2935639184      4.83E-09 Convergence criterion met
 Total energy in the final basis set = -1510.29356392
   13   -1510.2935449728      5.24E-09 Convergence criterion met
 Total energy in the final basis set = -1510.29354497
   12   -1510.2936151651      6.19E-09 Convergence criterion met
 Total energy in the final basis set = -1510.29361517
   12   -1510.2936120093      3.91E-09 Convergence criterion met
 Total energy in the final basis set = -1510.29361201

             Standard Nuclear Orientation (Angstroms)
    I     Atom           X                Y                Z
 ----------------------------------------------------------------
    1      O      -2.2555926347    -0.5310669084     1.3402524827
    2      C      -2.7620041594     0.5578048596     0.9767341708
    3      C      -4.0281130762     0.7385902105     0.0711852300
    4      C      -4.1519737693    -0.3602381426    -1.0712740645
    5      C      -2.9197054299    -1.3294261232    -1.1409892210
    6      O      -1.8382464075    -0.5855501524    -1.7287094203
    7      C      -0.5459550959    -1.2882791920    -1.5332315440
    8      C       0.1278854805    -0.5902148415    -0.3055149044
    9      O       1.5202381223    -1.0698286668    -0.1498607696
   10      C       2.1905428283    -0.2559326579     0.8170664130
   11      C       3.6901777023    -0.7088145836     0.8726517068
   12      C       4.3971173681    -0.6925288322    -0.5477438531
   13      C       3.4770340719    -0.1846075764    -1.7097149969
   14      O       3.2669608711    -0.7388156769    -2.8096771504
   15      O      -2.2733547489     1.8368099241     1.3661884490
   16      O       2.9243416962     1.0837990091    -1.3275147676
   17      O       1.6373527605     0.6384701879     1.4961398211
   18      C       2.0832280829     1.6249639356    -2.4182232829
   19      C       4.5817932883     0.3239761700     1.6766883267
   20      C       5.9458594802    -0.3795269041     2.0434483073
   21      C       6.6605689735    -0.3993287223     0.6407395252
   22      C       5.5855668915     0.3263802675    -0.2622890202
   23      O       4.9710204044     1.3173040526     0.6486939945
   24      H       3.7294688310    -1.7202264475     1.3179912091
   25      H       4.7713333416    -1.6925237169    -0.8280067218
   26      H       4.0496608791     0.8200151571     2.5118014030
   27      H       6.5073805452     0.2248701389     2.7735000429
   28      H       5.7965712274    -1.3884746182     2.4600724929
   29      H       7.6002316985     0.1751497340     0.6571068192
   30      H       6.8758332304    -1.4204236547     0.2875850836
   31      H       5.9882098560     0.8258003471    -1.1648640658
   32      O      -2.8617619515    -2.5328664401    -0.8150217836
   33      C      -1.1378978448     1.6968344507     2.3178933821
   34      C      -5.3506276116     0.4311702006     0.9063846534
   35      C      -6.5988671062     0.9269899758     0.0746751487
   36      C      -6.7083520726    -0.2031487632    -1.0159883526
   37      C      -5.4753999604    -1.1118459121    -0.6338398672
   38      O      -5.4454708453    -1.0433094269     0.8464162961
   39      H      -4.0307786136     1.7641616603    -0.3375840141
   40      H      -4.2612690559     0.1259110832    -2.0576771621
   41      H      -0.2109204461     1.3031922802     1.8368610296
   42      H      -5.3180886874     0.7772622007     1.9578809178
   43      H      -7.4959120228     0.9628640946     0.7129938382
   44      H      -6.4357955400     1.9257243457    -0.3611156210
   45      H      -7.6484298049    -0.7688857197    -0.9159569911
   46      H      -6.6379037494     0.1873639395    -2.0437792016
   47      H      -5.5294833932    -2.1659838370    -0.9681985338
   48      H      -1.4099550131     1.0316677982     3.1614690833
   49      H      -0.9469965804     2.7164214940     2.6991481127
   50      H       1.5625106084     2.5042997659    -1.9963831355
   51      H       1.3399099822     0.8830600616    -2.7729842862
   52      H       2.7004194535     1.9429826209    -3.2835947771
   53      H       0.1217558971     0.5083194844    -0.4728758844
   54      H      -0.4894374086    -0.7925051414     0.6018946906
   55      H       0.0583120172    -1.1579150556    -2.4545187009
   56      H      -0.7208904463    -2.3679126945    -1.3407509913
 ----------------------------------------------------------------

   10   -1510.2936112013      5.83E-09 Convergence criterion met
 Total energy in the final basis set = -1510.29361120
 Final energy is   -1510.29361120125
 **  OPTIMIZATION CONVERGED  **

                    Orbital Energies (a.u.)
 --------------------------------------------------------------

 Alpha MOs
 -- Occupied --
-18.938 -18.937 -18.934 -18.926 -18.889 -18.889 -18.883 -18.878
-18.877 -18.874 -10.107 -10.102 -10.099 -10.099 -10.068 -10.064
-10.062 -10.062 -10.060 -10.059 -10.058 -10.049 -10.040 -10.040
-10.038 -10.038 -10.022 -10.022 -10.020 -10.020  -1.020  -1.015
 -1.008  -1.006  -0.971  -0.971  -0.942  -0.937  -0.935  -0.935
 -0.766  -0.763  -0.729  -0.724  -0.711  -0.707  -0.696  -0.661
 -0.658  -0.614  -0.598  -0.581  -0.548  -0.545  -0.538  -0.538
 -0.515  -0.510  -0.484  -0.478  -0.465  -0.461  -0.454  -0.443
 -0.437  -0.432  -0.429  -0.416  -0.413  -0.410  -0.407  -0.399
 -0.391  -0.382  -0.370  -0.369  -0.361  -0.358  -0.355  -0.351
 -0.346  -0.337  -0.335  -0.333  -0.332  -0.329  -0.325  -0.311
 -0.310  -0.307  -0.305  -0.299  -0.295  -0.293  -0.283  -0.278
 -0.271  -0.260  -0.252  -0.248  -0.247  -0.235  -0.235  -0.186
 -0.177  -0.176  -0.173  -0.160  -0.158  -0.152  -0.150  -0.145
 -0.145

          Ground-State Mulliken Net Atomic Charges

     Atom                 Charge (a.u.)
  ----------------------------------------
      1 O                    -0.217430
      2 C                     0.211278
      3 C                    -0.078030
      4 C                    -0.079185
      5 C                     0.214693
      6 O                    -0.181096
      7 C                    -0.053090
      8 C                    -0.061626
      9 O                    -0.174293
     10 C                     0.222460
     11 C                    -0.077861
     12 C                    -0.078570
     13 C                     0.211832
     14 O                    -0.214489
     15 O                    -0.168085
     16 O                    -0.169586
     17 O                    -0.214118
     18 C                    -0.128790
     19 C                     0.024852
     20 C                    -0.143846
     21 C                    -0.143954
     22 C                     0.025849
     23 O                    -0.185899
     24 H                     0.086626
     25 H                     0.086094
     26 H                     0.090051
     27 H                     0.078442
     28 H                     0.073677
     29 H                     0.078291
     30 H                     0.074237
     31 H                     0.082578
     32 O                    -0.204519
     33 C                    -0.142768
     34 C                     0.025894
     35 C                    -0.143915
     36 C                    -0.143682
     37 C                     0.025140
     38 O                    -0.186079
     39 H                     0.087237
     40 H                     0.085386
     41 H                     0.110103
     42 H                     0.083144
     43 H                     0.078587
     44 H                     0.074066
     45 H                     0.078527
     46 H                     0.073368
     47 H                     0.089741
     48 H                     0.085735
     49 H                     0.087212
     50 H                     0.091905
     51 H                     0.088814
     52 H                     0.087089
     53 H                     0.082925
     54 H                     0.105122
     55 H                     0.087843
     56 H                     0.102114
  ----------------------------------------
  Sum of atomic charges =     0.000000

                    Cartesian Multipole Moments
 -----------------------------------------------------------------
    Charge (ESU x 10^10)
                 0.0000
    Dipole Moment (Debye)
         X       0.3665      Y       1.6195      Z      -0.5036
       Tot       1.7352
    Quadrupole Moments (Debye-Ang)
        XX    -141.4460     XY     -14.3155     YY    -166.6513
        XZ       9.2844     YZ      -2.7276     ZZ    -158.4312

 Total job time:  110.34s(wall), 5258.64s(cpu)
        *  Thank you very much for using Q-Chem.  Have a nice day.  *
