 Q-Chem 5.0, Q-Chem, Inc., Pleasanton, CA (2017)
 Q-Chem 5.0.1 for Intel X86 EM64T Linux

User input:
--------------------------------------------------------------
$molecule
0  1
O -3.94934 -3.66094 2.70899
C -3.26408 -4.56952 2.26188
C -3.36658 -6.02376 2.66595
C -3.9311 -6.32654 4.06362
C -4.49534 -5.15211 4.83203
O -3.47691 -4.40815 5.3562
C -3.93328 -3.26962 6.09425
C -3.91417 -2.02749 5.20944
O -4.26544 -0.86977 5.9835
C -4.48879 0.26228 5.27095
C -4.5648 1.49719 6.13691
C -3.27226 1.83836 6.89271
C -2.01996 1.13308 6.41206
O -0.89898 1.28439 6.87582
O -2.40752 -4.29753 1.24277
O -2.01919 0.47511 5.22063
O -4.59654 0.28928 4.04996
C -0.90684 -0.06454 4.60064
C -4.77837 2.81808 5.36358
C -5.40109 3.86051 6.29173
C -4.23259 4.15766 7.21016
C -3.13543 3.32602 6.53624
O -3.48386 3.33548 5.17235
H -5.42874 1.34753 6.8234
H -3.36368 1.62473 7.98014
H -5.40202 2.70412 4.45045
H -5.60234 4.76354 5.67146
H -6.3394 3.55377 6.80191
H -4.00454 5.24482 7.14748
H -4.37317 3.8561 8.2709
H -2.12934 3.73016 6.78547
O -5.69066 -4.95832 5.03105
C -2.2059 -3.03949 0.71443
C -4.36964 -6.77195 1.77241
C -4.07025 -8.26979 1.79275
C -4.53986 -8.62939 3.18539
C -5.08234 -7.27487 3.65422
O -5.58145 -6.68746 2.47796
H -2.34917 -6.45927 2.54221
H -3.21996 -6.86069 4.73297
H -1.82487 -2.35165 1.49969
H -4.38516 -6.3976 0.72492
H -4.7458 -8.75754 1.05398
H -3.01652 -8.53702 1.56195
H -5.37352 -9.36127 3.09558
H -3.7565 -9.02973 3.86462
H -5.81905 -7.43153 4.47292
H -3.15584 -2.64269 0.29662
H -1.45604 -3.10283 -0.10051
H -1.21267 -0.52821 3.64038
H -0.4499 -0.84432 5.24675
H -0.16294 0.73201 4.38601
H -2.91814 -1.90474 4.74041
H -4.6866 -2.18424 4.42794
H -3.21219 -3.107 6.92314
H -4.92492 -3.39943 6.58456
$end

$opt
CONSTRAINT
tors           1           2           3           4     -25.210
tors           3           4           5           6     -77.400
tors           4           5           6           7    +179.662
tors           5           6           7           8     -96.303
tors           6           7           8           9    -175.214
tors           7           8           9          10    -170.064
tors           8           9          10          11    -167.876
tors           9          10          11          12     +63.244
tors          11          12          13          14    +179.176
ENDCONSTRAINT
$end

$rem
JOBTYPE                   OPT
METHOD                    B3LYP
DFT_D                     d3_op
BASIS                     STO-3G
GEOM_OPT_MAX_CYCLES       100
GEOM_OPT_TOL_GRADIENT     300
GEOM_OPT_TOL_DISPLACEMENT 1200
GEOM_OPT_TOL_ENERGY       100
SYMMETRY                  False
THRESH                    12
SCF_CONVERGENCE           8
MAX_SUB_FILE_NUM          128
MEM_STATIC                400
MEM_TOTAL                 4000
$end
--------------------------------------------------------------

   15   -1510.1530218160      6.32E-09 Convergence criterion met
 Total energy in the final basis set = -1510.15302182
   13   -1510.2240456167      6.65E-09 Convergence criterion met
 Total energy in the final basis set = -1510.22404562
   13   -1510.2621656130      5.58E-09 Convergence criterion met
 Total energy in the final basis set = -1510.26216561
   14   -1510.2780441530      6.36E-09 Convergence criterion met
 Total energy in the final basis set = -1510.27804415
   14   -1510.2811889430      3.89E-09 Convergence criterion met
 Total energy in the final basis set = -1510.28118894
   13   -1510.2835983221      4.74E-09 Convergence criterion met
 Total energy in the final basis set = -1510.28359832
   12   -1510.2840828909      9.56E-09 Convergence criterion met
 Total energy in the final basis set = -1510.28408289
   13   -1510.2843481561      2.15E-09 Convergence criterion met
   12   -1510.2846428722      5.51E-09 Convergence criterion met
 Total energy in the final basis set = -1510.28464287
   10   -1510.2846732081      6.45E-09 Convergence criterion met
 Total energy in the final basis set = -1510.28467321
   11   -1510.2847012740      5.25E-09 Convergence criterion met
 Total energy in the final basis set = -1510.28470127
   10   -1510.2847174075      5.55E-09 Convergence criterion met
 Total energy in the final basis set = -1510.28471741
    9   -1510.2847299228      7.94E-09 Convergence criterion met
 Total energy in the final basis set = -1510.28472992
    9   -1510.2847359302      7.04E-09 Convergence criterion met
 Total energy in the final basis set = -1510.28473593

             Standard Nuclear Orientation (Angstroms)
    I     Atom           X                Y                Z
 ----------------------------------------------------------------
    1      O      -2.2356598221     0.2638709989     1.1458302327
    2      C      -3.0384850814     1.0656383698     0.6143992428
    3      C      -4.3442525445     0.6927607356    -0.1621183684
    4      C      -4.2757007526    -0.7673219804    -0.7777024669
    5      C      -2.8970667180    -1.4820802271    -0.5274482441
    6      O      -1.9590997753    -0.9220744484    -1.4650993675
    7      C      -0.6240926126    -1.5404762931    -1.2885315835
    8      C       0.2255357639    -0.5979566507    -0.3682132287
    9      O       1.5978978568    -1.1468273373    -0.2795190433
   10      C       2.3362963668    -0.4450577884     0.7331933486
   11      C       3.8483050091    -0.8385326417     0.5752864740
   12      C       4.5537623163    -0.4257377528    -0.7819316975
   13      C       3.8571591055     0.6746819916    -1.6627342010
   14      O       4.2925020602     1.1182713965    -2.7480502192
   15      O      -2.8940752326     2.4841902868     0.6584238193
   16      O       2.7291797396     1.2344173674    -0.9859048095
   17      O       1.8311563689     0.2898953829     1.6074027322
   18      C       2.1479003959     2.3433091793    -1.7749322879
   19      C       4.7879132533    -0.1417283132     1.6479831443
   20      C       6.0417797220    -1.0741309126     1.8583353732
   21      C       6.7770829099    -0.8855007445     0.4786747298
   22      C       5.8858602472     0.2292055045    -0.2015046812
   23      O       5.3625980759     1.0232390170     0.9337730269
   24      H       3.9016192547    -1.9382787458     0.6791423976
   25      H       4.7656078565    -1.3013861927    -1.4214257524
   26      H       4.2570771440     0.1858466985     2.5630913190
   27      H       6.6577687482    -0.7075431834     2.6951075153
   28      H       5.7615740033    -2.1211886869     2.0553753162
   29      H       7.8100209121    -0.5272043862     0.6117290531
   30      H       6.7987238125    -1.8115249066    -0.1179597641
   31      H       6.4154486917     0.8799751509    -0.9245184911
   32      O      -2.6660617103    -2.4645432581     0.2078369203
   33      C      -1.6711865500     2.8398601860     1.4198544029
   34      C      -5.5747398704     0.5304957768     0.8360812343
   35      C      -6.9015664554     0.4641629897    -0.0204461529
   36      C      -6.8231041078    -1.0000010686    -0.5934211108
   37      C      -5.4480193993    -1.4865870902     0.0088520708
   38      O      -5.4118670072    -0.8476804614     1.3459856451
   39      H      -4.5422165072     1.4648506113    -0.9260952670
   40      H      -4.4586005135    -0.7424712521    -1.8668844050
   41      H      -0.7697672240     2.3533009720     0.9943999847
   42      H      -5.5879768452     1.2576430688     1.6714155672
   43      H      -7.7833209143     0.5995996305     0.6259521419
   44      H      -6.9224158762     1.2305570965    -0.8117928936
   45      H      -7.6497708580    -1.6240692775    -0.2184646776
   46      H      -6.8292972034    -1.0281747832    -1.6948295706
   47      H      -5.3214920110    -2.5824235024     0.1042746833
   48      H      -1.7572289421     2.5444062592     2.4853612927
   49      H      -1.5753389151     3.9385876265     1.3461988878
   50      H       1.3704600007     2.7977228438    -1.1334364305
   51      H       1.6859976179     1.9743645355    -2.7139081809
   52      H       2.9130812506     3.1032083227    -2.0324426642
   53      H       0.2575431704     0.4208351510    -0.8117977103
   54      H      -0.2609446804    -0.5157996339     0.6292904154
   55      H      -0.1650759366    -1.6289815513    -2.2940130233
   56      H      -0.7277254268    -2.5431821389    -0.8222153559
 ----------------------------------------------------------------

    9   -1510.2847368751      5.82E-09 Convergence criterion met
 Total energy in the final basis set = -1510.28473688
 Final energy is   -1510.28473687510
 **  OPTIMIZATION CONVERGED  **

                    Orbital Energies (a.u.)
 --------------------------------------------------------------

 Alpha MOs
 -- Occupied --
-18.944 -18.943 -18.922 -18.918 -18.889 -18.884 -18.884 -18.874
-18.869 -18.864 -10.106 -10.102 -10.095 -10.094 -10.070 -10.068
-10.063 -10.063 -10.059 -10.058 -10.057 -10.055 -10.041 -10.039
-10.036 -10.032 -10.022 -10.021 -10.019 -10.018  -1.020  -1.017
 -1.004  -0.998  -0.972  -0.968  -0.943  -0.938  -0.932  -0.926
 -0.765  -0.761  -0.726  -0.722  -0.711  -0.704  -0.691  -0.667
 -0.666  -0.612  -0.597  -0.578  -0.546  -0.542  -0.538  -0.536
 -0.513  -0.509  -0.485  -0.477  -0.464  -0.456  -0.454  -0.444
 -0.435  -0.431  -0.424  -0.417  -0.416  -0.413  -0.410  -0.394
 -0.392  -0.380  -0.376  -0.367  -0.362  -0.358  -0.353  -0.346
 -0.342  -0.339  -0.336  -0.331  -0.329  -0.327  -0.320  -0.312
 -0.308  -0.306  -0.305  -0.301  -0.297  -0.292  -0.280  -0.274
 -0.268  -0.260  -0.247  -0.244  -0.240  -0.235  -0.233  -0.185
 -0.182  -0.170  -0.165  -0.159  -0.156  -0.149  -0.146  -0.143
 -0.143

          Ground-State Mulliken Net Atomic Charges

     Atom                 Charge (a.u.)
  ----------------------------------------
      1 O                    -0.208806
      2 C                     0.213960
      3 C                    -0.078520
      4 C                    -0.079999
      5 C                     0.215631
      6 O                    -0.181893
      7 C                    -0.052217
      8 C                    -0.054160
      9 O                    -0.180821
     10 C                     0.221497
     11 C                    -0.080854
     12 C                    -0.076283
     13 C                     0.212676
     14 O                    -0.216015
     15 O                    -0.167393
     16 O                    -0.166355
     17 O                    -0.216799
     18 C                    -0.126277
     19 C                     0.023527
     20 C                    -0.142618
     21 C                    -0.144908
     22 C                     0.024398
     23 O                    -0.191841
     24 H                     0.083373
     25 H                     0.086725
     26 H                     0.090732
     27 H                     0.077791
     28 H                     0.073556
     29 H                     0.078228
     30 H                     0.073698
     31 H                     0.084920
     32 O                    -0.211765
     33 C                    -0.129133
     34 C                     0.025760
     35 C                    -0.143585
     36 C                    -0.143980
     37 C                     0.025224
     38 O                    -0.186911
     39 H                     0.086936
     40 H                     0.085028
     41 H                     0.094498
     42 H                     0.083580
     43 H                     0.078606
     44 H                     0.073869
     45 H                     0.078648
     46 H                     0.073470
     47 H                     0.090139
     48 H                     0.092920
     49 H                     0.091679
     50 H                     0.091146
     51 H                     0.088474
     52 H                     0.094735
     53 H                     0.076481
     54 H                     0.104924
     55 H                     0.085132
     56 H                     0.099171
  ----------------------------------------
  Sum of atomic charges =    -0.000000

                    Cartesian Multipole Moments
 -----------------------------------------------------------------
    Charge (ESU x 10^10)
                 0.0000
    Dipole Moment (Debye)
         X      -0.9610      Y       0.8734      Z      -1.8195
       Tot       2.2353
    Quadrupole Moments (Debye-Ang)
        XX    -144.5618     XY     -13.8982     YY    -157.3395
        XZ      10.2319     YZ       3.4597     ZZ    -164.7206

 Total job time:  47.02s(wall), 2231.49s(cpu)
        *  Thank you very much for using Q-Chem.  Have a nice day.  *
