 Q-Chem 5.0, Q-Chem, Inc., Pleasanton, CA (2017)
 Q-Chem 5.0.1 for Intel X86 EM64T Linux

User input:
--------------------------------------------------------------
$molecule
0  1
O -3.94934 -3.66094 2.70899
C -3.26408 -4.56952 2.26188
C -3.36658 -6.02376 2.66595
C -3.95027 -6.32744 4.05553
C -4.53046 -5.15455 4.81435
O -3.53101 -4.46951 5.44462
C -3.99386 -3.29923 6.12689
C -3.60178 -2.04751 5.34868
O -3.96942 -0.87436 6.09127
C -3.96895 0.28501 5.38772
C -4.17056 1.50199 6.25892
C -3.0623 1.74864 7.29294
C -1.77333 0.98179 7.0757
O -0.77714 1.05582 7.78047
O -2.42905 -4.30328 1.2235
O -1.55308 0.31341 5.91077
O -3.8066 0.34831 4.17403
C -0.37309 -0.31114 5.55118
C -4.1373 2.85125 5.50592
C -4.89554 3.90627 6.31087
C -3.94686 4.11202 7.47492
C -2.77207 3.23356 7.03022
O -2.80741 3.29586 5.62427
H -5.17191 1.3875 6.73249
H -3.40475 1.51407 8.32455
H -4.54724 2.79618 4.47411
H -4.9061 4.83409 5.69463
H -5.93862 3.64355 6.58971
H -3.65428 5.18506 7.50382
H -4.33551 3.79392 8.4667
H -1.82695 3.57151 7.50999
O -5.73216 -4.94923 4.95425
C -2.23623 -3.04805 0.68538
C -4.34317 -6.78152 1.75356
C -4.03678 -8.2777 1.78931
C -4.54329 -8.63301 3.16995
C -5.0943 -7.27644 3.62218
O -5.56964 -6.69595 2.43244
H -2.34044 -6.44586 2.57204
H -3.25835 -6.87222 4.73667
H -1.83778 -2.35758 1.45961
H -4.33616 -6.41202 0.7043
H -4.68661 -8.77534 1.03433
H -2.97425 -8.53611 1.59102
H -5.37929 -9.35949 3.05957
H -3.78034 -9.0389 3.86875
H -5.84866 -7.43119 4.42511
H -3.19378 -2.65128 0.28539
H -1.50327 -3.11645 -0.14439
H -0.49051 -0.76116 4.54416
H -0.12986 -1.11546 6.27792
H 0.45581 0.42741 5.51305
H -2.51535 -2.0463 5.12717
H -4.18029 -2.07397 4.40593
H -3.49714 -3.27592 7.1199
H -5.08625 -3.25941 6.33595
$end

$opt
CONSTRAINT
tors           1           2           3           4     -24.338
tors           3           4           5           6     -82.405
tors           4           5           6           7    +176.795
tors           5           6           7           8    -105.368
tors           6           7           8           9    -175.214
tors           7           8           9          10    -165.007
tors           8           9          10          11    -171.863
tors           9          10          11          12     +63.244
tors          11          12          13          14    +179.176
ENDCONSTRAINT
$end

$rem
JOBTYPE                   OPT
METHOD                    B3LYP
DFT_D                     d3_op
BASIS                     STO-3G
GEOM_OPT_MAX_CYCLES       100
GEOM_OPT_TOL_GRADIENT     300
GEOM_OPT_TOL_DISPLACEMENT 1200
GEOM_OPT_TOL_ENERGY       100
SYMMETRY                  False
THRESH                    12
SCF_CONVERGENCE           8
MAX_SUB_FILE_NUM          128
MEM_STATIC                400
MEM_TOTAL                 4000
$end
--------------------------------------------------------------

   15   -1510.1530577948      6.57E-09 Convergence criterion met
 Total energy in the final basis set = -1510.15305779
   13   -1510.2244270952      6.63E-09 Convergence criterion met
 Total energy in the final basis set = -1510.22442710
   13   -1510.2630502224      7.09E-09 Convergence criterion met
 Total energy in the final basis set = -1510.26305022
   14   -1510.2794844547      6.45E-09 Convergence criterion met
 Total energy in the final basis set = -1510.27948445
   14   -1510.2829804013      4.13E-09 Convergence criterion met
 Total energy in the final basis set = -1510.28298040
   13   -1510.2847238000      6.41E-09 Convergence criterion met
 Total energy in the final basis set = -1510.28472380
   12   -1510.2851681222      5.72E-09 Convergence criterion met
 Total energy in the final basis set = -1510.28516812
   12   -1510.2852765998      8.35E-09 Convergence criterion met
   10   -1510.2854030569      9.25E-09 Convergence criterion met
 Total energy in the final basis set = -1510.28540306
   10   -1510.2854115882      7.75E-09 Convergence criterion met
 Total energy in the final basis set = -1510.28541159
    9   -1510.2854168257      6.49E-09 Convergence criterion met
 Total energy in the final basis set = -1510.28541683
    9   -1510.2854209495      3.44E-09 Convergence criterion met
 Total energy in the final basis set = -1510.28542095
    9   -1510.2854237571      4.82E-09 Convergence criterion met
 Total energy in the final basis set = -1510.28542376
    9   -1510.2854249865      4.53E-09 Convergence criterion met
 Total energy in the final basis set = -1510.28542499

             Standard Nuclear Orientation (Angstroms)
    I     Atom           X                Y                Z
 ----------------------------------------------------------------
    1      O      -2.2088041429     0.4132627289     1.0834519923
    2      C      -3.0173551419     1.1239489344     0.4409743443
    3      C      -4.3264264717     0.6411500214    -0.2676030197
    4      C      -4.2819930017    -0.8997945502    -0.6474186432
    5      C      -2.9534478445    -1.6026183545    -0.1850015232
    6      O      -1.9632461831    -1.3186709071    -1.1895401565
    7      C      -0.6517824493    -1.8839132838    -0.7907144955
    8      C       0.2213005121    -0.6660070982    -0.3353358964
    9      O       1.5940089718    -1.1255843516    -0.0263699309
   10      C       2.2825392161    -0.1041975957     0.7124659935
   11      C       3.7863329752    -0.5366315153     0.8369824626
   12      C       4.6042114890    -0.6606565466    -0.5147390468
   13      C       4.0080870876     0.0337023130    -1.7933830737
   14      O       4.5348718710     0.0416369007    -2.9277195402
   15      O      -2.8650083926     2.5298270278     0.2581425527
   16      O       2.8469001779     0.7998364943    -1.4655381248
   17      O       1.7381568085     0.9004872819     1.2179230540
   18      C       2.3479393793     1.5233952898    -2.6558723948
   19      C       4.6676635244     0.5049500991     1.6482813715
   20      C       5.8713658940    -0.2859254045     2.2887963550
   21      C       6.7117827423    -0.6262337985     1.0018585057
   22      C       5.9101201263     0.1591615304    -0.1118497896
   23      O       5.3307273209     1.3198314954     0.6023975887
   24      H       3.7928970890    -1.5190053359     1.3446412769
   25      H       4.8334335719    -1.7123251498    -0.7636861142
   26      H       4.0836401330     1.1508321845     2.3328225511
   27      H       6.4358568170     0.3649201587     2.9756673265
   28      H       5.5444561250    -1.1832254342     2.8378642417
   29      H       7.7434674576    -0.2476202238     1.0755955474
   30      H       6.7474529612    -1.7075017661     0.7929682064
   31      H       6.5133605042     0.4930680540    -0.9787077572
   32      O      -2.7943820654    -2.3938880863     0.7682003369
   33      C      -1.6367568924     2.9961991293     0.9498102179
   34      C      -5.5800326963     0.6671620735     0.7157596854
   35      C      -6.8882395228     0.5449666103    -0.1616364757
   36      C      -6.8491602147    -0.9792150810    -0.5536854293
   37      C      -5.5248897479    -1.4464983716     0.1678244610
   38      O      -5.4998035199    -0.6358280935     1.4095785771
   39      H      -4.5023281916     1.2801718801    -1.1511307057
   40      H      -4.3938278787    -1.0415865876    -1.7370258023
   41      H      -0.7391601771     2.4358339456     0.6164749730
   42      H      -5.5764599629     1.5006437135     1.4450437393
   43      H      -7.7787637799     0.7859867938     0.4404863731
   44      H      -6.8630868977     1.2113541240    -1.0385930962
   45      H      -7.7191358737    -1.5221940668    -0.1515517725
   46      H      -6.8057368673    -1.1371282112    -1.6430882044
   47      H      -5.4654799832    -2.5243288402     0.4136969847
   48      H      -1.7279848314     2.8873126321     2.0496861943
   49      H      -1.5302469233     4.0654423919     0.6910746790
   50      H       1.4998263223     2.1385673262    -2.3029591999
   51      H       1.9977400521     0.8220315671    -3.4409757055
   52      H       3.1299277681     2.1789079899    -3.0901356909
   53      H       0.2560127834     0.0846819327    -1.1554131192
   54      H      -0.2651548625    -0.1852793444     0.5439013901
   55      H      -0.2099937046    -2.3894851130    -1.6737404275
   56      H      -0.7951715497    -2.6085707401     0.0388730386
 ----------------------------------------------------------------

    9   -1510.2854254295      4.91E-09 Convergence criterion met
 Total energy in the final basis set = -1510.28542543
 Final energy is   -1510.28542542951
 **  OPTIMIZATION CONVERGED  **

                    Orbital Energies (a.u.)
 --------------------------------------------------------------

 Alpha MOs
 -- Occupied --
-18.945 -18.942 -18.920 -18.919 -18.889 -18.885 -18.885 -18.874
-18.868 -18.863 -10.107 -10.101 -10.095 -10.094 -10.069 -10.066
-10.064 -10.061 -10.059 -10.059 -10.055 -10.055 -10.042 -10.039
-10.036 -10.033 -10.022 -10.021 -10.019 -10.018  -1.021  -1.016
 -1.003  -0.998  -0.972  -0.968  -0.943  -0.938  -0.931  -0.925
 -0.765  -0.761  -0.726  -0.722  -0.710  -0.704  -0.691  -0.666
 -0.665  -0.612  -0.597  -0.577  -0.546  -0.542  -0.538  -0.535
 -0.513  -0.509  -0.485  -0.477  -0.463  -0.457  -0.454  -0.444
 -0.435  -0.432  -0.423  -0.416  -0.414  -0.412  -0.410  -0.394
 -0.392  -0.380  -0.376  -0.366  -0.361  -0.358  -0.352  -0.346
 -0.342  -0.337  -0.336  -0.331  -0.329  -0.327  -0.320  -0.312
 -0.307  -0.306  -0.305  -0.301  -0.297  -0.292  -0.280  -0.274
 -0.268  -0.260  -0.245  -0.243  -0.240  -0.235  -0.233  -0.186
 -0.181  -0.169  -0.164  -0.160  -0.155  -0.149  -0.146  -0.144
 -0.143

          Ground-State Mulliken Net Atomic Charges

     Atom                 Charge (a.u.)
  ----------------------------------------
      1 O                    -0.209235
      2 C                     0.214101
      3 C                    -0.078708
      4 C                    -0.080013
      5 C                     0.216239
      6 O                    -0.182191
      7 C                    -0.053732
      8 C                    -0.055588
      9 O                    -0.179773
     10 C                     0.221842
     11 C                    -0.080842
     12 C                    -0.076326
     13 C                     0.212884
     14 O                    -0.215969
     15 O                    -0.166957
     16 O                    -0.166036
     17 O                    -0.220176
     18 C                    -0.125934
     19 C                     0.023626
     20 C                    -0.142709
     21 C                    -0.144923
     22 C                     0.024468
     23 O                    -0.191844
     24 H                     0.083586
     25 H                     0.086816
     26 H                     0.090369
     27 H                     0.077772
     28 H                     0.073636
     29 H                     0.078172
     30 H                     0.073760
     31 H                     0.084941
     32 O                    -0.211731
     33 C                    -0.130119
     34 C                     0.025821
     35 C                    -0.143267
     36 C                    -0.144284
     37 C                     0.025424
     38 O                    -0.186195
     39 H                     0.086778
     40 H                     0.085435
     41 H                     0.099048
     42 H                     0.083835
     43 H                     0.078685
     44 H                     0.073943
     45 H                     0.078700
     46 H                     0.073550
     47 H                     0.089310
     48 H                     0.091890
     49 H                     0.091968
     50 H                     0.091860
     51 H                     0.089137
     52 H                     0.093809
     53 H                     0.075872
     54 H                     0.104045
     55 H                     0.083648
     56 H                     0.101581
  ----------------------------------------
  Sum of atomic charges =    -0.000000

                    Cartesian Multipole Moments
 -----------------------------------------------------------------
    Charge (ESU x 10^10)
                -0.0000
    Dipole Moment (Debye)
         X      -0.9443      Y       0.6308      Z      -1.6249
       Tot       1.9824
    Quadrupole Moments (Debye-Ang)
        XX    -146.5549     XY     -11.1626     YY    -158.2238
        XZ      15.1304     YZ       1.4063     ZZ    -163.0263

 Total job time:  51.30s(wall), 2441.19s(cpu)
        *  Thank you very much for using Q-Chem.  Have a nice day.  *
