 Q-Chem 5.0, Q-Chem, Inc., Pleasanton, CA (2017)
 Q-Chem 5.0.1 for Intel X86 EM64T Linux

User input:
--------------------------------------------------------------
$molecule
0  1
O -2.2088041429 0.4132627289 1.0834519923
C -3.0173551419 1.1239489344 0.4409743443
C -4.3264264717 0.6411500214 -0.2676030197
C -4.2819930017 -0.8997945502 -0.6474186432
C -2.9534478445 -1.6026183545 -0.1850015232
O -1.9632461831 -1.3186709071 -1.1895401565
C -0.6517824493 -1.8839132838 -0.7907144955
C 0.2213005121 -0.6660070982 -0.3353358964
O 1.5940089718 -1.1255843516 -0.0263699309
C 2.2825392161 -0.1041975957 0.7124659935
C 3.7863329752 -0.5366315153 0.8369824626
C 4.604211489 -0.6606565466 -0.5147390468
C 4.0080870876 0.033702313 -1.7933830737
O 4.534871871 0.0416369007 -2.9277195402
O -2.8650083926 2.5298270278 0.2581425527
O 2.8469001779 0.7998364943 -1.4655381248
O 1.7381568085 0.9004872819 1.217923054
C 2.3479393793 1.5233952898 -2.6558723948
C 4.6676635244 0.5049500991 1.6482813715
C 5.871365894 -0.2859254045 2.288796355
C 6.7117827423 -0.6262337985 1.0018585057
C 5.9101201263 0.1591615304 -0.1118497896
O 5.3307273209 1.3198314954 0.6023975887
H 3.792897089 -1.5190053359 1.3446412769
H 4.8334335719 -1.7123251498 -0.7636861142
H 4.083640133 1.1508321845 2.3328225511
H 6.435856817 0.3649201587 2.9756673265
H 5.544456125 -1.1832254342 2.8378642417
H 7.7434674576 -0.2476202238 1.0755955474
H 6.7474529612 -1.7075017661 0.7929682064
H 6.5133605042 0.493068054 -0.9787077572
O -2.7943820654 -2.3938880863 0.7682003369
C -1.6367568924 2.9961991293 0.9498102179
C -5.5800326963 0.6671620735 0.7157596854
C -6.8882395228 0.5449666103 -0.1616364757
C -6.8491602147 -0.979215081 -0.5536854293
C -5.5248897479 -1.4464983716 0.167824461
O -5.4998035199 -0.6358280935 1.4095785771
H -4.5023281916 1.2801718801 -1.1511307057
H -4.3938278787 -1.0415865876 -1.7370258023
H -0.7391601771 2.4358339456 0.616474973
H -5.5764599629 1.5006437135 1.4450437393
H -7.7787637799 0.7859867938 0.4404863731
H -6.8630868977 1.211354124 -1.0385930962
H -7.7191358737 -1.5221940668 -0.1515517725
H -6.8057368673 -1.1371282112 -1.6430882044
H -5.4654799832 -2.5243288402 0.4136969847
H -1.7279848314 2.8873126321 2.0496861943
H -1.5302469233 4.0654423919 0.691074679
H 1.4998263223 2.1385673262 -2.3029591999
H 1.9977400521 0.8220315671 -3.4409757055
H 3.1299277681 2.1789079899 -3.0901356909
H 0.2560127834 0.0846819327 -1.1554131192
H -0.2651548625 -0.1852793444 0.5439013901
H -0.2099937046 -2.389485113 -1.6737404275
H -0.7951715497 -2.6085707401 0.0388730386
$end

$rem
JOBTYPE                   OPT
METHOD                    B3LYP
DFT_D                     d3_op
BASIS                     STO-3G
GEOM_OPT_MAX_CYCLES       100
GEOM_OPT_TOL_GRADIENT     300
GEOM_OPT_TOL_DISPLACEMENT 1200
GEOM_OPT_TOL_ENERGY       100
SYMMETRY                  False
THRESH                    12
SCF_CONVERGENCE           8
MAX_SUB_FILE_NUM          128
MEM_STATIC                400
MEM_TOTAL                 4000
$end
--------------------------------------------------------------

   16   -1510.2854260831      5.88E-09 Convergence criterion met
 Total energy in the final basis set = -1510.28542608
   14   -1510.2847233035      5.49E-09 Convergence criterion met
 Total energy in the final basis set = -1510.28472330
   14   -1510.2874332970      6.07E-09 Convergence criterion met
 Total energy in the final basis set = -1510.28743330
   14   -1510.2878839083      4.82E-09 Convergence criterion met
 Total energy in the final basis set = -1510.28788391
   13   -1510.2891693217      6.39E-09 Convergence criterion met
 Total energy in the final basis set = -1510.28916932
   14   -1510.2889937883      4.65E-09 Convergence criterion met
 Total energy in the final basis set = -1510.28899379
   13   -1510.2901645845      7.90E-09 Convergence criterion met
 Total energy in the final basis set = -1510.29016458
   13   -1510.2916744651      3.96E-09 Convergence criterion met
   13   -1510.2936962163      3.05E-09 Convergence criterion met
 Total energy in the final basis set = -1510.29369622
   13   -1510.2935919614      2.41E-09 Convergence criterion met
 Total energy in the final basis set = -1510.29359196
   12   -1510.2936929707      6.92E-09 Convergence criterion met
 Total energy in the final basis set = -1510.29369297
   12   -1510.2936713759      3.63E-09 Convergence criterion met
 Total energy in the final basis set = -1510.29367138
   12   -1510.2937095962      3.82E-09 Convergence criterion met
 Total energy in the final basis set = -1510.29370960
   10   -1510.2937038327      4.83E-09 Convergence criterion met
 Total energy in the final basis set = -1510.29370383

             Standard Nuclear Orientation (Angstroms)
    I     Atom           X                Y                Z
 ----------------------------------------------------------------
    1      O      -2.1593872382     0.6142585157     1.1446061396
    2      C      -2.7538215370     1.1355411806     0.1695275349
    3      C      -4.0773575362     0.6223756335    -0.4928842426
    4      C      -4.2088231122    -0.9619346721    -0.4927284305
    5      C      -2.9339591365    -1.7009727192     0.0482935851
    6      O      -1.9359538233    -1.6207118540    -0.9845097998
    7      C      -0.6023318879    -2.0028325112    -0.4562244114
    8      C       0.1200724667    -0.6564637997    -0.1221858611
    9      O       1.4840681939    -0.9245131076     0.3900493065
   10      C       2.1353777900     0.3238707732     0.6423157979
   11      C       3.5884530038     0.0242873337     1.1487064572
   12      C       4.4385622305    -0.8669096576     0.1480851326
   13      C       3.6701755639    -1.2698057632    -1.1545301633
   14      O       3.5568967592    -2.4130986482    -1.6458427685
   15      O      -2.3168063092     2.3155737386    -0.4946283520
   16      O       3.1210009376    -0.0830535931    -1.7456879994
   17      O       1.5922633731     1.4442007822     0.5108324543
   18      C       2.3811727176    -0.4278303353    -2.9804969088
   19      C       4.4627628099     1.3425829322     1.2098857826
   20      C       5.7371126582     1.0486402358     2.0938333431
   21      C       6.5886719574     0.1617142821     1.1103926818
   22      C       5.6487156512     0.1226458410    -0.1586026926
   23      O       5.0086795597     1.4560572538    -0.1631617165
   24      H       3.5141823614    -0.4649637664     2.1375537022
   25      H       4.7863770572    -1.7965940267     0.6309436151
   26      H       3.8857327278     2.2506017767     1.4724026975
   27      H       6.2580103364     1.9857082870     2.3469338283
   28      H       5.4803807720     0.5222120335     3.0268913268
   29      H       7.5488930133     0.6411542819     0.8621546792
   30      H       6.7893466915    -0.8457054631     1.5086206762
   31      H       6.1631210337    -0.0650215611    -1.1211352556
   32      O      -2.7919692129    -2.3105569161     1.1283895567
   33      C      -1.1202222669     2.8869655724     0.1806457132
   34      C      -5.3344729163     1.0113171028     0.4063883853
   35      C      -6.6500680054     0.7591895712    -0.4329291207
   36      C      -6.7613638791    -0.8096378849    -0.3657222245
   37      C      -5.4621971213    -1.1684252812     0.4540463237
   38      O      -5.3533115993    -0.0568750488     1.4285466390
   39      H      -4.1539898209     1.0453644498    -1.5097749674
   40      H      -4.4048902676    -1.3275859044    -1.5170301415
   41      H      -0.2353532889     2.2078742379     0.1644746037
   42      H      -5.2652950305     2.0080469594     0.8840611658
   43      H      -7.5123638357     1.2482179811     0.0477093992
   44      H      -6.5601141155     1.1354360187    -1.4645289328
   45      H      -7.6625119940    -1.1258947420     0.1833919943
   46      H      -6.7705623901    -1.2804392245    -1.3616320871
   47      H      -5.4748959605    -2.1418401155     0.9813101754
   48      H      -1.3493611946     3.1433776872     1.2345317574
   49      H      -0.8842422895     3.8114599577    -0.3771007372
   50      H       1.8754763051     0.5006082204    -3.3037017803
   51      H       1.6286299646    -1.2213368131    -2.7982487865
   52      H       3.0666792467    -0.7725344644    -3.7817987593
   53      H       0.1706849482    -0.0319051713    -1.0398910130
   54      H      -0.4994832748    -0.1073294089     0.6274855658
   55      H      -0.0716301197    -2.5691704981    -1.2484218917
   56      H      -0.7170180590    -2.6312786879     0.4524350693
 ----------------------------------------------------------------

    9   -1510.2937074730      8.40E-09 Convergence criterion met
 Total energy in the final basis set = -1510.29370747
 Final energy is   -1510.29370747305
 **  OPTIMIZATION CONVERGED  **

                    Orbital Energies (a.u.)
 --------------------------------------------------------------

 Alpha MOs
 -- Occupied --
-18.940 -18.935 -18.934 -18.925 -18.889 -18.888 -18.880 -18.879
-18.877 -18.874 -10.105 -10.104 -10.099 -10.099 -10.067 -10.065
-10.063 -10.061 -10.059 -10.058 -10.058 -10.051 -10.041 -10.039
-10.038 -10.038 -10.022 -10.021 -10.020 -10.020  -1.018  -1.015
 -1.007  -1.006  -0.971  -0.970  -0.940  -0.938  -0.935  -0.934
 -0.765  -0.764  -0.728  -0.724  -0.711  -0.706  -0.696  -0.661
 -0.659  -0.614  -0.598  -0.580  -0.547  -0.545  -0.538  -0.538
 -0.515  -0.511  -0.483  -0.477  -0.465  -0.461  -0.454  -0.443
 -0.437  -0.432  -0.428  -0.416  -0.413  -0.410  -0.407  -0.399
 -0.391  -0.381  -0.371  -0.369  -0.360  -0.358  -0.357  -0.351
 -0.345  -0.337  -0.335  -0.333  -0.331  -0.329  -0.325  -0.311
 -0.309  -0.307  -0.305  -0.300  -0.294  -0.292  -0.283  -0.278
 -0.270  -0.260  -0.251  -0.247  -0.246  -0.235  -0.235  -0.186
 -0.177  -0.174  -0.173  -0.159  -0.158  -0.152  -0.150  -0.145
 -0.144

          Ground-State Mulliken Net Atomic Charges

     Atom                 Charge (a.u.)
  ----------------------------------------
      1 O                    -0.216337
      2 C                     0.212875
      3 C                    -0.078062
      4 C                    -0.079141
      5 C                     0.214355
      6 O                    -0.180887
      7 C                    -0.053197
      8 C                    -0.063007
      9 O                    -0.175005
     10 C                     0.222175
     11 C                    -0.077888
     12 C                    -0.078964
     13 C                     0.211819
     14 O                    -0.213526
     15 O                    -0.167362
     16 O                    -0.168863
     17 O                    -0.215487
     18 C                    -0.128386
     19 C                     0.024739
     20 C                    -0.143942
     21 C                    -0.143793
     22 C                     0.025983
     23 O                    -0.186144
     24 H                     0.086446
     25 H                     0.085989
     26 H                     0.090101
     27 H                     0.078308
     28 H                     0.073718
     29 H                     0.078178
     30 H                     0.074253
     31 H                     0.082596
     32 O                    -0.204887
     33 C                    -0.141521
     34 C                     0.025938
     35 C                    -0.143847
     36 C                    -0.143730
     37 C                     0.025102
     38 O                    -0.186143
     39 H                     0.087531
     40 H                     0.085391
     41 H                     0.111446
     42 H                     0.083277
     43 H                     0.078610
     44 H                     0.074074
     45 H                     0.078598
     46 H                     0.073506
     47 H                     0.089899
     48 H                     0.085020
     49 H                     0.087799
     50 H                     0.091621
     51 H                     0.088410
     52 H                     0.087784
     53 H                     0.080092
     54 H                     0.106057
     55 H                     0.086470
     56 H                     0.101960
  ----------------------------------------
  Sum of atomic charges =     0.000000

                    Cartesian Multipole Moments
 -----------------------------------------------------------------
    Charge (ESU x 10^10)
                 0.0000
    Dipole Moment (Debye)
         X      -0.0434      Y       0.7290      Z      -1.4379
       Tot       1.6127
    Quadrupole Moments (Debye-Ang)
        XX    -141.4794     XY      -3.4390     YY    -164.9689
        XZ      15.9641     YZ       2.8161     ZZ    -159.1316

 Total job time:  74.35s(wall), 3537.63s(cpu)
        *  Thank you very much for using Q-Chem.  Have a nice day.  *
