 Q-Chem 5.0, Q-Chem, Inc., Pleasanton, CA (2017)
 Q-Chem 5.0.1 for Intel X86 EM64T Linux

User input:
--------------------------------------------------------------
$molecule
0  1
O -3.94934 -3.66094 2.70899
C -3.26408 -4.56952 2.26188
C -3.36658 -6.02376 2.66595
C -4.12635 -6.3403 3.96457
C -4.85081 -5.18581 4.62059
O -3.95742 -4.3949 5.28522
C -4.56363 -3.25085 5.89589
C -4.33399 -2.0124 5.03587
O -4.88742 -0.85662 5.68453
C -5.04879 0.23396 4.89477
C -5.45697 1.46523 5.66811
C -4.36312 2.05526 6.57012
C -2.95337 1.56607 6.30552
O -1.95264 1.92894 6.90671
O -2.43211 -4.3038 1.2209
O -2.67418 0.76998 5.23811
O -4.93486 0.21618 3.67386
C -1.41779 0.33289 4.86246
C -5.76036 2.70239 4.789
C -6.68173 3.65694 5.54797
C -5.73536 4.18078 6.60934
C -4.42474 3.53069 6.15171
O -4.55654 3.42995 4.75446
H -6.38748 1.20419 6.22153
H -4.57272 1.8635 7.6451
H -6.2094 2.44997 3.80384
H -6.92523 4.48926 4.84883
H -7.62752 3.21711 5.9311
H -5.68689 5.28874 6.52068
H -5.9842 3.88983 7.65305
H -3.54984 4.11187 6.51846
O -6.06964 -5.04421 4.62554
C -2.24453 -3.04947 0.67876
C -4.15831 -6.8435 1.63757
C -3.79028 -8.32169 1.75438
C -4.48386 -8.68101 3.05066
C -5.15366 -7.34529 3.38966
O -5.4739 -6.80624 2.12963
H -2.31708 -6.38649 2.74703
H -3.50847 -6.84088 4.74372
H -1.84647 -2.35537 1.44993
H -4.01412 -6.49079 0.59265
H -4.29105 -8.86574 0.9219
H -2.69812 -8.52544 1.72667
H -5.26469 -9.4429 2.82985
H -3.8191 -9.04718 3.86255
H -6.01004 -7.52307 4.07702
H -3.2044 -2.65688 0.2801
H -1.51359 -3.11795 -0.15278
H -1.50714 -0.29276 3.95078
H -0.96755 -0.27805 5.67371
H -0.76251 1.20025 4.63381
H -3.25711 -1.8648 4.81099
H -4.9176 -2.18311 4.11229
H -4.0662 -3.09567 6.87651
H -5.6478 -3.35591 6.12723
$end

$opt
CONSTRAINT
tors           1           2           3           4     -16.010
tors           3           4           5           6     -77.451
tors           4           5           6           7    +177.961
tors           5           6           7           8    -100.598
tors           6           7           8           9    -177.208
tors           7           8           9          10    -164.253
tors           8           9          10          11    -172.288
tors           9          10          11          12     +70.261
tors          11          12          13          14    +179.176
ENDCONSTRAINT
$end

$rem
JOBTYPE                   OPT
METHOD                    B3LYP
DFT_D                     d3_op
BASIS                     STO-3G
GEOM_OPT_MAX_CYCLES       100
GEOM_OPT_TOL_GRADIENT     300
GEOM_OPT_TOL_DISPLACEMENT 1200
GEOM_OPT_TOL_ENERGY       100
SYMMETRY                  False
THRESH                    12
SCF_CONVERGENCE           8
MAX_SUB_FILE_NUM          128
MEM_STATIC                400
MEM_TOTAL                 4000
$end
--------------------------------------------------------------

   15   -1510.1511072528      9.56E-09 Convergence criterion met
 Total energy in the final basis set = -1510.15110725
   13   -1510.2225838539      8.71E-09 Convergence criterion met
 Total energy in the final basis set = -1510.22258385
   13   -1510.2611481408      7.32E-09 Convergence criterion met
 Total energy in the final basis set = -1510.26114814
   13   -1510.2776886157      8.59E-09 Convergence criterion met
 Total energy in the final basis set = -1510.27768862
   13   -1510.2820270879      9.37E-09 Convergence criterion met
 Total energy in the final basis set = -1510.28202709
   13   -1510.2845364807      4.20E-09 Convergence criterion met
 Total energy in the final basis set = -1510.28453648
   13   -1510.2851352087      2.78E-09 Convergence criterion met
 Total energy in the final basis set = -1510.28513521
   13   -1510.2854927151      2.39E-09 Convergence criterion met
   10   -1510.2859155431      9.07E-09 Convergence criterion met
 Total energy in the final basis set = -1510.28591554
   10   -1510.2859349346      4.84E-09 Convergence criterion met
 Total energy in the final basis set = -1510.28593493
    9   -1510.2859542251      8.79E-09 Convergence criterion met
 Total energy in the final basis set = -1510.28595423
    9   -1510.2859527411      6.90E-09 Convergence criterion met
 Total energy in the final basis set = -1510.28595274
    9   -1510.2859548995      4.92E-09 Convergence criterion met
 Total energy in the final basis set = -1510.28595490
    9   -1510.2859633307      3.30E-09 Convergence criterion met
 Total energy in the final basis set = -1510.28596333

             Standard Nuclear Orientation (Angstroms)
    I     Atom           X                Y                Z
 ----------------------------------------------------------------
    1      O      -2.1985986580     0.2179105184     1.0525849102
    2      C      -3.0630340093     1.0373932991     0.6625772180
    3      C      -4.3627704005     0.7034880183    -0.1424302797
    4      C      -4.3110856022    -0.7436207614    -0.7864303529
    5      C      -2.9320912324    -1.4745530753    -0.5885519311
    6      O      -2.0138737452    -0.9026589268    -1.5398636576
    7      C      -0.6705817001    -1.5084951178    -1.3822349502
    8      C       0.2110921139    -0.5029467680    -0.5653672448
    9      O       1.5790336270    -1.0587374090    -0.4540400730
   10      C       2.3025557490    -0.3673701755     0.5755197588
   11      C       3.7933771081    -0.8567380822     0.5131199833
   12      C       4.6508318228    -0.3909050044    -0.7370446950
   13      C       4.0753758184     0.7589895841    -1.6417147954
   14      O       4.6396771713     1.2413276596    -2.6483161042
   15      O      -3.0010175675     2.4390698486     0.9126926665
   16      O       2.8575195383     1.2773000453    -1.1043526571
   17      O       1.7917742801     0.4055576827     1.4133736861
   18      C       2.3615003546     2.4018250706    -1.9284958823
   19      C       4.6646600577    -0.2995646485     1.7169380182
   20      C       5.8567484319    -1.3042111031     1.9499071760
   21      C       6.7344740357    -1.0158826172     0.6743841647
   22      C       5.9376370748     0.1779192922     0.0110560411
   23      O       5.3392789404     0.8961009674     1.1584569284
   24      H       3.7677162268    -1.9617894978     0.5336419113
   25      H       4.9038619385    -1.2431847538    -1.3932728578
   26      H       4.0713941498    -0.0270871022     2.6114799988
   27      H       6.3984270851    -1.0529797167     2.8758843641
   28      H       5.5184348492    -2.3508958214     2.0091040949
   29      H       7.7532909821    -0.6958466678     0.9444390687
   30      H       6.8055755746    -1.8858008944     0.0018080378
   31      H       6.5480426739     0.8643989232    -0.6079811513
   32      O      -2.6937059092    -2.4784789845     0.1153321206
   33      C      -1.7829985149     2.7560241212     1.6992482019
   34      C      -5.6026998105     0.5394365809     0.8428024989
   35      C      -6.9253294544     0.4819160355    -0.0210264124
   36      C      -6.8550983996    -0.9828764599    -0.5933128048
   37      C      -5.4779215034    -1.4719271424     0.0018221703
   38      O      -5.4426257575    -0.8428298526     1.3435598671
   39      H      -4.5395119983     1.4958540019    -0.8908892668
   40      H      -4.5166629943    -0.6930808423    -1.8706887923
   41      H      -0.8643208592     2.3962911403     1.1923927641
   42      H      -5.6180325322     1.2618338226     1.6822406106
   43      H      -7.8097258321     0.6254496459     0.6199499629
   44      H      -6.9352196081     1.2477059912    -0.8132192209
   45      H      -7.6813074497    -1.6041276310    -0.2126077374
   46      H      -6.8679556693    -1.0119814690    -1.6946104574
   47      H      -5.3482555511    -2.5681739653     0.0883436120
   48      H      -1.8253336629     2.3024253250     2.7103987766
   49      H      -1.7565182857     3.8574746040     1.7876649633
   50      H       1.4744062222     2.7968305674    -1.3999986771
   51      H       2.0694486195     2.0627647566    -2.9437662019
   52      H       3.1246161072     3.2002113794    -2.0273965585
   53      H       0.2465041669     0.4737763838    -1.0958603062
   54      H      -0.2544982035    -0.3313607144     0.4308547402
   55      H      -0.2523806261    -1.6702685510    -2.3965570708
   56      H      -0.7580845703    -2.4757334361    -0.8426821658
 ----------------------------------------------------------------

    9   -1510.2859627646      4.21E-09 Convergence criterion met
 Total energy in the final basis set = -1510.28596276
 Final energy is   -1510.28596276457
 **  OPTIMIZATION CONVERGED  **

                    Orbital Energies (a.u.)
 --------------------------------------------------------------

 Alpha MOs
 -- Occupied --
-18.946 -18.943 -18.919 -18.918 -18.889 -18.888 -18.884 -18.874
-18.866 -18.862 -10.109 -10.102 -10.094 -10.093 -10.069 -10.068
-10.063 -10.060 -10.059 -10.058 -10.054 -10.054 -10.042 -10.039
-10.036 -10.032 -10.022 -10.020 -10.019 -10.017  -1.022  -1.016
 -1.002  -0.997  -0.972  -0.968  -0.945  -0.938  -0.930  -0.924
 -0.765  -0.760  -0.726  -0.722  -0.710  -0.703  -0.690  -0.667
 -0.665  -0.612  -0.597  -0.576  -0.546  -0.542  -0.537  -0.535
 -0.513  -0.509  -0.484  -0.477  -0.463  -0.457  -0.454  -0.444
 -0.435  -0.431  -0.423  -0.416  -0.415  -0.413  -0.410  -0.393
 -0.393  -0.380  -0.377  -0.365  -0.362  -0.358  -0.353  -0.345
 -0.342  -0.338  -0.335  -0.331  -0.329  -0.326  -0.320  -0.313
 -0.308  -0.305  -0.305  -0.302  -0.297  -0.292  -0.279  -0.274
 -0.268  -0.260  -0.244  -0.242  -0.239  -0.235  -0.232  -0.187
 -0.182  -0.168  -0.163  -0.161  -0.155  -0.148  -0.146  -0.143
 -0.142

          Ground-State Mulliken Net Atomic Charges

     Atom                 Charge (a.u.)
  ----------------------------------------
      1 O                    -0.207441
      2 C                     0.216281
      3 C                    -0.078025
      4 C                    -0.080541
      5 C                     0.216576
      6 O                    -0.182523
      7 C                    -0.053062
      8 C                    -0.055557
      9 O                    -0.180166
     10 C                     0.221788
     11 C                    -0.081043
     12 C                    -0.076900
     13 C                     0.212384
     14 O                    -0.216001
     15 O                    -0.167008
     16 O                    -0.165706
     17 O                    -0.218929
     18 C                    -0.125745
     19 C                     0.023829
     20 C                    -0.143078
     21 C                    -0.144616
     22 C                     0.024714
     23 O                    -0.191334
     24 H                     0.083604
     25 H                     0.086456
     26 H                     0.090091
     27 H                     0.077660
     28 H                     0.073497
     29 H                     0.078071
     30 H                     0.073562
     31 H                     0.084991
     32 O                    -0.214154
     33 C                    -0.129156
     34 C                     0.025491
     35 C                    -0.143765
     36 C                    -0.143783
     37 C                     0.025005
     38 O                    -0.188043
     39 H                     0.087402
     40 H                     0.084821
     41 H                     0.096376
     42 H                     0.084135
     43 H                     0.078612
     44 H                     0.073791
     45 H                     0.078593
     46 H                     0.073492
     47 H                     0.090334
     48 H                     0.093180
     49 H                     0.092365
     50 H                     0.091635
     51 H                     0.089106
     52 H                     0.094159
     53 H                     0.075066
     54 H                     0.105900
     55 H                     0.083688
     56 H                     0.099921
  ----------------------------------------
  Sum of atomic charges =     0.000000

                    Cartesian Multipole Moments
 -----------------------------------------------------------------
    Charge (ESU x 10^10)
                 0.0000
    Dipole Moment (Debye)
         X      -1.1714      Y       0.9217      Z      -1.6981
       Tot       2.2595
    Quadrupole Moments (Debye-Ang)
        XX    -146.4375     XY     -14.6477     YY    -157.5326
        XZ       9.7289     YZ       2.8101     ZZ    -162.9625

 Total job time:  51.26s(wall), 2437.50s(cpu)
        *  Thank you very much for using Q-Chem.  Have a nice day.  *
