 Q-Chem 5.0, Q-Chem, Inc., Pleasanton, CA (2017)
 Q-Chem 5.0.1 for Intel X86 EM64T Linux

User input:
--------------------------------------------------------------
$molecule
0  1
O -2.198598658 0.2179105184 1.0525849102
C -3.0630340093 1.0373932991 0.662577218
C -4.3627704005 0.7034880183 -0.1424302797
C -4.3110856022 -0.7436207614 -0.7864303529
C -2.9320912324 -1.4745530753 -0.5885519311
O -2.0138737452 -0.9026589268 -1.5398636576
C -0.6705817001 -1.5084951178 -1.3822349502
C 0.2110921139 -0.502946768 -0.5653672448
O 1.579033627 -1.058737409 -0.454040073
C 2.302555749 -0.3673701755 0.5755197588
C 3.7933771081 -0.8567380822 0.5131199833
C 4.6508318228 -0.3909050044 -0.737044695
C 4.0753758184 0.7589895841 -1.6417147954
O 4.6396771713 1.2413276596 -2.6483161042
O -3.0010175675 2.4390698486 0.9126926665
O 2.8575195383 1.2773000453 -1.1043526571
O 1.7917742801 0.4055576827 1.4133736861
C 2.3615003546 2.4018250706 -1.9284958823
C 4.6646600577 -0.2995646485 1.7169380182
C 5.8567484319 -1.3042111031 1.949907176
C 6.7344740357 -1.0158826172 0.6743841647
C 5.9376370748 0.1779192922 0.0110560411
O 5.3392789404 0.8961009674 1.1584569284
H 3.7677162268 -1.9617894978 0.5336419113
H 4.9038619385 -1.2431847538 -1.3932728578
H 4.0713941498 -0.0270871022 2.6114799988
H 6.3984270851 -1.0529797167 2.8758843641
H 5.5184348492 -2.3508958214 2.0091040949
H 7.7532909821 -0.6958466678 0.9444390687
H 6.8055755746 -1.8858008944 0.0018080378
H 6.5480426739 0.8643989232 -0.6079811513
O -2.6937059092 -2.4784789845 0.1153321206
C -1.7829985149 2.7560241212 1.6992482019
C -5.6026998105 0.5394365809 0.8428024989
C -6.9253294544 0.4819160355 -0.0210264124
C -6.8550983996 -0.9828764599 -0.5933128048
C -5.4779215034 -1.4719271424 0.0018221703
O -5.4426257575 -0.8428298526 1.3435598671
H -4.5395119983 1.4958540019 -0.8908892668
H -4.5166629943 -0.6930808423 -1.8706887923
H -0.8643208592 2.3962911403 1.1923927641
H -5.6180325322 1.2618338226 1.6822406106
H -7.8097258321 0.6254496459 0.6199499629
H -6.9352196081 1.2477059912 -0.8132192209
H -7.6813074497 -1.604127631 -0.2126077374
H -6.8679556693 -1.011981469 -1.6946104574
H -5.3482555511 -2.5681739653 0.088343612
H -1.8253336629 2.302425325 2.7103987766
H -1.7565182857 3.857474604 1.7876649633
H 1.4744062222 2.7968305674 -1.3999986771
H 2.0694486195 2.0627647566 -2.9437662019
H 3.1246161072 3.2002113794 -2.0273965585
H 0.2465041669 0.4737763838 -1.0958603062
H -0.2544982035 -0.3313607144 0.4308547402
H -0.2523806261 -1.670268551 -2.3965570708
H -0.7580845703 -2.4757334361 -0.8426821658
$end

$rem
JOBTYPE                   OPT
METHOD                    B3LYP
DFT_D                     d3_op
BASIS                     STO-3G
GEOM_OPT_MAX_CYCLES       100
GEOM_OPT_TOL_GRADIENT     300
GEOM_OPT_TOL_DISPLACEMENT 1200
GEOM_OPT_TOL_ENERGY       100
SYMMETRY                  False
THRESH                    12
SCF_CONVERGENCE           8
MAX_SUB_FILE_NUM          128
MEM_STATIC                400
MEM_TOTAL                 4000
$end
--------------------------------------------------------------

   16   -1510.2859752642      5.70E-09 Convergence criterion met
 Total energy in the final basis set = -1510.28597526
   14   -1510.2848996393      5.29E-09 Convergence criterion met
 Total energy in the final basis set = -1510.28489964
   14   -1510.2870534214      5.14E-09 Convergence criterion met
 Total energy in the final basis set = -1510.28705342
   13   -1510.2883161095      8.74E-09 Convergence criterion met
 Total energy in the final basis set = -1510.28831611
   13   -1510.2887860855      6.77E-09 Convergence criterion met
 Total energy in the final basis set = -1510.28878609
   14   -1510.2874763983      2.61E-09 Convergence criterion met
 Total energy in the final basis set = -1510.28747640
   14   -1510.2898864041      1.83E-09 Convergence criterion met
 Total energy in the final basis set = -1510.28988640
   13   -1510.2908905576      4.70E-09 Convergence criterion met
   12   -1510.2935767262      6.37E-09 Convergence criterion met
 Total energy in the final basis set = -1510.29357673
   12   -1510.2935788475      7.49E-09 Convergence criterion met
 Total energy in the final basis set = -1510.29357885
   11   -1510.2935935275      5.77E-09 Convergence criterion met
 Total energy in the final basis set = -1510.29359353
   12   -1510.2935608828      6.23E-09 Convergence criterion met
 Total energy in the final basis set = -1510.29356088
   11   -1510.2935990958      7.45E-09 Convergence criterion met
 Total energy in the final basis set = -1510.29359910
   10   -1510.2935905913      6.26E-09 Convergence criterion met
 Total energy in the final basis set = -1510.29359059

             Standard Nuclear Orientation (Angstroms)
    I     Atom           X                Y                Z
 ----------------------------------------------------------------
    1      O       2.0337842097    -0.2710952850    -1.0556304838
    2      C       2.7506902908     0.7291547255    -0.8049315645
    3      C       4.1322338984     0.7092444006    -0.0705446766
    4      C       4.2537276446    -0.4620539800     0.9951175425
    5      C       2.9224288345    -1.2671289687     1.2146321515
    6      O       2.0340014502    -0.4239331943     1.9696700419
    7      C       0.6565686561    -0.9817277221     1.9664125620
    8      C      -0.1198598369    -0.1838491478     0.8676987164
    9      O      -1.4653140021    -0.7699036279     0.6524100445
   10      C      -2.0584119945    -0.1317288320    -0.4821369241
   11      C      -3.4665526319    -0.7746756279    -0.7413159180
   12      C      -4.4464628268    -0.7089979730     0.5049210261
   13      C      -3.8379637541     0.0238401424     1.7468186456
   14      O      -3.8289963493    -0.3673764758     2.9334553358
   15      O       2.4187607025     2.0610260147    -1.1745217969
   16      O      -3.2991761692     1.2795001482     1.3092120803
   17      O      -1.4967514628     0.7502863855    -1.1708651779
   18      C      -2.7094377697     2.0063862099     2.4550385929
   19      C      -4.2814479002     0.0460640337    -1.8221754980
   20      C      -5.4583730640    -0.8632582680    -2.3509056869
   21      C      -6.4398184728    -0.8305176232    -1.1206956666
   22      C      -5.6553459471     0.1140611409    -0.1257684314
   23      O      -4.9780666276     1.0791032175    -1.0191942955
   24      H      -3.3099094105    -1.8228504558    -1.0567101454
   25      H      -4.7627792420    -1.7159684825     0.8284457110
   26      H      -3.6458321206     0.5206698395    -2.5948039356
   27      H      -5.9193134126    -0.4169032380    -3.2465014946
   28      H      -5.1188359206    -1.8817669862    -2.5983028580
   29      H      -7.4100394144    -0.3830308434    -1.3889535267
   30      H      -6.6189117855    -1.8292232931    -0.6912431302
   31      H      -6.2857572978     0.6445582878     0.6140580644
   32      O       2.6715057395    -2.4444881770     0.8828424191
   33      C       1.1648285277     2.0871342497    -1.9764980341
   34      C       5.2804696535     0.2872119221    -1.0922328554
   35      C       6.6836035573     0.5508794293    -0.4143816120
   36      C       6.7739200026    -0.6618260371     0.5861237448
   37      C       5.3815061206    -1.3601044975     0.3376654364
   38      O       5.1674235835    -1.1870890633    -1.1186788626
   39      H       4.3196381451     1.7023995284     0.3737138816
   40      H       4.5719818283    -0.0555224257     1.9720839202
   41      H       0.3014475889     1.5960344670    -1.4693217537
   42      H       5.1620370868     0.7068306269    -2.1103212104
   43      H       7.4866765774     0.5175682632    -1.1677347939
   44      H       6.7179512387     1.5266235076     0.0959496925
   45      H       7.5988173787    -1.3422295784     0.3209157204
   46      H       6.9004679873    -0.3428290715     1.6329087565
   47      H       5.3197570286    -2.4316401609     0.6094631260
   48      H       1.3211691511     1.5948591669    -2.9577110233
   49      H       0.9425520953     3.1575371960    -2.1381349543
   50      H      -2.2265843754     2.9056444716     2.0301997956
   51      H      -1.9550724238     1.3907279557     2.9857704604
   52      H      -3.4866112029     2.3142035584     3.1844050506
   53      H      -0.2078387360     0.8822076911     1.1686218614
   54      H       0.4840483437    -0.2332784820    -0.0705791120
   55      H       0.2244280460    -0.8322844317     2.9763876896
   56      H       0.6883547563    -2.0645070511     1.7192300124
 ----------------------------------------------------------------

   10   -1510.2936003651      5.47E-09 Convergence criterion met
 Total energy in the final basis set = -1510.29360037
 Final energy is   -1510.29360036515
 **  OPTIMIZATION CONVERGED  **

                    Orbital Energies (a.u.)
 --------------------------------------------------------------

 Alpha MOs
 -- Occupied --
-18.942 -18.934 -18.933 -18.924 -18.889 -18.887 -18.881 -18.877
-18.875 -18.874 -10.106 -10.103 -10.098 -10.098 -10.065 -10.064
-10.063 -10.061 -10.059 -10.057 -10.055 -10.051 -10.041 -10.038
-10.038 -10.037 -10.022 -10.021 -10.020 -10.019  -1.018  -1.015
 -1.007  -1.004  -0.972  -0.969  -0.940  -0.938  -0.935  -0.932
 -0.765  -0.763  -0.727  -0.723  -0.710  -0.706  -0.694  -0.661
 -0.660  -0.613  -0.598  -0.579  -0.546  -0.544  -0.538  -0.537
 -0.514  -0.510  -0.482  -0.476  -0.465  -0.459  -0.454  -0.443
 -0.436  -0.431  -0.428  -0.416  -0.413  -0.410  -0.407  -0.398
 -0.391  -0.378  -0.371  -0.368  -0.360  -0.358  -0.356  -0.350
 -0.344  -0.337  -0.334  -0.333  -0.331  -0.329  -0.324  -0.311
 -0.309  -0.306  -0.305  -0.299  -0.293  -0.292  -0.282  -0.278
 -0.268  -0.260  -0.251  -0.246  -0.243  -0.235  -0.233  -0.186
 -0.176  -0.173  -0.170  -0.159  -0.157  -0.152  -0.149  -0.145
 -0.143

          Ground-State Mulliken Net Atomic Charges

     Atom                 Charge (a.u.)
  ----------------------------------------
      1 O                    -0.215525
      2 C                     0.215302
      3 C                    -0.077886
      4 C                    -0.079300
      5 C                     0.214743
      6 O                    -0.181020
      7 C                    -0.053885
      8 C                    -0.064497
      9 O                    -0.175131
     10 C                     0.222235
     11 C                    -0.077938
     12 C                    -0.078874
     13 C                     0.212124
     14 O                    -0.212978
     15 O                    -0.166588
     16 O                    -0.168146
     17 O                    -0.217269
     18 C                    -0.128059
     19 C                     0.024669
     20 C                    -0.143872
     21 C                    -0.143881
     22 C                     0.025874
     23 O                    -0.186422
     24 H                     0.086247
     25 H                     0.085948
     26 H                     0.090294
     27 H                     0.078067
     28 H                     0.073701
     29 H                     0.078002
     30 H                     0.074094
     31 H                     0.082322
     32 O                    -0.206521
     33 C                    -0.141256
     34 C                     0.025741
     35 C                    -0.143882
     36 C                    -0.143671
     37 C                     0.025127
     38 O                    -0.186620
     39 H                     0.087859
     40 H                     0.085347
     41 H                     0.113620
     42 H                     0.083333
     43 H                     0.078712
     44 H                     0.074146
     45 H                     0.078669
     46 H                     0.073550
     47 H                     0.090306
     48 H                     0.084482
     49 H                     0.088034
     50 H                     0.091558
     51 H                     0.088396
     52 H                     0.088011
     53 H                     0.077323
     54 H                     0.107559
     55 H                     0.085572
     56 H                     0.102257
  ----------------------------------------
  Sum of atomic charges =     0.000000

                    Cartesian Multipole Moments
 -----------------------------------------------------------------
    Charge (ESU x 10^10)
                 0.0000
    Dipole Moment (Debye)
         X       0.5005      Y       1.4485      Z       0.3926
       Tot       1.5820
    Quadrupole Moments (Debye-Ang)
        XX    -141.0562     XY      11.9041     YY    -163.7996
        XZ       8.4291     YZ       2.9602     ZZ    -159.6359

 Total job time:  72.45s(wall), 3450.73s(cpu)
        *  Thank you very much for using Q-Chem.  Have a nice day.  *
