 Q-Chem 5.0, Q-Chem, Inc., Pleasanton, CA (2017)
 Q-Chem 5.0.1 for Intel X86 EM64T Linux

User input:
--------------------------------------------------------------
$molecule
0  1
O -2.1922878531 0.2221954281 1.0678539952
C -3.0387907369 1.0423572954 0.6414988207
C -4.3442516624 0.7017489992 -0.1509080256
C -4.2992350248 -0.7516716234 -0.7824476589
C -2.932114312 -1.4950704529 -0.5510156181
O -1.9976369482 -0.9616955959 -1.5086268311
C -0.6640096421 -1.5805015478 -1.3214767175
C 0.2189101323 -0.5607821137 -0.5238546144
O 1.5810244432 -1.1231419891 -0.3792749545
C 2.3061448186 -0.3884245274 0.6191723584
C 3.8067587504 -0.8445318744 0.5416852188
C 4.6296693816 -0.3909486827 -0.7359325928
C 4.0150805245 0.7242024829 -1.6579879886
O 4.552592896 1.1913919084 -2.6861422547
O -2.945750357 2.452059377 0.8297726219
O 2.7965363541 1.2327706985 -1.1129760513
O 1.7937498477 0.4004869061 1.4409384712
C 2.272783676 2.3350283175 -1.9503519719
C 4.6875123363 -0.2372305285 1.7143470529
C 5.9065683697 -1.208459608 1.9501658919
C 6.7522489296 -0.9361038556 0.6497958881
C 5.9176855747 0.223471358 -0.0273510522
O 5.325014402 0.9577902531 1.1127629467
H 3.8076722179 -1.949059671 0.5895441029
H 4.8888057849 -1.2538031914 -1.3758338244
H 4.1050061514 0.0457290612 2.6126846039
H 6.4602575951 -0.9190262574 2.8576992561
H 5.5941748835 -2.2604896697 2.0453475167
H 7.7698955845 -0.5897698049 0.8900393132
H 6.8262700741 -1.82182289 -0.0014062427
H 6.5006838405 0.9071143213 -0.6751831983
O -2.7135800959 -2.4829693598 0.1813156692
C -1.7200857588 2.7765925162 1.601328062
C -5.5840149926 0.5526203389 0.8374734625
C -6.9070681171 0.5110156118 -0.0260331463
C -6.8493478961 -0.9514460222 -0.6052586823
C -5.4827654528 -1.4607117908 -0.0021238817
O -5.4429690736 -0.8311147194 1.33921119
H -4.521869585 1.4866429751 -0.9069910224
H -4.4861965862 -0.7102456025 -1.8704115448
H -0.8139121997 2.3448953594 1.1294373598
H -5.5902284686 1.2754241811 1.6766825665
H -7.7897300442 0.6579690258 0.6165992297
H -6.9117347196 1.2810358409 -0.8141520982
H -7.6861730757 -1.5648189001 -0.2351870061
H -6.8529694546 -0.9746517027 -1.7067663223
H -5.3709134525 -2.5587489461 0.0860404023
H -1.7866906965 2.398223868 2.641782954
H -1.6501501367 3.8796423262 1.612061613
H 1.3907502152 2.7307666457 -1.4139315661
H 1.9667585486 1.972635838 -2.9533805632
H 3.0247871761 3.1396453718 -2.0788329536
H 0.2705735549 0.3992057352 -1.0824168695
H -0.2582921535 -0.3562370636 0.4607545915
H -0.2380145061 -1.7748166559 -2.3267597983
H -0.7687120837 -2.5314714821 -0.7565264298
$end

$rem
JOBTYPE                   OPT
METHOD                    B3LYP
DFT_D                     d3_op
BASIS                     STO-3G
GEOM_OPT_MAX_CYCLES       100
GEOM_OPT_TOL_GRADIENT     300
GEOM_OPT_TOL_DISPLACEMENT 1200
GEOM_OPT_TOL_ENERGY       100
SYMMETRY                  False
THRESH                    12
SCF_CONVERGENCE           8
MAX_SUB_FILE_NUM          128
MEM_STATIC                400
MEM_TOTAL                 4000
$end
--------------------------------------------------------------

   16   -1510.2856425367      5.86E-09 Convergence criterion met
 Total energy in the final basis set = -1510.28564254
   14   -1510.2847558273      5.63E-09 Convergence criterion met
 Total energy in the final basis set = -1510.28475583
   14   -1510.2870194190      6.74E-09 Convergence criterion met
 Total energy in the final basis set = -1510.28701942
   13   -1510.2882519724      8.61E-09 Convergence criterion met
 Total energy in the final basis set = -1510.28825197
   13   -1510.2883053357      7.60E-09 Convergence criterion met
 Total energy in the final basis set = -1510.28830534
   14   -1510.2870333977      2.53E-09 Convergence criterion met
 Total energy in the final basis set = -1510.28703340
   14   -1510.2896500617      2.15E-09 Convergence criterion met
 Total energy in the final basis set = -1510.28965006
   13   -1510.2907161364      4.22E-09 Convergence criterion met
   12   -1510.2934900755      6.26E-09 Convergence criterion met
 Total energy in the final basis set = -1510.29349008
   12   -1510.2935819025      4.34E-09 Convergence criterion met
 Total energy in the final basis set = -1510.29358190
   12   -1510.2935443760      7.66E-09 Convergence criterion met
 Total energy in the final basis set = -1510.29354438
   12   -1510.2935854815      4.72E-09 Convergence criterion met
 Total energy in the final basis set = -1510.29358548
   10   -1510.2935835343      4.00E-09 Convergence criterion met
 Total energy in the final basis set = -1510.29358353
   10   -1510.2935871444      2.57E-09 Convergence criterion met
 Total energy in the final basis set = -1510.29358714

             Standard Nuclear Orientation (Angstroms)
    I     Atom           X                Y                Z
 ----------------------------------------------------------------
    1      O       2.0137012864    -0.2317979486    -1.0550916748
    2      C       2.7386613359     0.7584029204    -0.7882752189
    3      C       4.1265852828     0.7143801682    -0.0672118732
    4      C       4.2546812937    -0.4863753280     0.9638821769
    5      C       2.9221447165    -1.2916771247     1.1758584148
    6      O       2.0450200330    -0.4652125053     1.9620378259
    7      C       0.6656423230    -1.0182333271     1.9592350855
    8      C      -0.1205183003    -0.1879795415     0.8918473494
    9      O      -1.4660108063    -0.7704617758     0.6673707025
   10      C      -2.0598629475    -0.1140364588    -0.4564131732
   11      C      -3.4655209133    -0.7573591692    -0.7281217689
   12      C      -4.4501617337    -0.7090506288     0.5150446541
   13      C      -3.8483968613     0.0111362743     1.7674705392
   14      O      -3.8464552860    -0.3915651644     2.9503037704
   15      O       2.4110507299     2.1001181762    -1.1245905422
   16      O      -3.3053342913     1.2701711349     1.3451111195
   17      O      -1.4999502988     0.7807742859    -1.1298533831
   18      C      -2.7189292175     1.9842614910     2.5006788185
   19      C      -4.2787845074     0.0731492249    -1.8026226202
   20      C      -5.4506304303    -0.8340631648    -2.3460691543
   21      C      -6.4369141540    -0.8183351181    -1.1192549086
   22      C      -5.6593789878     0.1175016348    -0.1108262034
   23      O      -4.9819015463     1.0947282636    -0.9907304078
   24      H      -3.3047131966    -1.8014129126    -1.0548644374
   25      H      -4.7647468269    -1.7205843489     0.8257491362
   26      H      -3.6417486520     0.5585640455    -2.5673124681
   27      H      -5.9097597712    -0.3795278984    -3.2384881558
   28      H      -5.1066215724    -1.8486699168    -2.6031826510
   29      H      -7.4075622757    -0.3709917491    -1.3862055339
   30      H      -6.6143103331    -1.8224387784    -0.7018665222
   31      H      -6.2942697328     0.6375156939     0.6326072612
   32      O       2.6629793078    -2.4590714017     0.8162825150
   33      C       1.1507276511     2.1508193934    -1.9153046749
   34      C       5.2635119686     0.3177014231    -1.1111477304
   35      C       6.6740009631     0.5563917277    -0.4389843911
   36      C       6.7698254569    -0.6861428504     0.5235410841
   37      C       5.3716196271    -1.3705495686     0.2696184306
   38      O       5.1438055508    -1.1547580637    -1.1790323640
   39      H       4.3208442261     1.6944694234     0.4024141610
   40      H       4.5849793425    -0.1084594128     1.9483873167
   41      H       0.2915534211     1.6438497498    -1.4167154308
   42      H       5.1373858433     0.7670054447    -2.1155582095
   43      H       7.4699230795     0.5435304946    -1.2005740138
   44      H       6.7164027452     1.5160603471     0.1003999002
   45      H       7.5884091421    -1.3620557349     0.2288957810
   46      H       6.9093757412    -0.3995042137     1.5780444075
   47      H       5.3072933624    -2.4491264407     0.5113157679
   48      H       1.2995797237     1.6889765680    -2.9123294642
   49      H       0.9272664519     3.2256311998    -2.0423184352
   50      H      -2.2307909786     2.8857090670     2.0866839488
   51      H      -1.9695739439     1.3608344712     3.0294108252
   52      H      -3.4988472330     2.2879616519     3.2288161308
   53      H      -0.2087785695     0.8680777149     1.2260593576
   54      H       0.4766084427    -0.2076277262    -0.0517649383
   55      H       0.2457201271    -0.8958282926     2.9779673461
   56      H       0.6909407853    -2.0938335767     1.6816417488
 ----------------------------------------------------------------

    9   -1510.2935869043      3.51E-09 Convergence criterion met
 Total energy in the final basis set = -1510.29358690
 Final energy is   -1510.29358690432
 **  OPTIMIZATION CONVERGED  **

                    Orbital Energies (a.u.)
 --------------------------------------------------------------

 Alpha MOs
 -- Occupied --
-18.942 -18.934 -18.932 -18.924 -18.889 -18.887 -18.881 -18.876
-18.875 -18.874 -10.106 -10.103 -10.098 -10.098 -10.065 -10.064
-10.063 -10.061 -10.058 -10.057 -10.054 -10.051 -10.041 -10.038
-10.038 -10.037 -10.022 -10.021 -10.020 -10.019  -1.018  -1.015
 -1.006  -1.004  -0.971  -0.969  -0.940  -0.937  -0.935  -0.932
 -0.765  -0.763  -0.727  -0.723  -0.710  -0.706  -0.694  -0.661
 -0.660  -0.613  -0.598  -0.579  -0.546  -0.544  -0.538  -0.537
 -0.514  -0.510  -0.482  -0.476  -0.465  -0.459  -0.454  -0.443
 -0.436  -0.431  -0.427  -0.416  -0.413  -0.410  -0.407  -0.398
 -0.391  -0.378  -0.371  -0.368  -0.360  -0.358  -0.356  -0.350
 -0.344  -0.337  -0.334  -0.333  -0.331  -0.329  -0.323  -0.311
 -0.309  -0.306  -0.305  -0.299  -0.293  -0.292  -0.282  -0.278
 -0.268  -0.260  -0.251  -0.246  -0.243  -0.235  -0.233  -0.186
 -0.176  -0.173  -0.170  -0.159  -0.157  -0.152  -0.149  -0.145
 -0.143

          Ground-State Mulliken Net Atomic Charges

     Atom                 Charge (a.u.)
  ----------------------------------------
      1 O                    -0.215442
      2 C                     0.215418
      3 C                    -0.077889
      4 C                    -0.079286
      5 C                     0.214745
      6 O                    -0.181048
      7 C                    -0.053911
      8 C                    -0.064542
      9 O                    -0.175298
     10 C                     0.222309
     11 C                    -0.077938
     12 C                    -0.078871
     13 C                     0.212090
     14 O                    -0.212886
     15 O                    -0.166609
     16 O                    -0.168036
     17 O                    -0.217338
     18 C                    -0.128048
     19 C                     0.024679
     20 C                    -0.143853
     21 C                    -0.143879
     22 C                     0.025866
     23 O                    -0.186440
     24 H                     0.086231
     25 H                     0.085968
     26 H                     0.090306
     27 H                     0.078058
     28 H                     0.073704
     29 H                     0.077998
     30 H                     0.074095
     31 H                     0.082322
     32 O                    -0.206638
     33 C                    -0.141286
     34 C                     0.025734
     35 C                    -0.143884
     36 C                    -0.143646
     37 C                     0.025091
     38 O                    -0.186649
     39 H                     0.087886
     40 H                     0.085327
     41 H                     0.113798
     42 H                     0.083341
     43 H                     0.078697
     44 H                     0.074146
     45 H                     0.078678
     46 H                     0.073558
     47 H                     0.090325
     48 H                     0.084449
     49 H                     0.087992
     50 H                     0.091599
     51 H                     0.088495
     52 H                     0.088051
     53 H                     0.077078
     54 H                     0.107624
     55 H                     0.085516
     56 H                     0.102243
  ----------------------------------------
  Sum of atomic charges =     0.000000

                    Cartesian Multipole Moments
 -----------------------------------------------------------------
    Charge (ESU x 10^10)
                 0.0000
    Dipole Moment (Debye)
         X       0.5288      Y       1.4231      Z       0.4322
       Tot       1.5785
    Quadrupole Moments (Debye-Ang)
        XX    -141.0194     XY      11.6238     YY    -163.7040
        XZ       8.5809     YZ       2.7956     ZZ    -159.7231

 Total job time:  75.46s(wall), 3591.88s(cpu)
        *  Thank you very much for using Q-Chem.  Have a nice day.  *
