 Q-Chem 5.0, Q-Chem, Inc., Pleasanton, CA (2017)
 Q-Chem 5.0.1 for Intel X86 EM64T Linux

User input:
--------------------------------------------------------------
$molecule
0  1
O -3.94934 -3.66094 2.70899
C -3.26408 -4.56952 2.26188
C -3.36658 -6.02376 2.66595
C -4.07902 -6.33598 3.99215
C -4.76513 -5.17574 4.67857
O -3.84129 -4.41144 5.33263
C -4.41042 -3.26343 5.97093
C -4.17495 -2.01889 5.12134
O -4.69024 -0.86069 5.79656
C -4.82309 0.25017 5.03008
C -5.1279 1.48929 5.83775
C -3.96521 2.00228 6.69988
C -2.59783 1.43961 6.36761
O -1.55362 1.73601 6.93004
O -2.44077 -4.30597 1.21349
O -2.40812 0.66267 5.26701
O -4.75818 0.24617 3.80553
C -1.19258 0.1792 4.81978
C -5.39752 2.75583 4.99
C -6.23072 3.74771 5.80123
C -5.21248 4.20008 6.8284
C -3.96108 3.48561 6.30562
O -4.15709 3.41557 4.91405
H -6.0477 1.27177 6.42675
H -4.13972 1.8041 7.77995
H -5.90113 2.54513 4.02155
H -6.4558 4.60382 5.12501
H -7.18301 3.35528 6.21825
H -5.10538 5.30495 6.75375
H -5.43318 3.90591 7.87754
H -3.04007 4.01087 6.64264
O -5.98096 -5.01569 4.7211
C -2.25545 -3.0523 0.66902
C -4.2075 -6.82955 1.66611
C -3.85359 -8.31259 1.76318
C -4.50112 -8.66859 3.08387
C -5.14031 -7.32594 3.45329
O -5.50245 -6.77798 2.20863
H -2.31925 -6.39968 2.70409
H -3.43981 -6.84923 4.74544
H -1.84946 -2.3586 1.43644
H -4.09915 -6.47412 0.61775
H -4.39266 -8.84712 0.94864
H -2.76588 -8.52946 1.69272
H -5.29961 -9.41957 2.89053
H -3.8103 -9.04663 3.8681
H -5.97171 -7.49602 4.17257
H -3.21786 -2.65802 0.2783
H -1.53168 -3.12263 -0.16862
H -1.35364 -0.41432 3.8965
H -0.73441 -0.47542 5.59159
H -0.50823 1.02175 4.58366
H -3.09973 -1.89413 4.87882
H -4.77417 -2.16539 4.20399
H -3.88932 -3.13099 6.94256
H -5.4914 -3.34904 6.2239
$end

$opt
CONSTRAINT
tors           1           2           3           4     -18.312
tors           3           4           5           6     -78.665
tors           4           5           6           7    +177.961
tors           5           6           7           8    -100.598
tors           6           7           8           9    -177.208
tors           7           8           9          10    -165.455
tors           8           9          10          11    -169.651
tors           9          10          11          12     +70.261
tors          11          12          13          14    +179.176
ENDCONSTRAINT
$end

$rem
JOBTYPE                   OPT
METHOD                    B3LYP
DFT_D                     d3_op
BASIS                     STO-3G
GEOM_OPT_MAX_CYCLES       100
GEOM_OPT_TOL_GRADIENT     300
GEOM_OPT_TOL_DISPLACEMENT 1200
GEOM_OPT_TOL_ENERGY       100
SYMMETRY                  False
THRESH                    12
SCF_CONVERGENCE           8
MAX_SUB_FILE_NUM          128
MEM_STATIC                400
MEM_TOTAL                 4000
$end
--------------------------------------------------------------

   15   -1510.1513987991      9.64E-09 Convergence criterion met
 Total energy in the final basis set = -1510.15139880
   13   -1510.2228266719      7.56E-09 Convergence criterion met
 Total energy in the final basis set = -1510.22282667
   13   -1510.2613600400      6.22E-09 Convergence criterion met
 Total energy in the final basis set = -1510.26136004
   13   -1510.2778185673      8.71E-09 Convergence criterion met
 Total energy in the final basis set = -1510.27781857
   13   -1510.2819006816      9.65E-09 Convergence criterion met
 Total energy in the final basis set = -1510.28190068
   13   -1510.2844383530      3.93E-09 Convergence criterion met
 Total energy in the final basis set = -1510.28443835
   13   -1510.2849814900      2.68E-09 Convergence criterion met
 Total energy in the final basis set = -1510.28498149
   13   -1510.2852377891      1.94E-09 Convergence criterion met
   10   -1510.2856211589      3.18E-09 Convergence criterion met
 Total energy in the final basis set = -1510.28562116
    9   -1510.2856262444      6.65E-09 Convergence criterion met
 Total energy in the final basis set = -1510.28562624
    9   -1510.2856280241      4.49E-09 Convergence criterion met
 Total energy in the final basis set = -1510.28562802
    9   -1510.2856291170      3.84E-09 Convergence criterion met
 Total energy in the final basis set = -1510.28562912
    9   -1510.2856308349      3.71E-09 Convergence criterion met
 Total energy in the final basis set = -1510.28563083
    9   -1510.2856319845      3.88E-09 Convergence criterion met
 Total energy in the final basis set = -1510.28563198

             Standard Nuclear Orientation (Angstroms)
    I     Atom           X                Y                Z
 ----------------------------------------------------------------
    1      O      -2.1922878531     0.2221954281     1.0678539952
    2      C      -3.0387907369     1.0423572954     0.6414988207
    3      C      -4.3442516624     0.7017489992    -0.1509080256
    4      C      -4.2992350248    -0.7516716234    -0.7824476589
    5      C      -2.9321143120    -1.4950704529    -0.5510156181
    6      O      -1.9976369482    -0.9616955959    -1.5086268311
    7      C      -0.6640096421    -1.5805015478    -1.3214767175
    8      C       0.2189101323    -0.5607821137    -0.5238546144
    9      O       1.5810244432    -1.1231419891    -0.3792749545
   10      C       2.3061448186    -0.3884245274     0.6191723584
   11      C       3.8067587504    -0.8445318744     0.5416852188
   12      C       4.6296693816    -0.3909486827    -0.7359325928
   13      C       4.0150805245     0.7242024829    -1.6579879886
   14      O       4.5525928960     1.1913919084    -2.6861422547
   15      O      -2.9457503570     2.4520593770     0.8297726219
   16      O       2.7965363541     1.2327706985    -1.1129760513
   17      O       1.7937498477     0.4004869061     1.4409384712
   18      C       2.2727836760     2.3350283175    -1.9503519719
   19      C       4.6875123363    -0.2372305285     1.7143470529
   20      C       5.9065683697    -1.2084596080     1.9501658919
   21      C       6.7522489296    -0.9361038556     0.6497958881
   22      C       5.9176855747     0.2234713580    -0.0273510522
   23      O       5.3250144020     0.9577902531     1.1127629467
   24      H       3.8076722179    -1.9490596710     0.5895441029
   25      H       4.8888057849    -1.2538031914    -1.3758338244
   26      H       4.1050061514     0.0457290612     2.6126846039
   27      H       6.4602575951    -0.9190262574     2.8576992561
   28      H       5.5941748835    -2.2604896697     2.0453475167
   29      H       7.7698955845    -0.5897698049     0.8900393132
   30      H       6.8262700741    -1.8218228900    -0.0014062427
   31      H       6.5006838405     0.9071143213    -0.6751831983
   32      O      -2.7135800959    -2.4829693598     0.1813156692
   33      C      -1.7200857588     2.7765925162     1.6013280620
   34      C      -5.5840149926     0.5526203389     0.8374734625
   35      C      -6.9070681171     0.5110156118    -0.0260331463
   36      C      -6.8493478961    -0.9514460222    -0.6052586823
   37      C      -5.4827654528    -1.4607117908    -0.0021238817
   38      O      -5.4429690736    -0.8311147194     1.3392111900
   39      H      -4.5218695850     1.4866429751    -0.9069910224
   40      H      -4.4861965862    -0.7102456025    -1.8704115448
   41      H      -0.8139121997     2.3448953594     1.1294373598
   42      H      -5.5902284686     1.2754241811     1.6766825665
   43      H      -7.7897300442     0.6579690258     0.6165992297
   44      H      -6.9117347196     1.2810358409    -0.8141520982
   45      H      -7.6861730757    -1.5648189001    -0.2351870061
   46      H      -6.8529694546    -0.9746517027    -1.7067663223
   47      H      -5.3709134525    -2.5587489461     0.0860404023
   48      H      -1.7866906965     2.3982238680     2.6417829540
   49      H      -1.6501501367     3.8796423262     1.6120616130
   50      H       1.3907502152     2.7307666457    -1.4139315661
   51      H       1.9667585486     1.9726358380    -2.9533805632
   52      H       3.0247871761     3.1396453718    -2.0788329536
   53      H       0.2705735549     0.3992057352    -1.0824168695
   54      H      -0.2582921535    -0.3562370636     0.4607545915
   55      H      -0.2380145061    -1.7748166559    -2.3267597983
   56      H      -0.7687120837    -2.5314714821    -0.7565264298
 ----------------------------------------------------------------

    9   -1510.2856329468      2.60E-09 Convergence criterion met
 Total energy in the final basis set = -1510.28563295
 Final energy is   -1510.28563294681
 **  OPTIMIZATION CONVERGED  **

                    Orbital Energies (a.u.)
 --------------------------------------------------------------

 Alpha MOs
 -- Occupied --
-18.946 -18.943 -18.919 -18.917 -18.889 -18.887 -18.884 -18.874
-18.867 -18.862 -10.108 -10.102 -10.094 -10.093 -10.070 -10.068
-10.064 -10.060 -10.059 -10.058 -10.054 -10.054 -10.042 -10.039
-10.036 -10.032 -10.022 -10.021 -10.019 -10.017  -1.022  -1.017
 -1.002  -0.997  -0.972  -0.968  -0.945  -0.938  -0.930  -0.924
 -0.765  -0.761  -0.726  -0.722  -0.710  -0.704  -0.690  -0.667
 -0.666  -0.612  -0.597  -0.576  -0.546  -0.542  -0.538  -0.535
 -0.513  -0.509  -0.484  -0.477  -0.463  -0.457  -0.454  -0.445
 -0.435  -0.431  -0.423  -0.417  -0.415  -0.413  -0.410  -0.394
 -0.393  -0.380  -0.377  -0.365  -0.362  -0.358  -0.352  -0.345
 -0.342  -0.338  -0.335  -0.331  -0.329  -0.326  -0.320  -0.313
 -0.308  -0.306  -0.305  -0.302  -0.297  -0.292  -0.279  -0.274
 -0.268  -0.260  -0.245  -0.243  -0.238  -0.235  -0.233  -0.187
 -0.182  -0.168  -0.163  -0.161  -0.156  -0.148  -0.146  -0.143
 -0.142

          Ground-State Mulliken Net Atomic Charges

     Atom                 Charge (a.u.)
  ----------------------------------------
      1 O                    -0.207666
      2 C                     0.215841
      3 C                    -0.078227
      4 C                    -0.080417
      5 C                     0.216364
      6 O                    -0.182540
      7 C                    -0.053115
      8 C                    -0.055776
      9 O                    -0.180326
     10 C                     0.221640
     11 C                    -0.081065
     12 C                    -0.076845
     13 C                     0.212321
     14 O                    -0.216018
     15 O                    -0.166994
     16 O                    -0.166022
     17 O                    -0.218290
     18 C                    -0.125912
     19 C                     0.023833
     20 C                    -0.143054
     21 C                    -0.144642
     22 C                     0.024691
     23 O                    -0.191414
     24 H                     0.083652
     25 H                     0.086478
     26 H                     0.090056
     27 H                     0.077675
     28 H                     0.073532
     29 H                     0.078121
     30 H                     0.073592
     31 H                     0.085027
     32 O                    -0.213584
     33 C                    -0.129328
     34 C                     0.025630
     35 C                    -0.143642
     36 C                    -0.143927
     37 C                     0.025168
     38 O                    -0.187587
     39 H                     0.087253
     40 H                     0.084950
     41 H                     0.096964
     42 H                     0.084013
     43 H                     0.078644
     44 H                     0.073839
     45 H                     0.078617
     46 H                     0.073501
     47 H                     0.090191
     48 H                     0.092757
     49 H                     0.092245
     50 H                     0.091546
     51 H                     0.089128
     52 H                     0.094266
     53 H                     0.075363
     54 H                     0.105655
     55 H                     0.083726
     56 H                     0.100115
  ----------------------------------------
  Sum of atomic charges =    -0.000000

                    Cartesian Multipole Moments
 -----------------------------------------------------------------
    Charge (ESU x 10^10)
                -0.0000
    Dipole Moment (Debye)
         X      -1.0890      Y       0.9259      Z      -1.7494
       Tot       2.2591
    Quadrupole Moments (Debye-Ang)
        XX    -145.9827     XY     -14.5248     YY    -157.7059
        XZ      10.1076     YZ       2.8953     ZZ    -163.2813

 Total job time:  55.47s(wall), 2634.58s(cpu)
        *  Thank you very much for using Q-Chem.  Have a nice day.  *
