 Q-Chem 5.0, Q-Chem, Inc., Pleasanton, CA (2017)
 Q-Chem 5.0.1 for Intel X86 EM64T Linux

User input:
--------------------------------------------------------------
$molecule
0  1
O -3.94934 -3.66094 2.70899
C -3.26408 -4.56952 2.26188
C -3.36658 -6.02376 2.66595
C -2.05424 -6.81773 2.77194
C -0.77335 -6.02476 2.63554
O 0.14946 -6.75035 1.93743
C 1.17044 -7.31191 2.769
C 1.54389 -8.70544 2.27427
O 2.5323 -8.60785 1.23677
C 2.27094 -7.69749 0.26616
C 0.79301 -7.46674 0.0585
C -0.1035 -8.66632 0.39842
C 0.54544 -9.76585 1.21488
O -0.05117 -10.6196 1.85499
O -2.51833 -4.3189 1.15322
O 1.50708 -10.46111 0.45185
O 3.16912 -7.09616 -0.31342
C 2.18308 -11.62068 0.80109
C -0.22602 -6.51475 -0.67643
C -0.67984 -6.97886 -2.08093
C -1.60106 -8.14353 -1.70513
C -1.48624 -8.13883 -0.1536
O -1.42055 -6.74337 0.04086
H 1.14789 -7.81885 -0.93237
H -0.09367 -9.37698 -0.45529
H 0.12719 -5.46185 -0.66191
H -1.30127 -6.17657 -2.538
H 0.14983 -7.22726 -2.7775
H -2.64327 -7.85737 -1.97285
H -1.37028 -9.11097 -2.20131
H -2.3563 -8.6655 0.29258
O -0.48481 -5.04415 3.30839
C -2.34913 -3.07278 0.58808
C -3.95125 -6.18816 4.07733
C -4.49703 -7.60559 4.26064
C -3.20823 -8.37914 4.4161
C -2.18402 -7.25248 4.2578
O -2.81018 -6.16379 4.89186
H -4.02848 -6.48529 1.89974
H -2.03225 -7.75779 2.21342
H -1.87158 -2.38528 1.31857
H -4.74301 -5.44524 4.31548
H -5.06093 -7.6616 5.21885
H -5.14927 -7.93196 3.42199
H -3.15045 -8.75411 5.46309
H -3.06941 -9.22778 3.71215
H -1.22385 -7.57665 4.70846
H -3.32906 -2.65996 0.26683
H -1.69031 -3.16417 -0.2998
H 3.27505 -11.4268 0.76281
H 1.93683 -12.42179 0.07513
H 1.93179 -11.96586 1.82653
H 2.31435 -8.75929 3.08097
H 1.72915 -9.49107 3.09031
H 0.811 -7.40641 3.82204
H 2.05037 -6.62549 2.80165
$end

$opt
CONSTRAINT
tors           1           2           3           4    -142.105
tors           3           4           5           6    -142.105
tors           4           5           6           7    -104.211
tors           5           6           7           8    +142.105
tors           6           7           8           9     +85.263
tors           7           8           9          10     -47.368
tors           8           9          10          11     -28.421
tors           9          10          11          12     -28.421
tors          11          12          13          14    +161.053
ENDCONSTRAINT
$end

$rem
JOBTYPE                   OPT
METHOD                    B3LYP
DFT_D                     d3_op
BASIS                     STO-3G
GEOM_OPT_MAX_CYCLES       100
GEOM_OPT_TOL_GRADIENT     300
GEOM_OPT_TOL_DISPLACEMENT 1200
GEOM_OPT_TOL_ENERGY       100
SYMMETRY                  False
THRESH                    12
SCF_CONVERGENCE           8
MAX_SUB_FILE_NUM          128
MEM_STATIC                400
MEM_TOTAL                 4000
$end
--------------------------------------------------------------

   17   -1509.6399872592      3.14E-09 Convergence criterion met
 Total energy in the final basis set = -1509.63998726
   14   -1509.7390347598      8.19E-09 Convergence criterion met
 Total energy in the final basis set = -1509.73903476
   14   -1509.8081682348      8.27E-09 Convergence criterion met
 Total energy in the final basis set = -1509.80816823
   14   -1509.8619898262      6.30E-09 Convergence criterion met
 Total energy in the final basis set = -1509.86198983
   13   -1509.9034338220      9.43E-09 Convergence criterion met
 Total energy in the final basis set = -1509.90343382
   13   -1509.9375369110      9.37E-09 Convergence criterion met
 Total energy in the final basis set = -1509.93753691
   13   -1509.9669647222      7.83E-09 Convergence criterion met
 Total energy in the final basis set = -1509.96696472
   13   -1509.9934289435      7.96E-09 Convergence criterion met
   11   -1510.2196541937      3.28E-09 Convergence criterion met
 Total energy in the final basis set = -1510.21965419
    9   -1510.2196562206      6.63E-09 Convergence criterion met
 Total energy in the final basis set = -1510.21965622
    9   -1510.2196591814      6.34E-09 Convergence criterion met
 Total energy in the final basis set = -1510.21965918
    9   -1510.2196616151      4.66E-09 Convergence criterion met
 Total energy in the final basis set = -1510.21966162
    9   -1510.2196631686      3.65E-09 Convergence criterion met
 Total energy in the final basis set = -1510.21966317
    9   -1510.2196642178      2.11E-09 Convergence criterion met
 Total energy in the final basis set = -1510.21966422

             Standard Nuclear Orientation (Angstroms)
    I     Atom           X                Y                Z
 ----------------------------------------------------------------
    1      O      -4.4127284013     0.7012276320    -0.7977366987
    2      C      -3.2193908485     0.3335951091    -0.8233483882
    3      C      -2.6648385547    -1.1339877266    -0.8408059428
    4      C      -1.3520018730    -1.3455536429     0.0178806971
    5      C      -1.0183953970    -0.1505171024     0.9948712844
    6      O       0.4182000057     0.0857754920     1.0558011986
    7      C       0.9922793545    -0.4325988163     2.3117174971
    8      C       2.3889586062    -1.0322954498     1.9340850758
    9      O       3.5655770706    -0.1433693652     1.8776996103
   10      C       3.5889426831     1.1180853229     1.2132762159
   11      C       2.7807073128     1.6944274360    -0.0509616087
   12      C       2.1267883149     1.0324901921    -1.3468086092
   13      C       1.7506915605    -0.4782619084    -1.5331304397
   14      O       0.9464525047    -0.8887802018    -2.4026844094
   15      O      -2.0984592901     1.2083344816    -0.9663395481
   16      O       2.6478952797    -1.3674013695    -0.8446049385
   17      O       4.4812588033     1.8910194179     1.6481158563
   18      C       2.4254605234    -2.7673646169    -1.2877814253
   19      C       1.6349281413     2.7552359150     0.3416659060
   20      C       1.8180665771     4.0085702004    -0.6049579386
   21      C       1.3351554161     3.4077378887    -1.9806451376
   22      C       0.8540048525     1.9660269667    -1.5354128362
   23      O       0.3686932837     2.1874689049    -0.1599609084
   24      H       3.6012524123     2.3068399977    -0.4671211787
   25      H       2.8284166384     1.2124599007    -2.1854854881
   26      H       1.5598990559     2.9824324997     1.4226161047
   27      H       1.1624572002     4.8312413876    -0.2761905895
   28      H       2.8570639267     4.3736062547    -0.6344357357
   29      H       0.4940306135     3.9805488858    -2.4019145897
   30      H       2.1408598912     3.3631562619    -2.7311058717
   31      H       0.0569383266     1.5064635809    -2.1527186092
   32      O      -1.8431047488     0.4615930644     1.7031693002
   33      C      -2.5012128729     2.6275845756    -0.8479490170
   34      C      -3.6467594920    -2.1977926423    -0.1989863850
   35      C      -3.2684386096    -3.6127701130    -0.7836437786
   36      C      -1.8920326378    -3.8713461623    -0.0635896477
   37      C      -1.7939379967    -2.6071433333     0.8827874135
   38      O      -3.2019016449    -2.2925235052     1.2125019118
   39      H      -2.4579009930    -1.3876738774    -1.8976165698
   40      H      -0.4745048442    -1.5454999074    -0.6203206064
   41      H      -3.2864792762     2.7618579247    -0.0786327969
   42      H      -4.7170292406    -1.9182827621    -0.2531282645
   43      H      -4.0207288334    -4.3631662069    -0.4920318618
   44      H      -3.1815369008    -3.6045449194    -1.8817719417
   45      H      -1.9114360428    -4.7984170826     0.5310117363
   46      H      -1.0479613484    -3.9230876356    -0.7703950614
   47      H      -1.2085199403    -2.7651484309     1.8094763104
   48      H      -2.8762062614     3.0174764737    -1.8167822684
   49      H      -1.5740714794     3.1560923517    -0.5517063588
   50      H       1.9813363641    -3.3539841887    -0.4593867421
   51      H       3.4070406967    -3.1996795771    -1.5591350719
   52      H       1.7388653156    -2.7675636776    -2.1578716141
   53      H       2.6816523504    -1.7911691014     2.6886398430
   54      H       2.2870154862    -1.5043103781     0.9321332055
   55      H       0.3803226011    -1.2449046579     2.7596667182
   56      H       1.0929450796     0.3754064253     3.0738374703
 ----------------------------------------------------------------

    9   -1510.2196645377      1.87E-09 Convergence criterion met
 Total energy in the final basis set = -1510.21966454
 Final energy is   -1510.21966453768
 **  OPTIMIZATION CONVERGED  **

                    Orbital Energies (a.u.)
 --------------------------------------------------------------

 Alpha MOs
 -- Occupied --
-18.956 -18.928 -18.924 -18.895 -18.893 -18.892 -18.892 -18.890
-18.872 -18.859 -10.119 -10.103 -10.097 -10.096 -10.074 -10.074
-10.065 -10.062 -10.061 -10.060 -10.059 -10.052 -10.048 -10.035
-10.034 -10.034 -10.025 -10.022 -10.022 -10.019  -1.030  -1.009
 -1.000  -0.996  -0.974  -0.972  -0.953  -0.936  -0.931  -0.923
 -0.763  -0.763  -0.724  -0.722  -0.710  -0.703  -0.702  -0.675
 -0.655  -0.610  -0.603  -0.589  -0.547  -0.545  -0.541  -0.539
 -0.515  -0.512  -0.491  -0.481  -0.468  -0.459  -0.451  -0.444
 -0.435  -0.432  -0.430  -0.422  -0.415  -0.410  -0.406  -0.404
 -0.394  -0.390  -0.372  -0.370  -0.366  -0.363  -0.361  -0.349
 -0.348  -0.336  -0.333  -0.331  -0.328  -0.327  -0.319  -0.314
 -0.310  -0.309  -0.306  -0.297  -0.294  -0.291  -0.286  -0.276
 -0.270  -0.261  -0.249  -0.240  -0.234  -0.232  -0.223  -0.195
 -0.174  -0.170  -0.163  -0.159  -0.152  -0.149  -0.145  -0.139
 -0.135

          Ground-State Mulliken Net Atomic Charges

     Atom                 Charge (a.u.)
  ----------------------------------------
      1 O                    -0.212075
      2 C                     0.214930
      3 C                    -0.079847
      4 C                    -0.082614
      5 C                     0.230541
      6 O                    -0.198582
      7 C                    -0.051660
      8 C                    -0.059011
      9 O                    -0.173801
     10 C                     0.205458
     11 C                    -0.081762
     12 C                    -0.074595
     13 C                     0.220115
     14 O                    -0.215772
     15 O                    -0.172123
     16 O                    -0.165349
     17 O                    -0.208401
     18 C                    -0.138119
     19 C                     0.028617
     20 C                    -0.143117
     21 C                    -0.146047
     22 C                     0.025496
     23 O                    -0.182073
     24 H                     0.087370
     25 H                     0.086483
     26 H                     0.084614
     27 H                     0.076393
     28 H                     0.076175
     29 H                     0.076680
     30 H                     0.072297
     31 H                     0.095497
     32 O                    -0.184750
     33 C                    -0.132192
     34 C                     0.024030
     35 C                    -0.142564
     36 C                    -0.144497
     37 C                     0.022969
     38 O                    -0.187339
     39 H                     0.085941
     40 H                     0.084101
     41 H                     0.094452
     42 H                     0.091685
     43 H                     0.078516
     44 H                     0.074438
     45 H                     0.077425
     46 H                     0.071993
     47 H                     0.075221
     48 H                     0.079723
     49 H                     0.102209
     50 H                     0.083977
     51 H                     0.092847
     52 H                     0.104575
     53 H                     0.084777
     54 H                     0.104818
     55 H                     0.079212
     56 H                     0.082718
  ----------------------------------------
  Sum of atomic charges =     0.000000

                    Cartesian Multipole Moments
 -----------------------------------------------------------------
    Charge (ESU x 10^10)
                 0.0000
    Dipole Moment (Debye)
         X       1.0545      Y      -2.2590      Z      -2.8007
       Tot       3.7495
    Quadrupole Moments (Debye-Ang)
        XX    -184.6537     XY      -3.1893     YY    -144.8568
        XZ      -4.8921     YZ      -4.5623     ZZ    -160.4732

 Total job time:  176.84s(wall), 8439.88s(cpu)
        *  Thank you very much for using Q-Chem.  Have a nice day.  *
