 Q-Chem 5.0, Q-Chem, Inc., Pleasanton, CA (2017)
 Q-Chem 5.0.1 for Intel X86 EM64T Linux

User input:
--------------------------------------------------------------
$molecule
0  1
O -3.94934 -3.66094 2.70899
C -3.26408 -4.56952 2.26188
C -3.36658 -6.02376 2.66595
C -2.27333 -6.57303 3.59705
C -1.29943 -5.56331 4.16282
O -0.02166 -5.91652 3.83424
C 0.82949 -6.07539 4.97422
C 2.29312 -6.00129 4.55179
O 3.12546 -6.58512 5.56629
C 4.18409 -7.30047 5.1116
C 3.97565 -8.79237 5.21861
C 4.53958 -9.61039 4.04768
C 5.51786 -8.88519 3.14558
O 6.71979 -8.78006 3.34276
O -2.25666 -4.26898 1.40157
O 4.9637 -8.20812 2.10622
O 5.28004 -6.77886 4.97021
C 5.67733 -7.44184 1.20901
C 4.73593 -9.41932 6.40455
C 4.06063 -10.72846 6.80984
C 4.41509 -11.60434 5.62559
C 5.34191 -10.65604 4.8541
O 5.94519 -9.87363 5.85526
H 2.88714 -8.97747 5.37259
H 3.76876 -10.09619 3.40963
H 4.82016 -8.73995 7.28102
H 4.60313 -11.10515 7.70676
H 2.97594 -10.66207 7.04213
H 4.97204 -12.49146 6.00066
H 3.55607 -11.92748 4.99848
H 6.03704 -11.23718 4.20792
O -1.59099 -4.61683 4.8821
C -1.96769 -2.99566 0.95808
C -4.60679 -6.28994 3.55325
C -4.99242 -7.76842 3.49107
C -3.88112 -8.38437 4.31319
C -3.12849 -7.12384 4.74844
O -4.13759 -6.15288 4.87193
H -3.484 -6.60808 1.72586
H -1.6979 -7.38312 3.092
H -1.7071 -2.34138 1.81742
H -5.48499 -5.66502 3.27901
H -5.94937 -7.88687 4.04833
H -5.11171 -8.18018 2.46587
H -4.33349 -8.88399 5.19875
H -3.22587 -9.09847 3.76897
H -2.52727 -7.32639 5.66272
H -2.83918 -2.57289 0.41391
H -1.10114 -3.03922 0.26694
H 4.97821 -7.00658 0.46588
H 6.42123 -8.07126 0.67528
H 6.19574 -6.6148 1.73969
H 2.39835 -6.57962 3.60257
H 2.58185 -4.94778 4.34931
H 0.62447 -7.08569 5.39292
H 0.65806 -5.3173 5.77227
$end

$opt
CONSTRAINT
tors           1           2           3           4    -104.211
tors           3           4           5           6    -123.158
tors           4           5           6           7    -123.158
tors           5           6           7           8    -161.053
tors           6           7           8           9    -161.053
tors           7           8           9          10    +142.105
tors           8           9          10          11    -104.211
tors           9          10          11          12    +142.105
tors          11          12          13          14     +85.263
ENDCONSTRAINT
$end

$rem
JOBTYPE                   OPT
METHOD                    B3LYP
DFT_D                     d3_op
BASIS                     STO-3G
GEOM_OPT_MAX_CYCLES       100
GEOM_OPT_TOL_GRADIENT     300
GEOM_OPT_TOL_DISPLACEMENT 1200
GEOM_OPT_TOL_ENERGY       100
SYMMETRY                  False
THRESH                    12
SCF_CONVERGENCE           8
MAX_SUB_FILE_NUM          128
MEM_STATIC                400
MEM_TOTAL                 4000
$end
--------------------------------------------------------------

   15   -1510.1123867625      7.16E-09 Convergence criterion met
 Total energy in the final basis set = -1510.11238676
   14   -1510.1830518193      4.56E-09 Convergence criterion met
 Total energy in the final basis set = -1510.18305182
   14   -1510.2204753312      5.27E-09 Convergence criterion met
 Total energy in the final basis set = -1510.22047533
   14   -1510.2361600972      6.62E-09 Convergence criterion met
 Total energy in the final basis set = -1510.23616010
   13   -1510.2406713564      8.27E-09 Convergence criterion met
 Total energy in the final basis set = -1510.24067136
   13   -1510.2419955813      3.48E-09 Convergence criterion met
 Total energy in the final basis set = -1510.24199558
   12   -1510.2426274388      9.72E-09 Convergence criterion met
 Total energy in the final basis set = -1510.24262744
   12   -1510.2428515115      5.99E-09 Convergence criterion met
   11   -1510.2433611995      4.57E-09 Convergence criterion met
 Total energy in the final basis set = -1510.24336120
   11   -1510.2433774921      5.30E-09 Convergence criterion met
 Total energy in the final basis set = -1510.24337749
   11   -1510.2433921873      3.64E-09 Convergence criterion met
 Total energy in the final basis set = -1510.24339219
    9   -1510.2433963911      9.30E-09 Convergence criterion met
 Total energy in the final basis set = -1510.24339639
    9   -1510.2433988465      9.25E-09 Convergence criterion met
 Total energy in the final basis set = -1510.24339885
    9   -1510.2434009266      5.66E-09 Convergence criterion met
 Total energy in the final basis set = -1510.24340093

             Standard Nuclear Orientation (Angstroms)
    I     Atom           X                Y                Z
 ----------------------------------------------------------------
    1      O      -6.1790339281     1.1906159375     0.5979034982
    2      C      -5.2372495735     1.1765176171    -0.2214053868
    3      C      -4.6913336749    -0.0460272228    -1.0427668252
    4      C      -3.3229641847    -0.5981176608    -0.4539241370
    5      C      -2.7406773010     0.2537336035     0.7301256202
    6      O      -1.3948190160     0.7029981611     0.4173032443
    7      C      -0.4545021367     0.2437923207     1.4650743282
    8      C       0.8337286959     1.1363531068     1.3557846197
    9      O       1.9329272354     0.4187560893     2.0496964602
   10      C       3.1645610300     0.6295047370     1.2905657611
   11      C       3.5380845348    -0.6588397266     0.4704736882
   12      C       4.1439650819    -0.3728288199    -0.9683496470
   13      C       4.5330375304     1.1316260076    -1.2019950830
   14      O       5.5973943666     1.7090107071    -0.8990252553
   15      O      -4.4044376183     2.3050434250    -0.5165095835
   16      O       3.3930453755     1.7877018387    -1.7763186239
   17      O       3.8047844644     1.6994480255     1.3292583070
   18      C       3.6604096828     3.2383863812    -1.9060844593
   19      C       4.7000402718    -1.5381902992     1.1219919942
   20      C       4.5568464899    -3.0022426916     0.5481838340
   21      C       5.0494895815    -2.7892000096    -0.9316821811
   22      C       5.4562929388    -1.2619930421    -0.9072428919
   23      O       5.9328143104    -1.0402898356     0.4784251243
   24      H       2.6137208363    -1.2573877752     0.3888656229
   25      H       3.4443431216    -0.6893284823    -1.7620734279
   26      H       4.7759483416    -1.4644657155     2.2243102973
   27      H       5.2164466487    -3.6928984086     1.0976235657
   28      H       3.5225405890    -3.3768909339     0.6078863176
   29      H       5.9226770765    -3.4193232423    -1.1635447845
   30      H       4.2610722312    -2.9920201993    -1.6742283737
   31      H       6.2388281922    -0.9671267347    -1.6327144531
   32      O      -3.3131575606     0.4961333607     1.8138337374
   33      C      -4.7951823820     3.4552996500     0.3302052443
   34      C      -5.6305583759    -1.3058466894    -0.8466604232
   35      C      -5.2220306450    -2.4187910883    -1.8908111169
   36      C      -3.8896566735    -2.9635159831    -1.2533707144
   37      C      -3.7727503999    -2.0484424182     0.0286895819
   38      O      -5.1756320039    -1.8590159248     0.4517697560
   39      H      -4.5796236193     0.2453139971    -2.1024135036
   40      H      -2.5482253318    -0.6572563075    -1.2382694106
   41      H      -4.7036629628     3.2109285209     1.4084043976
   42      H      -6.7098820018    -1.0637666013    -0.8010652890
   43      H      -5.9952959819    -3.2018065369    -1.9420449066
   44      H      -5.0718573079    -2.0049298348    -2.9009080774
   45      H      -3.9831689924    -4.0219216687    -0.9622932371
   46      H      -3.0210370777    -2.8548558903    -1.9220430388
   47      H      -3.1705242982    -2.4680830537     0.8578024691
   48      H      -5.8372159020     3.7773524453     0.1281117136
   49      H      -4.0984636924     4.2742959314     0.0737043387
   50      H       2.7317700520     3.6873775756    -2.3039156566
   51      H       4.4977915227     3.4396731826    -2.6050859314
   52      H       3.9049782301     3.6919283920    -0.9237701013
   53      H       1.0514990300     1.2952608907     0.2766035616
   54      H       0.6534192494     2.1330190563     1.8177134492
   55      H      -0.1725062982    -0.8195001545     1.2849517639
   56      H      -0.8990653019     0.3209499441     2.4812854049
 ----------------------------------------------------------------

    9   -1510.2434010458      3.16E-09 Convergence criterion met
 Total energy in the final basis set = -1510.24340105
 Final energy is   -1510.24340104579
 **  OPTIMIZATION CONVERGED  **

                    Orbital Energies (a.u.)
 --------------------------------------------------------------

 Alpha MOs
 -- Occupied --
-18.932 -18.930 -18.914 -18.911 -18.901 -18.896 -18.894 -18.892
-18.877 -18.875 -10.113 -10.107 -10.098 -10.097 -10.075 -10.074
-10.067 -10.067 -10.063 -10.062 -10.062 -10.061 -10.042 -10.041
-10.041 -10.040 -10.025 -10.025 -10.024 -10.024  -1.015  -1.013
 -1.007  -1.005  -0.975  -0.974  -0.945  -0.937  -0.935  -0.933
 -0.767  -0.766  -0.728  -0.726  -0.715  -0.709  -0.699  -0.662
 -0.661  -0.611  -0.601  -0.583  -0.552  -0.550  -0.543  -0.542
 -0.519  -0.513  -0.483  -0.471  -0.464  -0.456  -0.455  -0.453
 -0.445  -0.436  -0.433  -0.415  -0.414  -0.411  -0.410  -0.399
 -0.397  -0.381  -0.377  -0.368  -0.365  -0.362  -0.356  -0.353
 -0.347  -0.344  -0.341  -0.336  -0.335  -0.333  -0.332  -0.316
 -0.313  -0.311  -0.310  -0.304  -0.293  -0.285  -0.284  -0.279
 -0.278  -0.255  -0.253  -0.250  -0.246  -0.238  -0.238  -0.177
 -0.177  -0.168  -0.166  -0.164  -0.158  -0.150  -0.150  -0.148
 -0.148

          Ground-State Mulliken Net Atomic Charges

     Atom                 Charge (a.u.)
  ----------------------------------------
      1 O                    -0.204430
      2 C                     0.210482
      3 C                    -0.078545
      4 C                    -0.080778
      5 C                     0.214777
      6 O                    -0.190345
      7 C                    -0.046568
      8 C                    -0.047412
      9 O                    -0.200056
     10 C                     0.220429
     11 C                    -0.082449
     12 C                    -0.080466
     13 C                     0.209537
     14 O                    -0.201697
     15 O                    -0.173718
     16 O                    -0.176971
     17 O                    -0.175239
     18 C                    -0.130155
     19 C                     0.026784
     20 C                    -0.142446
     21 C                    -0.144963
     22 C                     0.026522
     23 O                    -0.182711
     24 H                     0.081966
     25 H                     0.084383
     26 H                     0.086185
     27 H                     0.079570
     28 H                     0.073484
     29 H                     0.079158
     30 H                     0.073036
     31 H                     0.086970
     32 O                    -0.190892
     33 C                    -0.129072
     34 C                     0.025544
     35 C                    -0.144357
     36 C                    -0.143285
     37 C                     0.025505
     38 O                    -0.183662
     39 H                     0.085532
     40 H                     0.085021
     41 H                     0.093609
     42 H                     0.089542
     43 H                     0.079043
     44 H                     0.073733
     45 H                     0.078691
     46 H                     0.073132
     47 H                     0.081840
     48 H                     0.087976
     49 H                     0.089850
     50 H                     0.088352
     51 H                     0.087800
     52 H                     0.094277
     53 H                     0.086284
     54 H                     0.084716
     55 H                     0.076089
     56 H                     0.090399
  ----------------------------------------
  Sum of atomic charges =     0.000000

                    Cartesian Multipole Moments
 -----------------------------------------------------------------
    Charge (ESU x 10^10)
                 0.0000
    Dipole Moment (Debye)
         X      -0.6466      Y      -2.0199      Z      -3.7314
       Tot       4.2920
    Quadrupole Moments (Debye-Ang)
        XX    -192.6908     XY     -10.8380     YY    -148.3397
        XZ       6.2469     YZ      -0.1980     ZZ    -160.0073

 Total job time:  50.50s(wall), 2399.82s(cpu)
        *  Thank you very much for using Q-Chem.  Have a nice day.  *
