 Q-Chem 5.0, Q-Chem, Inc., Pleasanton, CA (2017)
 Q-Chem 5.0.1 for Intel X86 EM64T Linux

User input:
--------------------------------------------------------------
$molecule
0  1
O -6.1790339281 1.1906159375 0.5979034982
C -5.2372495735 1.1765176171 -0.2214053868
C -4.6913336749 -0.0460272228 -1.0427668252
C -3.3229641847 -0.5981176608 -0.453924137
C -2.740677301 0.2537336035 0.7301256202
O -1.394819016 0.7029981611 0.4173032443
C -0.4545021367 0.2437923207 1.4650743282
C 0.8337286959 1.1363531068 1.3557846197
O 1.9329272354 0.4187560893 2.0496964602
C 3.16456103 0.629504737 1.2905657611
C 3.5380845348 -0.6588397266 0.4704736882
C 4.1439650819 -0.3728288199 -0.968349647
C 4.5330375304 1.1316260076 -1.201995083
O 5.5973943666 1.7090107071 -0.8990252553
O -4.4044376183 2.305043425 -0.5165095835
O 3.3930453755 1.7877018387 -1.7763186239
O 3.8047844644 1.6994480255 1.329258307
C 3.6604096828 3.2383863812 -1.9060844593
C 4.7000402718 -1.5381902992 1.1219919942
C 4.5568464899 -3.0022426916 0.548183834
C 5.0494895815 -2.7892000096 -0.9316821811
C 5.4562929388 -1.2619930421 -0.9072428919
O 5.9328143104 -1.0402898356 0.4784251243
H 2.6137208363 -1.2573877752 0.3888656229
H 3.4443431216 -0.6893284823 -1.7620734279
H 4.7759483416 -1.4644657155 2.2243102973
H 5.2164466487 -3.6928984086 1.0976235657
H 3.522540589 -3.3768909339 0.6078863176
H 5.9226770765 -3.4193232423 -1.1635447845
H 4.2610722312 -2.9920201993 -1.6742283737
H 6.2388281922 -0.9671267347 -1.6327144531
O -3.3131575606 0.4961333607 1.8138337374
C -4.795182382 3.45529965 0.3302052443
C -5.6305583759 -1.3058466894 -0.8466604232
C -5.222030645 -2.4187910883 -1.8908111169
C -3.8896566735 -2.9635159831 -1.2533707144
C -3.7727503999 -2.0484424182 0.0286895819
O -5.1756320039 -1.8590159248 0.451769756
H -4.5796236193 0.2453139971 -2.1024135036
H -2.5482253318 -0.6572563075 -1.2382694106
H -4.7036629628 3.2109285209 1.4084043976
H -6.7098820018 -1.0637666013 -0.801065289
H -5.9952959819 -3.2018065369 -1.9420449066
H -5.0718573079 -2.0049298348 -2.9009080774
H -3.9831689924 -4.0219216687 -0.9622932371
H -3.0210370777 -2.8548558903 -1.9220430388
H -3.1705242982 -2.4680830537 0.8578024691
H -5.837215902 3.7773524453 0.1281117136
H -4.0984636924 4.2742959314 0.0737043387
H 2.731770052 3.6873775756 -2.3039156566
H 4.4977915227 3.4396731826 -2.6050859314
H 3.9049782301 3.691928392 -0.9237701013
H 1.05149903 1.2952608907 0.2766035616
H 0.6534192494 2.1330190563 1.8177134492
H -0.1725062982 -0.8195001545 1.2849517639
H -0.8990653019 0.3209499441 2.4812854049
$end

$rem
JOBTYPE                   OPT
METHOD                    B3LYP
DFT_D                     d3_op
BASIS                     STO-3G
GEOM_OPT_MAX_CYCLES       100
GEOM_OPT_TOL_GRADIENT     300
GEOM_OPT_TOL_DISPLACEMENT 1200
GEOM_OPT_TOL_ENERGY       100
SYMMETRY                  False
THRESH                    12
SCF_CONVERGENCE           8
MAX_SUB_FILE_NUM          128
MEM_STATIC                400
MEM_TOTAL                 4000
$end
--------------------------------------------------------------

   16   -1510.2434072631      5.43E-09 Convergence criterion met
 Total energy in the final basis set = -1510.24340726
   15   -1510.2481622948      3.34E-09 Convergence criterion met
 Total energy in the final basis set = -1510.24816229
   15   -1510.2530043118      2.76E-09 Convergence criterion met
 Total energy in the final basis set = -1510.25300431
   15   -1510.2576081980      2.09E-09 Convergence criterion met
 Total energy in the final basis set = -1510.25760820
   15   -1510.2622219923      2.25E-09 Convergence criterion met
 Total energy in the final basis set = -1510.26222199
   14   -1510.2661837167      6.34E-09 Convergence criterion met
 Total energy in the final basis set = -1510.26618372
   14   -1510.2701328068      4.36E-09 Convergence criterion met
 Total energy in the final basis set = -1510.27013281
   14   -1510.2737103724      8.42E-09 Convergence criterion met
   12   -1510.2887507375      3.55E-09 Convergence criterion met
 Total energy in the final basis set = -1510.28875074
   12   -1510.2887478958      3.62E-09 Convergence criterion met
 Total energy in the final basis set = -1510.28874790
   11   -1510.2887569795      8.20E-09 Convergence criterion met
 Total energy in the final basis set = -1510.28875698
   10   -1510.2887599975      7.24E-09 Convergence criterion met
 Total energy in the final basis set = -1510.28876000
    9   -1510.2887589122      9.67E-09 Convergence criterion met
 Total energy in the final basis set = -1510.28875891
    9   -1510.2887552757      6.80E-09 Convergence criterion met
 Total energy in the final basis set = -1510.28875528

             Standard Nuclear Orientation (Angstroms)
    I     Atom           X                Y                Z
 ----------------------------------------------------------------
    1      O      -4.8972539540    -0.4398553720     2.1870504697
    2      C      -4.4768758244     0.3179986701     1.2885660037
    3      C      -5.0437346619     0.4767469284    -0.1695093052
    4      C      -4.0155975244     0.0701734711    -1.3068230605
    5      C      -2.6669386304    -0.4662909715    -0.7277991005
    6      O      -1.5989662560    -0.0772845746    -1.6008889178
    7      C      -0.2991837680    -0.5248912350    -1.0446713000
    8      C       0.1938497375     0.4660677902     0.0793408860
    9      O       1.3581103184    -0.0803073517     0.8193818453
   10      C       2.5458106919     0.0105529076     0.0277678911
   11      C       3.7416826923    -0.5533095722     0.8616131071
   12      C       5.0190379044    -0.8518547039    -0.0241118370
   13      C       4.8033362022    -0.6335200561    -1.5675284039
   14      O       5.3300651122     0.2368352179    -2.2913038342
   15      O      -3.4093623399     1.2633721528     1.4587532342
   16      O       3.9770605582    -1.7049728446    -2.0507915391
   17      O       2.5864929587     0.4940425815    -1.1262039360
   18      C       3.6862005425    -1.5023096350    -3.4869632532
   19      C       4.3136358351     0.5678993920     1.8353707767
   20      C       5.3019404229    -0.1139122074     2.8629395401
   21      C       6.5677628616    -0.3517799883     1.9573440355
   22      C       6.0526521833     0.1933826741     0.5693820856
   23      O       5.2043612658     1.3485438751     0.9495207873
   24      H       3.3982985128    -1.4418491420     1.4202676175
   25      H       5.3570260945    -1.8924304497     0.1301789886
   26      H       3.5386340784     1.2180056346     2.2862472770
   27      H       5.5229815994     0.5714029817     3.6965298744
   28      H       4.8900159079    -1.0493930275     3.2743543665
   29      H       7.4290586104     0.2395616283     2.3065600874
   30      H       6.8634138730    -1.4118489157     1.9061735182
   31      H       6.8336174026     0.5113064227    -0.1483777644
   32      O      -2.5102429447    -1.1415705830     0.3141534819
   33      C      -2.7984539789     1.0891434086     2.7955731563
   34      C      -6.2195552217    -0.5506335110    -0.4360492159
   35      C      -7.0192842854    -0.0750459527    -1.7103441681
   36      C      -6.0048034022    -0.4402635198    -2.8572196023
   37      C      -4.8284527357    -1.0949162451    -2.0289281624
   38      O      -5.5152005218    -1.7677373743    -0.9057257936
   39      H      -5.3731148996     1.5233468398    -0.3025824485
   40      H      -3.8024098856     0.9058895434    -1.9957483279
   41      H      -2.3120842871     0.0957234378     2.8857218815
   42      H      -6.8263516933    -0.7810317142     0.4610934834
   43      H      -7.9595038421    -0.6406829030    -1.8091996617
   44      H      -7.2550908923     1.0005578602    -1.6771516975
   45      H      -6.4329621845    -1.1713185138    -3.5613233050
   46      H      -5.6686460731     0.4422480462    -3.4245946933
   47      H      -4.1999642580    -1.8138617406    -2.5898870399
   48      H      -3.5482870604     1.1887516381     3.6064155682
   49      H      -2.0377406895     1.8855468392     2.8933582325
   50      H       3.0966683502    -2.3803958054    -3.8093274020
   51      H       4.6148038587    -1.4358101230    -4.0898911275
   52      H       3.0943571972    -0.5776615538    -3.6483935190
   53      H       0.4340578051     1.4525670081    -0.3705682312
   54      H      -0.6062400099     0.5874277971     0.8365468372
   55      H       0.4178911245    -0.5245078890    -1.8890395807
   56      H      -0.3825758995    -1.5467683341    -0.6168226129
 ----------------------------------------------------------------

    9   -1510.2887554223      5.79E-09 Convergence criterion met
 Total energy in the final basis set = -1510.28875542
 Final energy is   -1510.28875542233
 **  OPTIMIZATION CONVERGED  **

                    Orbital Energies (a.u.)
 --------------------------------------------------------------

 Alpha MOs
 -- Occupied --
-18.944 -18.942 -18.928 -18.921 -18.889 -18.888 -18.886 -18.881
-18.873 -18.864 -10.108 -10.105 -10.097 -10.092 -10.076 -10.074
-10.063 -10.063 -10.061 -10.058 -10.057 -10.056 -10.041 -10.041
-10.037 -10.034 -10.022 -10.022 -10.021 -10.020  -1.023  -1.018
 -1.006  -1.000  -0.972  -0.971  -0.946  -0.942  -0.933  -0.926
 -0.765  -0.764  -0.729  -0.724  -0.715  -0.707  -0.697  -0.661
 -0.656  -0.624  -0.598  -0.585  -0.548  -0.546  -0.539  -0.538
 -0.513  -0.511  -0.487  -0.474  -0.463  -0.456  -0.454  -0.453
 -0.439  -0.432  -0.431  -0.412  -0.410  -0.408  -0.406  -0.398
 -0.394  -0.389  -0.373  -0.367  -0.359  -0.357  -0.355  -0.349
 -0.345  -0.343  -0.338  -0.334  -0.334  -0.328  -0.326  -0.314
 -0.312  -0.307  -0.305  -0.304  -0.293  -0.284  -0.280  -0.279
 -0.273  -0.264  -0.253  -0.250  -0.246  -0.235  -0.235  -0.197
 -0.176  -0.173  -0.167  -0.162  -0.160  -0.150  -0.146  -0.145
 -0.143

          Ground-State Mulliken Net Atomic Charges

     Atom                 Charge (a.u.)
  ----------------------------------------
      1 O                    -0.208873
      2 C                     0.214883
      3 C                    -0.079631
      4 C                    -0.078777
      5 C                     0.211479
      6 O                    -0.169446
      7 C                    -0.053864
      8 C                    -0.051576
      9 O                    -0.169528
     10 C                     0.214118
     11 C                    -0.078163
     12 C                    -0.080968
     13 C                     0.215844
     14 O                    -0.213774
     15 O                    -0.178259
     16 O                    -0.178123
     17 O                    -0.209226
     18 C                    -0.129151
     19 C                     0.025402
     20 C                    -0.143728
     21 C                    -0.143875
     22 C                     0.024775
     23 O                    -0.188693
     24 H                     0.088148
     25 H                     0.084047
     26 H                     0.083446
     27 H                     0.078453
     28 H                     0.074125
     29 H                     0.078354
     30 H                     0.073530
     31 H                     0.090432
     32 O                    -0.212005
     33 C                    -0.130610
     34 C                     0.024877
     35 C                    -0.143919
     36 C                    -0.143738
     37 C                     0.025889
     38 O                    -0.186854
     39 H                     0.084387
     40 H                     0.087535
     41 H                     0.092082
     42 H                     0.090975
     43 H                     0.078652
     44 H                     0.073439
     45 H                     0.078600
     46 H                     0.074095
     47 H                     0.082934
     48 H                     0.089962
     49 H                     0.086848
     50 H                     0.085871
     51 H                     0.087879
     52 H                     0.090523
     53 H                     0.093111
     54 H                     0.095515
     55 H                     0.097212
     56 H                     0.095363
  ----------------------------------------
  Sum of atomic charges =    -0.000000

                    Cartesian Multipole Moments
 -----------------------------------------------------------------
    Charge (ESU x 10^10)
                -0.0000
    Dipole Moment (Debye)
         X      -0.4194      Y       0.1210      Z      -0.0606
       Tot       0.4407
    Quadrupole Moments (Debye-Ang)
        XX    -158.4613     XY     -21.7114     YY    -164.3049
        XZ      18.6569     YZ       6.7096     ZZ    -153.9574

 Total job time:  122.80s(wall), 5845.58s(cpu)
        *  Thank you very much for using Q-Chem.  Have a nice day.  *
