 Q-Chem 5.0, Q-Chem, Inc., Pleasanton, CA (2017)
 Q-Chem 5.0.1 for Intel X86 EM64T Linux

User input:
--------------------------------------------------------------
$molecule
0  1
O 2.8999371284 -1.4863246156 1.4165721378
C 3.5225924699 -1.1165928195 0.3995111366
C 3.7249712128 0.3452508729 -0.1387889743
C 2.549088648 0.8994193389 -1.0588292739
C 1.5507412602 -0.1562302631 -1.6478642793
O 1.1265256467 -1.0459405048 -0.620023128
C 0.1791964549 -2.0692032986 -1.1164968086
C -1.31762574 -1.7931445223 -0.7087621287
O -2.0325344004 -1.2795439839 -1.8957936056
C -3.0161134179 -0.2540708986 -1.7679014475
C -3.0339555159 0.8605711049 -0.6334228428
C -3.2653250596 0.5728750061 0.922152235
C -3.6247660397 -0.887974353 1.3678435942
O -4.7719501103 -1.3877212197 1.3891421206
O 4.1595893749 -2.0167539693 -0.5209999439
O -2.4696259639 -1.5223003511 1.9304117009
O -3.8123527294 -0.1504609712 -2.7325573304
C -2.8061844698 -2.8732471875 2.4343458113
C -1.6259072885 1.5892944013 -0.5766220224
C -1.811282904 3.0321370402 0.0365983898
C -1.9712836034 2.6980320958 1.5665438604
C -1.9092883596 1.1236169447 1.5426452122
O -0.9080508418 0.8416913873 0.4870924205
H -3.8176843266 1.5541546899 -0.9858331787
H -4.1184921257 1.1922582677 1.2542022815
H -1.056723338 1.5467992961 -1.5258488512
H -0.9217327206 3.6541323275 -0.1519482786
H -2.6924370178 3.54282382 -0.3831136056
H -1.1318637802 3.100814262 2.1554285516
H -2.9164888799 3.0731674484 1.9901165219
H -1.6118674462 0.6383045821 2.4912000687
O 1.1589031577 -0.2135733592 -2.8357390957
C 3.9440416398 -3.4152224189 -0.0862244829
C 3.6274985379 1.3452791174 1.0864268797
C 4.0481336195 2.7987905759 0.6274478418
C 2.7521511886 3.2713564614 -0.1318492642
C 1.8807930102 1.9582106001 -0.0665324203
O 2.1640871537 1.4392394092 1.2870386276
H 4.6932405924 0.3963003633 -0.6678527565
H 2.9773306627 1.4226156375 -1.9324813408
H 2.8646368236 -3.6657672486 -0.0388390348
H 4.1208996393 0.97978637 2.0074157641
H 4.2630730126 3.4344615486 1.5009479146
H 4.9372512828 2.7835514454 -0.0232546209
H 2.24808419 4.0911306648 0.4051408652
H 2.953066678 3.5957785004 -1.1651847868
H 0.7903383397 2.0796369382 -0.1840501577
H 4.391057699 -3.6091554189 0.9103544973
H 4.4386002676 -4.0521502746 -0.8425421784
H -2.2404435455 -3.6290683541 1.8545830298
H -3.8962115859 -3.0461599425 2.3250919798
H -2.5108147034 -2.9346284809 3.4996057333
H -1.8003341165 -2.7379245384 -0.3811922671
H -1.2997307319 -1.0451434673 0.117530014
H 0.5096863006 -3.0286748077 -0.6681133871
H 0.2498724686 -2.1296959251 -2.2253537253
$end

$rem
JOBTYPE                   OPT
METHOD                    B3LYP
DFT_D                     d3_op
BASIS                     STO-3G
GEOM_OPT_MAX_CYCLES       100
GEOM_OPT_TOL_GRADIENT     300
GEOM_OPT_TOL_DISPLACEMENT 1200
GEOM_OPT_TOL_ENERGY       100
SYMMETRY                  False
THRESH                    12
SCF_CONVERGENCE           8
MAX_SUB_FILE_NUM          128
MEM_STATIC                400
MEM_TOTAL                 4000
$end
--------------------------------------------------------------

   16   -1510.2625455290      5.90E-09 Convergence criterion met
 Total energy in the final basis set = -1510.26254553
   14   -1510.2652180251      4.98E-09 Convergence criterion met
 Total energy in the final basis set = -1510.26521803
   14   -1510.2686024007      3.21E-09 Convergence criterion met
 Total energy in the final basis set = -1510.26860240
   14   -1510.2727974167      5.71E-09 Convergence criterion met
 Total energy in the final basis set = -1510.27279742
   15   -1510.2728543720      4.98E-09 Convergence criterion met
 Total energy in the final basis set = -1510.27285437
   14   -1510.2754108332      2.57E-09 Convergence criterion met
 Total energy in the final basis set = -1510.27541083
   14   -1510.2783050496      3.13E-09 Convergence criterion met
 Total energy in the final basis set = -1510.27830505
   13   -1510.2804907111      9.87E-09 Convergence criterion met
   11   -1510.2883773192      8.21E-09 Convergence criterion met
 Total energy in the final basis set = -1510.28837732
   11   -1510.2883867975      5.36E-09 Convergence criterion met
 Total energy in the final basis set = -1510.28838680
   11   -1510.2883979419      7.53E-09 Convergence criterion met
 Total energy in the final basis set = -1510.28839794
   11   -1510.2884056873      7.84E-09 Convergence criterion met
 Total energy in the final basis set = -1510.28840569
   10   -1510.2884014919      6.41E-09 Convergence criterion met
 Total energy in the final basis set = -1510.28840149
   10   -1510.2884028708      5.78E-09 Convergence criterion met
 Total energy in the final basis set = -1510.28840287

             Standard Nuclear Orientation (Angstroms)
    I     Atom           X                Y                Z
 ----------------------------------------------------------------
    1      O      -4.1686055127     2.2862947952     0.7106649016
    2      C      -3.9762092915     1.4013661306    -0.1481158916
    3      C      -3.8663011065    -0.1503405216     0.0697015813
    4      C      -2.5540549435    -0.7806973318    -0.5510340802
    5      C      -1.5651189360     0.2523265380    -1.1804201917
    6      O      -1.3971801596     1.3385460705    -0.2658861588
    7      C      -0.3223291507     2.2507762750    -0.7263891320
    8      C       1.0919113997     1.7664288174    -0.2153169128
    9      O       2.0459725706     1.9796693541    -1.3295798588
   10      C       3.0967050550     1.0208148110    -1.4962292503
   11      C       2.9384188789    -0.5209336765    -1.0927455508
   12      C       3.3443293243    -0.9030811781     0.3926289819
   13      C       3.6107179462     0.3479690382     1.2972850686
   14      O       3.8224458102     1.5177672464     0.9034603292
   15      O      -3.8670010164     1.6490177654    -1.5590716145
   16      O       3.5919549271    -0.0579153957     2.6655923367
   17      O       4.0918571123     1.3860948103    -2.1632208915
   18      C       3.8320349381     1.1030740000     3.5566360180
   19      C       1.5014751634    -1.1827852688    -1.2000462146
   20      C       1.6725253986    -2.7415433426    -1.3341424351
   21      C       2.1050574336    -3.1410252123     0.1281471952
   22      C       2.0845370150    -1.7423716724     0.8547275975
   23      O       0.9602773337    -1.0421381327     0.1836066606
   24      H       3.6250238915    -1.0299972401    -1.7919064706
   25      H       4.2545700372    -1.5305546158     0.4075154077
   26      H       0.7909452416    -0.7050423275    -1.9118246467
   27      H       0.7138225079    -3.2089145889    -1.6104022162
   28      H       2.4272765086    -3.0107738238    -2.0899718823
   29      H       1.3764894233    -3.8253595733     0.5915151432
   30      H       3.1020473698    -3.6080210648     0.1643270511
   31      H       1.9290043571    -1.7667138299     1.9509162325
   32      O      -0.9293929766     0.1308556075    -2.2542685700
   33      C      -3.8994076763     3.1041766687    -1.8232127849
   34      C      -3.6843035114    -0.5162255620     1.5998872667
   35      C      -3.9864833316    -2.0559628509     1.7843081597
   36      C      -2.6891706882    -2.6967960523     1.1617107356
   37      C      -1.8771023879    -1.4084517258     0.7477300675
   38      O      -2.2195098995    -0.4280843841     1.8020866592
   39      H      -4.7673266358    -0.6254675313    -0.3606499776
   40      H      -2.7803425846    -1.5453886897    -1.3140146189
   41      H      -3.0445373176     3.6215671658    -1.3416848968
   42      H      -4.2148537060     0.1677613766     2.2906173746
   43      H      -4.0857300003    -2.3030946910     2.8532854728
   44      H      -4.9064882530    -2.3659352279     1.2633901679
   45      H      -2.1302755704    -3.2817264318     1.9097268041
   46      H      -2.9088450050    -3.3472761100     0.2997924698
   47      H      -0.7687893916    -1.5058748717     0.6478072960
   48      H      -4.8400662453     3.5666449127    -1.4606046391
   49      H      -3.8288673347     3.2185925939    -2.9206128833
   50      H       2.9413508025     1.2508527392     4.1986125079
   51      H       4.0145577959     2.0088146301     2.9437985251
   52      H       4.7122223782     0.8860717586     4.1925759570
   53      H       1.4180056960     2.3863868066     0.6466305543
   54      H       1.0220136263     0.6953609295     0.1105225555
   55      H      -0.5787575995     3.2485881572    -0.3200172801
   56      H      -0.3029951795     2.2908140665    -1.8370294102
 ----------------------------------------------------------------

    9   -1510.2884026834      2.99E-09 Convergence criterion met
 Total energy in the final basis set = -1510.28840268
 Final energy is   -1510.28840268339
 **  OPTIMIZATION CONVERGED  **

                    Orbital Energies (a.u.)
 --------------------------------------------------------------

 Alpha MOs
 -- Occupied --
-18.949 -18.933 -18.927 -18.927 -18.912 -18.895 -18.878 -18.872
-18.871 -18.855 -10.115 -10.100 -10.095 -10.090 -10.081 -10.068
-10.067 -10.062 -10.061 -10.052 -10.052 -10.044 -10.041 -10.039
-10.035 -10.033 -10.032 -10.031 -10.016 -10.015  -1.026  -1.014
 -1.003  -0.999  -0.987  -0.962  -0.951  -0.936  -0.932  -0.919
 -0.776  -0.758  -0.734  -0.721  -0.718  -0.702  -0.688  -0.671
 -0.658  -0.607  -0.602  -0.579  -0.561  -0.551  -0.540  -0.532
 -0.521  -0.507  -0.489  -0.477  -0.468  -0.461  -0.455  -0.449
 -0.440  -0.428  -0.424  -0.422  -0.416  -0.411  -0.406  -0.403
 -0.392  -0.387  -0.375  -0.369  -0.363  -0.361  -0.354  -0.352
 -0.347  -0.344  -0.339  -0.333  -0.328  -0.324  -0.322  -0.316
 -0.313  -0.309  -0.305  -0.301  -0.291  -0.289  -0.284  -0.279
 -0.266  -0.262  -0.254  -0.249  -0.244  -0.230  -0.224  -0.188
 -0.178  -0.174  -0.172  -0.168  -0.156  -0.150  -0.147  -0.136
 -0.133

          Ground-State Mulliken Net Atomic Charges

     Atom                 Charge (a.u.)
  ----------------------------------------
      1 O                    -0.212082
      2 C                     0.216748
      3 C                    -0.078543
      4 C                    -0.080148
      5 C                     0.218648
      6 O                    -0.167893
      7 C                    -0.052656
      8 C                    -0.072058
      9 O                    -0.176553
     10 C                     0.213908
     11 C                    -0.087220
     12 C                    -0.080265
     13 C                     0.213275
     14 O                    -0.203570
     15 O                    -0.175592
     16 O                    -0.169652
     17 O                    -0.208900
     18 C                    -0.135868
     19 C                     0.012195
     20 C                    -0.143334
     21 C                    -0.143469
     22 C                     0.026374
     23 O                    -0.188204
     24 H                     0.088893
     25 H                     0.091138
     26 H                     0.109680
     27 H                     0.081609
     28 H                     0.079943
     29 H                     0.081034
     30 H                     0.078729
     31 H                     0.097118
     32 O                    -0.225495
     33 C                    -0.128494
     34 C                     0.024423
     35 C                    -0.144214
     36 C                    -0.145723
     37 C                     0.008139
     38 O                    -0.190392
     39 H                     0.082954
     40 H                     0.082166
     41 H                     0.087364
     42 H                     0.087806
     43 H                     0.075974
     44 H                     0.071327
     45 H                     0.073502
     46 H                     0.070263
     47 H                     0.101734
     48 H                     0.088294
     49 H                     0.090146
     50 H                     0.089891
     51 H                     0.105292
     52 H                     0.089406
     53 H                     0.078100
     54 H                     0.108289
     55 H                     0.087202
     56 H                     0.098762
  ----------------------------------------
  Sum of atomic charges =    -0.000000

                    Cartesian Multipole Moments
 -----------------------------------------------------------------
    Charge (ESU x 10^10)
                -0.0000
    Dipole Moment (Debye)
         X      -0.7625      Y      -3.8001      Z       1.8246
       Tot       4.2838
    Quadrupole Moments (Debye-Ang)
        XX    -160.2068     XY      -8.0792     YY    -154.3201
        XZ      15.8240     YZ       2.3916     ZZ    -162.7736

 Total job time:  123.85s(wall), 5907.41s(cpu)
        *  Thank you very much for using Q-Chem.  Have a nice day.  *
