 Q-Chem 5.0, Q-Chem, Inc., Pleasanton, CA (2017)
 Q-Chem 5.0.1 for Intel X86 EM64T Linux

User input:
--------------------------------------------------------------
$molecule
0  1
O -3.94934 -3.66094 2.70899
C -3.26408 -4.56952 2.26188
C -3.36658 -6.02376 2.66595
C -2.57813 -6.46456 3.91009
C -1.91791 -5.36653 4.71416
O -2.80582 -4.35137 4.92981
C -2.25208 -3.27038 5.6875
C -2.76936 -3.31452 7.12158
O -1.74603 -3.816 7.99576
C -2.17716 -4.62809 8.99264
C -3.4357 -5.38208 8.63453
C -4.68407 -4.50706 8.44966
C -4.43218 -3.02068 8.29501
O -4.29953 -2.22491 9.21355
O -2.42789 -4.29667 1.22477
O -5.12636 -2.5128 7.21003
O -1.52718 -4.80914 10.01123
C -5.31293 -1.17751 6.89833
C -3.65966 -6.45922 7.58637
C -4.68081 -7.48905 8.09793
C -5.96571 -6.6633 8.05298
C -5.45245 -5.35884 7.41726
O -4.43313 -5.83516 6.59061
H -3.56448 -5.93975 9.59227
H -5.27656 -4.5178 9.39354
H -2.69394 -6.92244 7.29678
H -4.75577 -8.29748 7.33716
H -4.4523 -7.95479 9.08072
H -6.68071 -7.17103 7.36803
H -6.45137 -6.4882 9.03698
H -6.27756 -4.79913 6.92823
O -0.72878 -5.35335 5.00949
C -2.23319 -3.03908 0.69303
C -4.77273 -6.57345 2.91815
C -4.81419 -8.05032 2.54411
C -3.92175 -8.6283 3.62328
C -3.67495 -7.37875 4.49377
O -4.85705 -6.63079 4.31315
H -2.94033 -6.56439 1.78761
H -1.72908 -7.12887 3.62967
H -1.83364 -2.35351 1.47085
H -5.57427 -6.0061 2.39732
H -5.85928 -8.3963 2.71394
H -4.51296 -8.29438 1.50261
H -4.50719 -9.39509 4.17849
H -2.96875 -9.07254 3.26309
H -3.41987 -7.75907 5.48477
H -3.18995 -2.63887 0.29462
H -1.49999 -3.10442 -0.13681
H -4.90304 -0.98307 5.88587
H -4.80643 -0.49645 7.61456
H -6.39896 -0.95249 6.89355
H -2.65853 -2.18632 7.24053
H -3.41145 -4.00812 6.74216
H -2.66424 -2.37069 5.16865
H -1.14897 -3.11956 5.62771
$end

$opt
CONSTRAINT
tors           1           2           3           4     -85.263
tors           3           4           5           6     +47.368
tors           4           5           6           7    -180.000
tors           5           6           7           8    -104.211
tors           6           7           8           9    +104.211
tors           7           8           9          10    -142.105
tors           8           9          10          11     +28.421
tors           9          10          11          12     -66.316
tors          11          12          13          14     -85.263
ENDCONSTRAINT
$end

$rem
JOBTYPE                   OPT
METHOD                    B3LYP
DFT_D                     d3_op
BASIS                     STO-3G
GEOM_OPT_MAX_CYCLES       100
GEOM_OPT_TOL_GRADIENT     300
GEOM_OPT_TOL_DISPLACEMENT 1200
GEOM_OPT_TOL_ENERGY       100
SYMMETRY                  False
THRESH                    12
SCF_CONVERGENCE           8
MAX_SUB_FILE_NUM          128
MEM_STATIC                400
MEM_TOTAL                 4000
$end
--------------------------------------------------------------

   16   -1509.9773103372      3.27E-09 Convergence criterion met
 Total energy in the final basis set = -1509.97731034
   14   -1510.0741290511      7.05E-09 Convergence criterion met
 Total energy in the final basis set = -1510.07412905
   13   -1510.1427373406      6.51E-09 Convergence criterion met
 Total energy in the final basis set = -1510.14273734
   13   -1510.1902704351      8.17E-09 Convergence criterion met
 Total energy in the final basis set = -1510.19027044
   14   -1510.2206435237      4.42E-09 Convergence criterion met
 Total energy in the final basis set = -1510.22064352
   14   -1510.2388326845      4.61E-09 Convergence criterion met
 Total energy in the final basis set = -1510.23883268
   14   -1510.2493579521      3.47E-09 Convergence criterion met
 Total energy in the final basis set = -1510.24935795
   13   -1510.2551150674      6.82E-09 Convergence criterion met
   10   -1510.2624833328      8.65E-09 Convergence criterion met
 Total energy in the final basis set = -1510.26248333
   11   -1510.2624903195      3.35E-09 Convergence criterion met
 Total energy in the final basis set = -1510.26249032
    9   -1510.2624950856      6.26E-09 Convergence criterion met
 Total energy in the final basis set = -1510.26249509
    9   -1510.2624983173      6.19E-09 Convergence criterion met
 Total energy in the final basis set = -1510.26249832
    9   -1510.2625001832      4.68E-09 Convergence criterion met
 Total energy in the final basis set = -1510.26250018
    9   -1510.2625029702      4.48E-09 Convergence criterion met
 Total energy in the final basis set = -1510.26250297

             Standard Nuclear Orientation (Angstroms)
    I     Atom           X                Y                Z
 ----------------------------------------------------------------
    1      O       2.8999371284    -1.4863246156     1.4165721378
    2      C       3.5225924699    -1.1165928195     0.3995111366
    3      C       3.7249712128     0.3452508729    -0.1387889743
    4      C       2.5490886480     0.8994193389    -1.0588292739
    5      C       1.5507412602    -0.1562302631    -1.6478642793
    6      O       1.1265256467    -1.0459405048    -0.6200231280
    7      C       0.1791964549    -2.0692032986    -1.1164968086
    8      C      -1.3176257400    -1.7931445223    -0.7087621287
    9      O      -2.0325344004    -1.2795439839    -1.8957936056
   10      C      -3.0161134179    -0.2540708986    -1.7679014475
   11      C      -3.0339555159     0.8605711049    -0.6334228428
   12      C      -3.2653250596     0.5728750061     0.9221522350
   13      C      -3.6247660397    -0.8879743530     1.3678435942
   14      O      -4.7719501103    -1.3877212197     1.3891421206
   15      O       4.1595893749    -2.0167539693    -0.5209999439
   16      O      -2.4696259639    -1.5223003511     1.9304117009
   17      O      -3.8123527294    -0.1504609712    -2.7325573304
   18      C      -2.8061844698    -2.8732471875     2.4343458113
   19      C      -1.6259072885     1.5892944013    -0.5766220224
   20      C      -1.8112829040     3.0321370402     0.0365983898
   21      C      -1.9712836034     2.6980320958     1.5665438604
   22      C      -1.9092883596     1.1236169447     1.5426452122
   23      O      -0.9080508418     0.8416913873     0.4870924205
   24      H      -3.8176843266     1.5541546899    -0.9858331787
   25      H      -4.1184921257     1.1922582677     1.2542022815
   26      H      -1.0567233380     1.5467992961    -1.5258488512
   27      H      -0.9217327206     3.6541323275    -0.1519482786
   28      H      -2.6924370178     3.5428238200    -0.3831136056
   29      H      -1.1318637802     3.1008142620     2.1554285516
   30      H      -2.9164888799     3.0731674484     1.9901165219
   31      H      -1.6118674462     0.6383045821     2.4912000687
   32      O       1.1589031577    -0.2135733592    -2.8357390957
   33      C       3.9440416398    -3.4152224189    -0.0862244829
   34      C       3.6274985379     1.3452791174     1.0864268797
   35      C       4.0481336195     2.7987905759     0.6274478418
   36      C       2.7521511886     3.2713564614    -0.1318492642
   37      C       1.8807930102     1.9582106001    -0.0665324203
   38      O       2.1640871537     1.4392394092     1.2870386276
   39      H       4.6932405924     0.3963003633    -0.6678527565
   40      H       2.9773306627     1.4226156375    -1.9324813408
   41      H       2.8646368236    -3.6657672486    -0.0388390348
   42      H       4.1208996393     0.9797863700     2.0074157641
   43      H       4.2630730126     3.4344615486     1.5009479146
   44      H       4.9372512828     2.7835514454    -0.0232546209
   45      H       2.2480841900     4.0911306648     0.4051408652
   46      H       2.9530666780     3.5957785004    -1.1651847868
   47      H       0.7903383397     2.0796369382    -0.1840501577
   48      H       4.3910576990    -3.6091554189     0.9103544973
   49      H       4.4386002676    -4.0521502746    -0.8425421784
   50      H      -2.2404435455    -3.6290683541     1.8545830298
   51      H      -3.8962115859    -3.0461599425     2.3250919798
   52      H      -2.5108147034    -2.9346284809     3.4996057333
   53      H      -1.8003341165    -2.7379245384    -0.3811922671
   54      H      -1.2997307319    -1.0451434673     0.1175300140
   55      H       0.5096863006    -3.0286748077    -0.6681133871
   56      H       0.2498724686    -2.1296959251    -2.2253537253
 ----------------------------------------------------------------

    9   -1510.2625014291      2.39E-09 Convergence criterion met
 Total energy in the final basis set = -1510.26250143
 Final energy is   -1510.26250142910
 **  OPTIMIZATION CONVERGED  **

                    Orbital Energies (a.u.)
 --------------------------------------------------------------

 Alpha MOs
 -- Occupied --
-18.944 -18.933 -18.926 -18.923 -18.908 -18.887 -18.884 -18.870
-18.868 -18.865 -10.110 -10.097 -10.097 -10.092 -10.070 -10.069
-10.066 -10.066 -10.061 -10.059 -10.056 -10.054 -10.048 -10.043
-10.035 -10.034 -10.030 -10.028 -10.019 -10.018  -1.021  -1.012
 -1.002  -0.999  -0.986  -0.967  -0.946  -0.935  -0.928  -0.926
 -0.770  -0.759  -0.729  -0.723  -0.717  -0.707  -0.696  -0.667
 -0.660  -0.609  -0.604  -0.583  -0.553  -0.548  -0.541  -0.536
 -0.524  -0.510  -0.491  -0.479  -0.470  -0.459  -0.448  -0.442
 -0.437  -0.431  -0.427  -0.420  -0.416  -0.411  -0.408  -0.404
 -0.397  -0.381  -0.376  -0.366  -0.364  -0.357  -0.355  -0.353
 -0.345  -0.341  -0.337  -0.332  -0.327  -0.325  -0.321  -0.317
 -0.315  -0.308  -0.306  -0.305  -0.299  -0.287  -0.284  -0.279
 -0.268  -0.259  -0.250  -0.248  -0.237  -0.230  -0.228  -0.183
 -0.179  -0.170  -0.169  -0.161  -0.155  -0.153  -0.144  -0.140
 -0.139

          Ground-State Mulliken Net Atomic Charges

     Atom                 Charge (a.u.)
  ----------------------------------------
      1 O                    -0.206878
      2 C                     0.213023
      3 C                    -0.078072
      4 C                    -0.079467
      5 C                     0.207610
      6 O                    -0.166831
      7 C                    -0.050519
      8 C                    -0.060631
      9 O                    -0.177823
     10 C                     0.204104
     11 C                    -0.084106
     12 C                    -0.083233
     13 C                     0.206660
     14 O                    -0.208808
     15 O                    -0.174091
     16 O                    -0.169930
     17 O                    -0.202417
     18 C                    -0.135803
     19 C                     0.018327
     20 C                    -0.144471
     21 C                    -0.143564
     22 C                     0.025336
     23 O                    -0.183040
     24 H                     0.091718
     25 H                     0.089160
     26 H                     0.087405
     27 H                     0.078584
     28 H                     0.078218
     29 H                     0.083382
     30 H                     0.076311
     31 H                     0.097498
     32 O                    -0.215482
     33 C                    -0.128387
     34 C                     0.025690
     35 C                    -0.145490
     36 C                    -0.143676
     37 C                     0.022898
     38 O                    -0.183552
     39 H                     0.084013
     40 H                     0.083716
     41 H                     0.085495
     42 H                     0.083651
     43 H                     0.076690
     44 H                     0.072993
     45 H                     0.074687
     46 H                     0.073089
     47 H                     0.089675
     48 H                     0.086834
     49 H                     0.088667
     50 H                     0.085404
     51 H                     0.104223
     52 H                     0.089716
     53 H                     0.078483
     54 H                     0.116926
     55 H                     0.082904
     56 H                     0.103178
  ----------------------------------------
  Sum of atomic charges =     0.000000

                    Cartesian Multipole Moments
 -----------------------------------------------------------------
    Charge (ESU x 10^10)
                 0.0000
    Dipole Moment (Debye)
         X       2.0348      Y       1.2140      Z       2.7496
       Tot       3.6297
    Quadrupole Moments (Debye-Ang)
        XX    -163.7425     XY      -4.0636     YY    -141.7640
        XZ     -11.7230     YZ      -3.0096     ZZ    -172.7268

 Total job time:  116.80s(wall), 5574.67s(cpu)
        *  Thank you very much for using Q-Chem.  Have a nice day.  *
