 Q-Chem 5.0, Q-Chem, Inc., Pleasanton, CA (2017)
 Q-Chem 5.0.1 for Intel X86 EM64T Linux

User input:
--------------------------------------------------------------
$molecule
0  1
O -2.4451420238 0.2516502561 1.6982595799
C -3.3464519687 0.8246204785 1.0447562741
C -4.2641866893 0.2062006885 -0.0587074251
C -3.4927994119 -0.6477068677 -1.1545856254
C -1.9166966393 -0.5800740706 -1.094730151
O -1.4019121067 0.5744550068 -1.8239537236
C -0.9579087253 1.6709196127 -0.943586933
C -0.0401715836 1.2400060951 0.2558972898
O 1.0049203604 0.3443301372 -0.2876679203
C 1.5940046275 -0.4240163483 0.7655041872
C 2.9801791098 -0.988394584 0.2919953054
C 3.802363314 -0.1868036064 -0.7890596459
C 3.6468255445 1.3827055513 -0.7301166705
O 2.8600872498 2.0910869461 -0.0695215408
O -3.7194940223 2.1955976266 1.2306655273
O 4.6086457529 1.927397597 -1.6475723055
O 1.0928980609 -0.5789431307 1.9001555584
C 4.5230716143 3.4047091155 -1.6510058503
C 4.0675116097 -1.2134394669 1.4314290348
C 4.8569115912 -2.5200547872 1.0421283161
C 5.5939883285 -2.0242436324 -0.2591438083
C 5.2687311193 -0.4767237172 -0.238849861
O 5.0827720045 -0.1571420304 1.20092999
H 2.7456314797 -1.9757152044 -0.152131494
H 3.6280178408 -0.546032524 -1.8187973002
H 3.6685236177 -1.1679037142 2.463627483
H 5.576714794 -2.784092474 1.8337711054
H 4.1934456526 -3.380682915 0.8607282382
H 6.6808218933 -2.1931454931 -0.2035656765
H 5.2091379645 -2.5080095483 -1.1715133478
H 6.0436951308 0.1758922891 -0.6853016033
O -1.1765766094 -1.4599066143 -0.6112959794
C -2.9147826551 2.8019974402 2.3184912435
C -5.1911170977 -0.9234991907 0.5795562247
C -6.3143376579 -1.303723946 -0.4661234322
C -5.5039985972 -2.2035920152 -1.4716409749
C -4.0534093912 -2.1038323677 -0.8600196786
O -4.3016134982 -2.1032691045 0.6005642757
H -4.8560973905 1.0178188408 -0.5167052609
H -3.7866482808 -0.3001505728 -2.1621953648
H -1.8400812859 2.8564094602 2.0505705279
H -5.5552537922 -0.6913659671 1.5992894337
H -7.1235784273 -1.8677506025 0.0242062362
H -6.7459760785 -0.4116988959 -0.9475324637
H -5.8570879551 -3.2471052551 -1.4503282518
H -5.5502934136 -1.8356591269 -2.5090510805
H -3.3568228621 -2.9207793553 -1.130513068
H -3.0124467196 2.2313761528 3.2640403487
H -3.3113722936 3.8245084073 2.456264773
H 5.2722677681 3.7523666022 -2.3860680253
H 4.7571249495 3.8308028947 -0.6538837721
H 3.5154803782 3.7559067436 -1.9543956511
H 0.4370600467 2.1430401771 0.6964570855
H -0.6434665589 0.7244664287 1.0391209917
H -1.8325503084 2.2314683729 -0.5355181958
H -0.3971938971 2.3555362265 -1.6133686231
$end

$rem
JOBTYPE                   OPT
METHOD                    B3LYP
DFT_D                     d3_op
BASIS                     STO-3G
GEOM_OPT_MAX_CYCLES       100
GEOM_OPT_TOL_GRADIENT     300
GEOM_OPT_TOL_DISPLACEMENT 1200
GEOM_OPT_TOL_ENERGY       100
SYMMETRY                  False
THRESH                    12
SCF_CONVERGENCE           8
MAX_SUB_FILE_NUM          128
MEM_STATIC                400
MEM_TOTAL                 4000
$end
--------------------------------------------------------------

   16   -1510.2553323619      5.39E-09 Convergence criterion met
 Total energy in the final basis set = -1510.25533236
   14   -1510.2583881913      3.80E-09 Convergence criterion met
 Total energy in the final basis set = -1510.25838819
   13   -1510.2613464571      7.80E-09 Convergence criterion met
 Total energy in the final basis set = -1510.26134646
   13   -1510.2636775316      5.80E-09 Convergence criterion met
 Total energy in the final basis set = -1510.26367753
   13   -1510.2659976560      6.18E-09 Convergence criterion met
 Total energy in the final basis set = -1510.26599766
   13   -1510.2683612201      9.16E-09 Convergence criterion met
 Total energy in the final basis set = -1510.26836122
   14   -1510.2708137243      5.25E-09 Convergence criterion met
 Total energy in the final basis set = -1510.27081372
   14   -1510.2733251219      6.13E-09 Convergence criterion met
   11   -1510.2919233896      9.56E-09 Convergence criterion met
 Total energy in the final basis set = -1510.29192339
   11   -1510.2919496293      4.38E-09 Convergence criterion met
 Total energy in the final basis set = -1510.29194963
   10   -1510.2919477411      5.01E-09 Convergence criterion met
 Total energy in the final basis set = -1510.29194774
   10   -1510.2919456032      2.62E-09 Convergence criterion met
 Total energy in the final basis set = -1510.29194560
   10   -1510.2919470926      2.08E-09 Convergence criterion met
 Total energy in the final basis set = -1510.29194709
    9   -1510.2919487983      8.95E-09 Convergence criterion met
 Total energy in the final basis set = -1510.29194880

             Standard Nuclear Orientation (Angstroms)
    I     Atom           X                Y                Z
 ----------------------------------------------------------------
    1      O      -3.9158947558     2.2130996301     0.4593904759
    2      C      -4.1893311677     1.1849271962    -0.1995611792
    3      C      -3.4640515789    -0.1997848180    -0.1376061821
    4      C      -2.1241328708    -0.1411343697     0.6972892916
    5      C      -1.6698635735     1.2944148081     1.1501597407
    6      O      -1.1942296657     1.9911766263    -0.0183302187
    7      C      -0.5423155300     3.2583764580     0.3779637775
    8      C       0.9407102013     2.9899676911     0.8375343263
    9      O       1.6670265437     2.2370881515    -0.2121677674
   10      C       1.5347373001     0.8252462175     0.0100320876
   11      C       2.1690141705     0.0766789321    -1.2220740069
   12      C       3.7226955473    -0.1983011696    -1.1085305373
   13      C       4.3396009076     0.3312297450     0.2288827982
   14      O       3.7400079049     0.9067852228     1.1647170426
   15      O      -5.2728135013     1.0915976791    -1.1279263758
   16      O       5.7384407278     0.0419787763     0.2316648264
   17      O       0.9132366728     0.3007525694     0.9597478887
   18      C       6.3499927877     0.5081063085     1.4985231709
   19      C       1.6101574390    -1.4039366382    -1.3202406110
   20      C       1.9159913564    -1.9622043322    -2.7652539588
   21      C       3.4637896196    -2.2297051124    -2.6645054576
   22      C       3.7533373653    -1.7886019610    -1.1757081785
   23      O       2.5253195262    -2.1777627251    -0.4483013913
   24      H       1.9425362834     0.6641793782    -2.1295239297
   25      H       4.2815233021     0.2457919900    -1.9521518466
   26      H       0.5646707268    -1.5177335074    -0.9738942741
   27      H       1.3568768571    -2.8942291848    -2.9456642237
   28      H       1.6589553918    -1.2369729690    -3.5536818508
   29      H       3.7003987041    -3.2968672729    -2.8012917228
   30      H       4.0461763016    -1.6419534567    -3.3919596852
   31      H       4.6490554757    -2.2443891045    -0.7104621042
   32      O      -1.6037370390     1.7395840540     2.3142058124
   33      C      -6.0129409802     2.3742713117    -1.1746228069
   34      C      -4.3073622776    -1.2282681743     0.7370215243
   35      C      -3.6838082575    -2.6706627037     0.5625612414
   36      C      -2.4000946332    -2.5620250650     1.4685044179
   37      C      -2.4912143688    -1.0581656079     1.9361801027
   38      O      -3.9477787849    -0.8475751452     2.1199031159
   39      H      -3.3069459599    -0.5715472561    -1.1658434220
   40      H      -1.2862314421    -0.5746670626     0.1229426041
   41      H      -5.3700351273     3.2022771053    -1.5371924670
   42      H      -5.4021642159    -1.1648904524     0.5817915395
   43      H      -4.3808093789    -3.4384730925     0.9343724116
   44      H      -3.4449633645    -2.8915980536    -0.4900871705
   45      H      -2.4611626295    -3.2397720647     2.3348337598
   46      H      -1.4677138058    -2.7713114427     0.9200718702
   47      H      -1.9428082944    -0.8017793409     2.8630993978
   48      H      -6.4138745594     2.6506928611    -0.1781221104
   49      H      -6.8490185842     2.2186844368    -1.8809467687
   50      H       7.4221994966     0.2471410598     1.4330700911
   51      H       5.8970030096     0.0061814795     2.3778232330
   52      H       6.2407021289     1.6047799936     1.6237648585
   53      H       1.4762855245     3.9509719316     0.9754477699
   54      H       0.9345128057     2.4167665115     1.7882539397
   55      H      -1.0987368740     3.7549929625     1.2020503785
   56      H      -0.5525279066     3.9016882175    -0.5245369525
 ----------------------------------------------------------------

    9   -1510.2919491703      6.06E-09 Convergence criterion met
 Total energy in the final basis set = -1510.29194917
 Final energy is   -1510.29194917032
 **  OPTIMIZATION CONVERGED  **

                    Orbital Energies (a.u.)
 --------------------------------------------------------------

 Alpha MOs
 -- Occupied --
-18.942 -18.936 -18.918 -18.910 -18.889 -18.886 -18.879 -18.879
-18.858 -18.856 -10.105 -10.099 -10.091 -10.085 -10.069 -10.065
-10.062 -10.059 -10.059 -10.057 -10.055 -10.047 -10.041 -10.034
-10.033 -10.024 -10.022 -10.021 -10.015 -10.011  -1.019  -1.013
 -1.002  -0.987  -0.972  -0.963  -0.943  -0.936  -0.926  -0.917
 -0.763  -0.756  -0.724  -0.717  -0.710  -0.701  -0.689  -0.666
 -0.662  -0.611  -0.593  -0.575  -0.546  -0.539  -0.536  -0.528
 -0.511  -0.503  -0.478  -0.469  -0.462  -0.454  -0.446  -0.445
 -0.434  -0.424  -0.421  -0.415  -0.411  -0.410  -0.407  -0.404
 -0.387  -0.378  -0.372  -0.365  -0.357  -0.353  -0.350  -0.342
 -0.338  -0.337  -0.333  -0.328  -0.325  -0.322  -0.317  -0.314
 -0.306  -0.304  -0.300  -0.296  -0.293  -0.278  -0.274  -0.271
 -0.266  -0.258  -0.252  -0.240  -0.236  -0.233  -0.227  -0.185
 -0.179  -0.173  -0.159  -0.153  -0.149  -0.146  -0.141  -0.138
 -0.135

          Ground-State Mulliken Net Atomic Charges

     Atom                 Charge (a.u.)
  ----------------------------------------
      1 O                    -0.206047
      2 C                     0.214346
      3 C                    -0.078612
      4 C                    -0.078978
      5 C                     0.224711
      6 O                    -0.183289
      7 C                    -0.050934
      8 C                    -0.053761
      9 O                    -0.176954
     10 C                     0.219848
     11 C                    -0.081231
     12 C                    -0.078221
     13 C                     0.214287
     14 O                    -0.204138
     15 O                    -0.170325
     16 O                    -0.169549
     17 O                    -0.221954
     18 C                    -0.128217
     19 C                     0.026341
     20 C                    -0.144319
     21 C                    -0.143638
     22 C                     0.025201
     23 O                    -0.188932
     24 H                     0.084793
     25 H                     0.086810
     26 H                     0.082257
     27 H                     0.077217
     28 H                     0.073823
     29 H                     0.078260
     30 H                     0.073943
     31 H                     0.086213
     32 O                    -0.215440
     33 C                    -0.128429
     34 C                     0.025001
     35 C                    -0.144292
     36 C                    -0.143214
     37 C                     0.026108
     38 O                    -0.190917
     39 H                     0.084942
     40 H                     0.085533
     41 H                     0.089319
     42 H                     0.082720
     43 H                     0.076893
     44 H                     0.071757
     45 H                     0.077497
     46 H                     0.075201
     47 H                     0.093486
     48 H                     0.091238
     49 H                     0.090606
     50 H                     0.091865
     51 H                     0.092280
     52 H                     0.090670
     53 H                     0.085399
     54 H                     0.102807
     55 H                     0.096036
     56 H                     0.083983
  ----------------------------------------
  Sum of atomic charges =     0.000000

                    Cartesian Multipole Moments
 -----------------------------------------------------------------
    Charge (ESU x 10^10)
                -0.0000
    Dipole Moment (Debye)
         X       1.7314      Y      -0.2253      Z      -3.9188
       Tot       4.2901
    Quadrupole Moments (Debye-Ang)
        XX    -139.2472     XY       1.2906     YY    -153.8600
        XZ       8.6794     YZ      -1.3009     ZZ    -162.5373

 Total job time:  129.28s(wall), 6169.81s(cpu)
        *  Thank you very much for using Q-Chem.  Have a nice day.  *
