 Q-Chem 5.0, Q-Chem, Inc., Pleasanton, CA (2017)
 Q-Chem 5.0.1 for Intel X86 EM64T Linux

User input:
--------------------------------------------------------------
$molecule
0  1
O -3.94934 -3.66094 2.70899
C -3.26408 -4.56952 2.26188
C -3.36658 -6.02376 2.66595
C -3.41669 -6.33291 4.1712
C -3.53792 -5.14515 5.09996
O -2.29942 -4.63188 5.36093
C -2.03163 -3.41833 4.65041
C -3.21138 -2.46076 4.78225
O -3.62456 -2.37938 6.1554
C -4.87612 -1.89897 6.36025
C -5.09496 -1.41031 7.77233
C -3.8334 -0.89903 8.4832
C -2.64082 -0.61722 7.59155
O -2.55395 -0.91478 6.40898
O -2.31735 -4.27605 1.33026
O -1.56717 -0.04278 8.19585
O -5.63361 -1.53497 5.46446
C -0.38592 0.26253 7.55281
C -6.00861 -0.17024 7.89903
C -6.6078 -0.11504 9.30365
C -5.38647 0.25596 10.11796
C -4.35991 0.45443 8.99767
O -5.12212 0.92017 7.91061
H -5.5617 -2.25991 8.31899
H -3.4867 -1.57338 9.29678
H -6.82404 -0.13121 7.145
H -7.31841 0.74252 9.32086
H -7.13753 -1.0344 9.63384
H -5.59149 1.21754 10.63904
H -5.05048 -0.51091 10.84919
H -3.54556 1.12914 9.342
O -4.50091 -4.93213 5.82385
C -2.11069 -3.01933 0.7991
C -4.72312 -6.60615 2.21861
C -4.6233 -8.12488 2.0916
C -4.54532 -8.52126 3.54902
C -4.7253 -7.15284 4.21658
O -5.56182 -6.44883 3.33457
H -2.55697 -6.58008 2.14083
H -2.55909 -6.95206 4.5187
H -1.83894 -2.29904 1.59965
H -5.09349 -6.16914 1.26474
H -5.59326 -8.48359 1.67811
H -3.79325 -8.49542 1.4524
H -5.40925 -9.18407 3.77861
H -3.59719 -9.01144 3.85918
H -5.11004 -7.29082 5.25108
H -3.02796 -2.6698 0.27892
H -1.28011 -3.06686 0.06548
H 0.31582 0.72122 8.27915
H -0.57408 0.98581 6.7307
H 0.07606 -0.66084 7.1422
H -2.98293 -1.48377 4.29504
H -4.14815 -2.70049 4.38257
H -1.61781 -3.58592 3.64956
H -1.17273 -2.93881 5.16521
$end

$opt
CONSTRAINT
tors           1           2           3           4     -47.368
tors           3           4           5           6     -85.263
tors           4           5           6           7    +104.211
tors           5           6           7           8     +47.368
tors           6           7           8           9     +47.368
tors           7           8           9          10    -161.053
tors           8           9          10          11    -161.053
tors           9          10          11          12     +28.421
tors          11          12          13          14      -9.474
ENDCONSTRAINT
$end

$rem
JOBTYPE                   OPT
METHOD                    B3LYP
DFT_D                     d3_op
BASIS                     STO-3G
GEOM_OPT_MAX_CYCLES       100
GEOM_OPT_TOL_GRADIENT     300
GEOM_OPT_TOL_DISPLACEMENT 1200
GEOM_OPT_TOL_ENERGY       100
SYMMETRY                  False
THRESH                    12
SCF_CONVERGENCE           8
MAX_SUB_FILE_NUM          128
MEM_STATIC                400
MEM_TOTAL                 4000
$end
--------------------------------------------------------------

   16   -1510.0356256825      4.06E-09 Convergence criterion met
 Total energy in the final basis set = -1510.03562568
   14   -1510.1212553829      7.61E-09 Convergence criterion met
 Total energy in the final basis set = -1510.12125538
   14   -1510.1745635145      8.49E-09 Convergence criterion met
 Total energy in the final basis set = -1510.17456351
   14   -1510.2100449772      5.65E-09 Convergence criterion met
 Total energy in the final basis set = -1510.21004498
   14   -1510.2296423564      3.85E-09 Convergence criterion met
 Total energy in the final basis set = -1510.22964236
   14   -1510.2406103043      2.39E-09 Convergence criterion met
 Total energy in the final basis set = -1510.24061030
   14   -1510.2471072879      1.80E-09 Convergence criterion met
 Total energy in the final basis set = -1510.24710729
   13   -1510.2509191655      7.48E-09 Convergence criterion met
   10   -1510.2551864892      5.75E-09 Convergence criterion met
 Total energy in the final basis set = -1510.25518649
   11   -1510.2551936489      1.53E-09 Convergence criterion met
 Total energy in the final basis set = -1510.25519365
    9   -1510.2552053356      9.35E-09 Convergence criterion met
 Total energy in the final basis set = -1510.25520534
    9   -1510.2552094442      9.84E-09 Convergence criterion met
 Total energy in the final basis set = -1510.25520944
    9   -1510.2552121278      8.65E-09 Convergence criterion met
 Total energy in the final basis set = -1510.25521213
    9   -1510.2552134701      4.20E-09 Convergence criterion met
 Total energy in the final basis set = -1510.25521347

             Standard Nuclear Orientation (Angstroms)
    I     Atom           X                Y                Z
 ----------------------------------------------------------------
    1      O      -2.4451420238     0.2516502561     1.6982595799
    2      C      -3.3464519687     0.8246204785     1.0447562741
    3      C      -4.2641866893     0.2062006885    -0.0587074251
    4      C      -3.4927994119    -0.6477068677    -1.1545856254
    5      C      -1.9166966393    -0.5800740706    -1.0947301510
    6      O      -1.4019121067     0.5744550068    -1.8239537236
    7      C      -0.9579087253     1.6709196127    -0.9435869330
    8      C      -0.0401715836     1.2400060951     0.2558972898
    9      O       1.0049203604     0.3443301372    -0.2876679203
   10      C       1.5940046275    -0.4240163483     0.7655041872
   11      C       2.9801791098    -0.9883945840     0.2919953054
   12      C       3.8023633140    -0.1868036064    -0.7890596459
   13      C       3.6468255445     1.3827055513    -0.7301166705
   14      O       2.8600872498     2.0910869461    -0.0695215408
   15      O      -3.7194940223     2.1955976266     1.2306655273
   16      O       4.6086457529     1.9273975970    -1.6475723055
   17      O       1.0928980609    -0.5789431307     1.9001555584
   18      C       4.5230716143     3.4047091155    -1.6510058503
   19      C       4.0675116097    -1.2134394669     1.4314290348
   20      C       4.8569115912    -2.5200547872     1.0421283161
   21      C       5.5939883285    -2.0242436324    -0.2591438083
   22      C       5.2687311193    -0.4767237172    -0.2388498610
   23      O       5.0827720045    -0.1571420304     1.2009299900
   24      H       2.7456314797    -1.9757152044    -0.1521314940
   25      H       3.6280178408    -0.5460325240    -1.8187973002
   26      H       3.6685236177    -1.1679037142     2.4636274830
   27      H       5.5767147940    -2.7840924740     1.8337711054
   28      H       4.1934456526    -3.3806829150     0.8607282382
   29      H       6.6808218933    -2.1931454931    -0.2035656765
   30      H       5.2091379645    -2.5080095483    -1.1715133478
   31      H       6.0436951308     0.1758922891    -0.6853016033
   32      O      -1.1765766094    -1.4599066143    -0.6112959794
   33      C      -2.9147826551     2.8019974402     2.3184912435
   34      C      -5.1911170977    -0.9234991907     0.5795562247
   35      C      -6.3143376579    -1.3037239460    -0.4661234322
   36      C      -5.5039985972    -2.2035920152    -1.4716409749
   37      C      -4.0534093912    -2.1038323677    -0.8600196786
   38      O      -4.3016134982    -2.1032691045     0.6005642757
   39      H      -4.8560973905     1.0178188408    -0.5167052609
   40      H      -3.7866482808    -0.3001505728    -2.1621953648
   41      H      -1.8400812859     2.8564094602     2.0505705279
   42      H      -5.5552537922    -0.6913659671     1.5992894337
   43      H      -7.1235784273    -1.8677506025     0.0242062362
   44      H      -6.7459760785    -0.4116988959    -0.9475324637
   45      H      -5.8570879551    -3.2471052551    -1.4503282518
   46      H      -5.5502934136    -1.8356591269    -2.5090510805
   47      H      -3.3568228621    -2.9207793553    -1.1305130680
   48      H      -3.0124467196     2.2313761528     3.2640403487
   49      H      -3.3113722936     3.8245084073     2.4562647730
   50      H       5.2722677681     3.7523666022    -2.3860680253
   51      H       4.7571249495     3.8308028947    -0.6538837721
   52      H       3.5154803782     3.7559067436    -1.9543956511
   53      H       0.4370600467     2.1430401771     0.6964570855
   54      H      -0.6434665589     0.7244664287     1.0391209917
   55      H      -1.8325503084     2.2314683729    -0.5355181958
   56      H      -0.3971938971     2.3555362265    -1.6133686231
 ----------------------------------------------------------------

    9   -1510.2552142321      2.13E-09 Convergence criterion met
 Total energy in the final basis set = -1510.25521423
 Final energy is   -1510.25521423208
 **  OPTIMIZATION CONVERGED  **

                    Orbital Energies (a.u.)
 --------------------------------------------------------------

 Alpha MOs
 -- Occupied --
-18.944 -18.926 -18.914 -18.902 -18.896 -18.891 -18.886 -18.878
-18.871 -18.859 -10.107 -10.104 -10.094 -10.086 -10.070 -10.068
-10.064 -10.061 -10.059 -10.052 -10.051 -10.051 -10.044 -10.037
-10.033 -10.025 -10.023 -10.021 -10.015 -10.013  -1.020  -1.007
 -1.003  -0.991  -0.972  -0.963  -0.944  -0.934  -0.930  -0.918
 -0.765  -0.755  -0.725  -0.718  -0.709  -0.702  -0.691  -0.670
 -0.657  -0.609  -0.595  -0.578  -0.549  -0.540  -0.534  -0.530
 -0.515  -0.504  -0.474  -0.471  -0.459  -0.455  -0.448  -0.444
 -0.435  -0.430  -0.424  -0.418  -0.415  -0.408  -0.403  -0.398
 -0.393  -0.377  -0.369  -0.367  -0.360  -0.352  -0.351  -0.346
 -0.344  -0.336  -0.335  -0.330  -0.328  -0.324  -0.314  -0.311
 -0.307  -0.306  -0.304  -0.301  -0.292  -0.282  -0.277  -0.274
 -0.265  -0.262  -0.249  -0.240  -0.236  -0.229  -0.226  -0.186
 -0.173  -0.164  -0.162  -0.154  -0.151  -0.145  -0.143  -0.138
 -0.135

          Ground-State Mulliken Net Atomic Charges

     Atom                 Charge (a.u.)
  ----------------------------------------
      1 O                    -0.205742
      2 C                     0.205738
      3 C                    -0.079856
      4 C                    -0.082585
      5 C                     0.220348
      6 O                    -0.198163
      7 C                    -0.046656
      8 C                    -0.062508
      9 O                    -0.171196
     10 C                     0.218269
     11 C                    -0.081337
     12 C                    -0.073644
     13 C                     0.217239
     14 O                    -0.213051
     15 O                    -0.169495
     16 O                    -0.174817
     17 O                    -0.211534
     18 C                    -0.128322
     19 C                     0.023256
     20 C                    -0.140900
     21 C                    -0.146051
     22 C                     0.022262
     23 O                    -0.194576
     24 H                     0.083995
     25 H                     0.088223
     26 H                     0.090413
     27 H                     0.076763
     28 H                     0.074456
     29 H                     0.077017
     30 H                     0.073295
     31 H                     0.086307
     32 O                    -0.171248
     33 C                    -0.130648
     34 C                     0.026853
     35 C                    -0.144156
     36 C                    -0.143455
     37 C                     0.025066
     38 O                    -0.184045
     39 H                     0.087443
     40 H                     0.085256
     41 H                     0.089178
     42 H                     0.083305
     43 H                     0.078927
     44 H                     0.073879
     45 H                     0.078872
     46 H                     0.073952
     47 H                     0.089277
     48 H                     0.093898
     49 H                     0.092425
     50 H                     0.088800
     51 H                     0.088471
     52 H                     0.086808
     53 H                     0.086559
     54 H                     0.106022
     55 H                     0.072573
     56 H                     0.088839
  ----------------------------------------
  Sum of atomic charges =     0.000000

                    Cartesian Multipole Moments
 -----------------------------------------------------------------
    Charge (ESU x 10^10)
                 0.0000
    Dipole Moment (Debye)
         X      -1.9237      Y       1.8929      Z      -2.2304
       Tot       3.5012
    Quadrupole Moments (Debye-Ang)
        XX    -139.8432     XY      -4.9850     YY    -150.8716
        XZ      -3.2680     YZ       4.7083     ZZ    -161.6135

 Total job time:  69.92s(wall), 3327.70s(cpu)
        *  Thank you very much for using Q-Chem.  Have a nice day.  *
