 Q-Chem 5.0, Q-Chem, Inc., Pleasanton, CA (2017)
 Q-Chem 5.0.1 for Intel X86 EM64T Linux

User input:
--------------------------------------------------------------
$molecule
0  1
O -3.94934 -3.66094 2.70899
C -3.26408 -4.56952 2.26188
C -3.36658 -6.02376 2.66595
C -3.85957 -6.32399 4.09097
C -4.36389 -5.14454 4.89263
O -4.76543 -5.56188 6.12957
C -3.68727 -6.04332 6.93891
C -4.09413 -6.04636 8.4088
O -3.94877 -7.36711 8.95412
C -4.78822 -8.30332 8.44621
C -4.31377 -9.71546 8.69403
C -3.31939 -10.2558 7.65599
C -2.6806 -9.22096 6.75169
O -2.72333 -9.22422 5.52992
O -2.23079 -4.25865 1.43591
O -1.786 -8.38919 7.36003
O -5.87919 -8.04407 7.95433
C -0.77564 -7.70635 6.7114
C -3.52201 -9.95515 9.99703
C -3.63911 -11.42379 10.40459
C -2.79634 -12.08617 9.33046
C -2.25727 -10.85014 8.60027
O -2.171 -9.87208 9.61166
H -5.23267 -10.34532 8.71984
H -3.79513 -11.01159 6.99199
H -3.83956 -9.29386 10.83236
H -3.11525 -11.52961 11.38178
H -4.6744 -11.81528 10.50316
H -1.97195 -12.64467 9.8267
H -3.35002 -12.75689 8.63821
H -1.31116 -11.08756 8.06561
O -3.70577 -4.11611 4.95025
C -1.94261 -2.98312 0.99762
C -4.53916 -6.62304 1.84731
C -4.38079 -8.1332 1.72906
C -4.7638 -8.54714 3.12534
C -5.09907 -7.18995 3.75616
O -5.66376 -6.48639 2.68074
H -2.43281 -6.55291 2.36736
H -3.04433 -6.85826 4.60184
H -1.71984 -2.32193 1.86224
H -4.63262 -6.18518 0.82768
H -5.14801 -8.51779 1.01941
H -3.37083 -8.45497 1.39455
H -5.69962 -9.1472 3.06223
H -4.00169 -9.1452 3.63878
H -5.76591 -7.34513 4.63303
H -2.80058 -2.57373 0.42249
H -1.05297 -3.01807 0.33595
H -0.21489 -7.10035 7.4519
H -1.17923 -7.03155 5.93254
H -0.07664 -8.42862 6.23895
H -3.44122 -5.34464 8.97025
H -5.13951 -5.6888 8.54873
H -2.74639 -5.45768 6.8225
H -3.54808 -7.05003 6.61303
$end

$opt
CONSTRAINT
tors           1           2           3           4     -28.421
tors           3           4           5           6    -180.000
tors           4           5           6           7     +66.316
tors           5           6           7           8    +161.053
tors           6           7           8           9    +123.158
tors           7           8           9          10     -66.316
tors           8           9          10          11    +161.053
tors           9          10          11          12     -85.263
tors          11          12          13          14    -123.158
ENDCONSTRAINT
$end

$rem
JOBTYPE                   OPT
METHOD                    B3LYP
DFT_D                     d3_op
BASIS                     STO-3G
GEOM_OPT_MAX_CYCLES       100
GEOM_OPT_TOL_GRADIENT     300
GEOM_OPT_TOL_DISPLACEMENT 1200
GEOM_OPT_TOL_ENERGY       100
SYMMETRY                  False
THRESH                    12
SCF_CONVERGENCE           8
MAX_SUB_FILE_NUM          128
MEM_STATIC                400
MEM_TOTAL                 4000
$end
--------------------------------------------------------------

   16   -1510.0686652863      3.99E-09 Convergence criterion met
 Total energy in the final basis set = -1510.06866529
   15   -1510.1462612283      2.48E-09 Convergence criterion met
 Total energy in the final basis set = -1510.14626123
   15   -1510.1898057505      3.33E-09 Convergence criterion met
 Total energy in the final basis set = -1510.18980575
   15   -1510.2144853100      4.56E-09 Convergence criterion met
 Total energy in the final basis set = -1510.21448531
   14   -1510.2294799598      4.51E-09 Convergence criterion met
 Total energy in the final basis set = -1510.22947996
   13   -1510.2378572935      7.37E-09 Convergence criterion met
 Total energy in the final basis set = -1510.23785729
   13   -1510.2433547254      9.44E-09 Convergence criterion met
 Total energy in the final basis set = -1510.24335473
   13   -1510.2471022572      9.08E-09 Convergence criterion met
   11   -1510.2542204931      3.87E-09 Convergence criterion met
 Total energy in the final basis set = -1510.25422049
   11   -1510.2542348704      4.51E-09 Convergence criterion met
 Total energy in the final basis set = -1510.25423487
    9   -1510.2542407822      7.78E-09 Convergence criterion met
 Total energy in the final basis set = -1510.25424078
    9   -1510.2542441893      7.93E-09 Convergence criterion met
 Total energy in the final basis set = -1510.25424419
   10   -1510.2542462927      5.28E-09 Convergence criterion met
 Total energy in the final basis set = -1510.25424629
    9   -1510.2542475148      9.67E-09 Convergence criterion met
 Total energy in the final basis set = -1510.25424751

             Standard Nuclear Orientation (Angstroms)
    I     Atom           X                Y                Z
 ----------------------------------------------------------------
    1      O       5.2270247074    -0.9137799132     0.8972717667
    2      C       4.9856942370    -0.1997069731    -0.0967871625
    3      C       3.6657952840     0.5585731746    -0.4817315504
    4      C       2.3034218536    -0.0570679259     0.0314337325
    5      C       2.2426851294    -1.5734977586     0.4604415931
    6      O       0.9031917522    -1.9576737908     0.9046749901
    7      C      -0.0621118263    -1.9042286172    -0.2138842019
    8      C      -1.2943015461    -2.7847091219     0.2380481647
    9      O      -2.5778745143    -2.0378247422     0.2215194377
   10      C      -2.5540276445    -1.0072649747     1.2163049676
   11      C      -3.6473720883     0.0748934748     0.9158014702
   12      C      -3.2269533187     1.2291273893    -0.0957045469
   13      C      -2.0517398908     0.8998571676    -1.0803526214
   14      O      -0.9750730959     1.5321752910    -1.2131339423
   15      O       5.9514016754     0.0938853056    -1.1210815069
   16      O      -2.4255678109    -0.1986816130    -1.9124822376
   17      O      -1.7284488301    -0.9578375067     2.1552332376
   18      C      -1.4210487215    -0.4237886212    -2.9800565441
   19      C      -5.0243158349    -0.4149910640     0.2835682985
   20      C      -6.1349923076     0.5886802578     0.7853881100
   21      C      -5.7377877471     1.8843781453    -0.0178558591
   22      C      -4.5754217074     1.3359257479    -0.9401948919
   23      O      -4.9240561567    -0.0855028705    -1.1552937683
   24      H      -3.8480115105     0.5512679689     1.8930718723
   25      H      -2.9706279043     2.1604829935     0.4390538516
   26      H      -5.2452741539    -1.4907611191     0.4217618802
   27      H      -7.1347012093     0.2279231095     0.4941767422
   28      H      -6.1134379872     0.7355638813     1.8769585312
   29      H      -6.5734498731     2.2550716436    -0.6320798571
   30      H      -5.3932672731     2.7010641680     0.6369311685
   31      H      -4.4616017476     1.8573805998    -1.9105140425
   32      O       3.1733129753    -2.3960424421     0.5504138666
   33      C       7.2404047526    -0.5571686128    -0.7951591045
   34      C       3.6651658047     1.9171158408     0.3561053670
   35      C       2.4744977459     2.8483889162    -0.1108031673
   36      C       1.2557157637     2.2039104317     0.6477565582
   37      C       1.9427418494     0.9213034669     1.2472339488
   38      O       3.2559210315     1.4364461971     1.6965449968
   39      H       3.6587202547     0.7332606347    -1.5715836228
   40      H       1.5494902251     0.0783820574    -0.7638147339
   41      H       7.1212328724    -1.6507458821    -0.6541242809
   42      H       4.6542351782     2.4127830849     0.4074413478
   43      H       2.6513495050     3.8892781991     0.2029178940
   44      H       2.3479749701     2.8289744518    -1.2054502600
   45      H       0.9129578713     2.8549941089     1.4678639867
   46      H       0.3990980612     1.9762433197    -0.0164357219
   47      H       1.4021886024     0.4287904688     2.0795249820
   48      H       7.6912304842    -0.1335296906     0.1258643221
   49      H       7.9081121602    -0.3629364515    -1.6546873385
   50      H      -1.2051133322    -1.5076723177    -3.0241145868
   51      H      -0.4983193366     0.1514764803    -2.7648015757
   52      H      -1.8432561313    -0.0962315922    -3.9510581733
   53      H      -1.4497237355    -3.6336386838    -0.4558167283
   54      H      -1.0718156435    -3.1778357713     1.2544941391
   55      H       0.3719214797    -2.3137919207    -1.1516951746
   56      H      -0.4048169869    -0.8669571910    -0.4173775893
 ----------------------------------------------------------------

    9   -1510.2542483445      4.83E-09 Convergence criterion met
 Total energy in the final basis set = -1510.25424834
 Final energy is   -1510.25424834452
 **  OPTIMIZATION CONVERGED  **

                    Orbital Energies (a.u.)
 --------------------------------------------------------------

 Alpha MOs
 -- Occupied --
-18.953 -18.937 -18.921 -18.901 -18.898 -18.897 -18.895 -18.882
-18.880 -18.868 -10.118 -10.105 -10.101 -10.087 -10.075 -10.074
-10.072 -10.070 -10.067 -10.056 -10.053 -10.052 -10.050 -10.045
-10.032 -10.030 -10.028 -10.026 -10.010  -9.998  -1.029  -1.016
 -1.003  -0.997  -0.978  -0.963  -0.952  -0.942  -0.934  -0.924
 -0.772  -0.754  -0.732  -0.719  -0.712  -0.704  -0.694  -0.673
 -0.654  -0.617  -0.594  -0.593  -0.553  -0.545  -0.536  -0.531
 -0.521  -0.513  -0.493  -0.480  -0.462  -0.455  -0.445  -0.443
 -0.441  -0.435  -0.430  -0.420  -0.419  -0.407  -0.404  -0.403
 -0.390  -0.385  -0.381  -0.369  -0.367  -0.365  -0.357  -0.349
 -0.348  -0.340  -0.335  -0.333  -0.329  -0.323  -0.318  -0.317
 -0.315  -0.311  -0.304  -0.296  -0.293  -0.289  -0.285  -0.281
 -0.265  -0.260  -0.252  -0.245  -0.241  -0.238  -0.225  -0.192
 -0.180  -0.174  -0.170  -0.160  -0.158  -0.155  -0.149  -0.137
 -0.132

          Ground-State Mulliken Net Atomic Charges

     Atom                 Charge (a.u.)
  ----------------------------------------
      1 O                    -0.199743
      2 C                     0.208901
      3 C                    -0.079390
      4 C                    -0.085942
      5 C                     0.216835
      6 O                    -0.189776
      7 C                    -0.049412
      8 C                    -0.049191
      9 O                    -0.167757
     10 C                     0.203015
     11 C                    -0.080054
     12 C                    -0.076856
     13 C                     0.209491
     14 O                    -0.218635
     15 O                    -0.175607
     16 O                    -0.153706
     17 O                    -0.204454
     18 C                    -0.134987
     19 C                     0.026432
     20 C                    -0.141964
     21 C                    -0.145116
     22 C                     0.027471
     23 O                    -0.181315
     24 H                     0.085705
     25 H                     0.089630
     26 H                     0.089298
     27 H                     0.079184
     28 H                     0.075163
     29 H                     0.079655
     30 H                     0.074974
     31 H                     0.082763
     32 O                    -0.170703
     33 C                    -0.129553
     34 C                     0.025145
     35 C                    -0.145615
     36 C                    -0.156978
     37 C                     0.023303
     38 O                    -0.189193
     39 H                     0.083935
     40 H                     0.078433
     41 H                     0.090822
     42 H                     0.080399
     43 H                     0.074921
     44 H                     0.071307
     45 H                     0.071167
     46 H                     0.093976
     47 H                     0.089521
     48 H                     0.086421
     49 H                     0.087206
     50 H                     0.089661
     51 H                     0.097723
     52 H                     0.089760
     53 H                     0.090204
     54 H                     0.102866
     55 H                     0.075945
     56 H                     0.074714
  ----------------------------------------
  Sum of atomic charges =     0.000000

                    Cartesian Multipole Moments
 -----------------------------------------------------------------
    Charge (ESU x 10^10)
                 0.0000
    Dipole Moment (Debye)
         X      -3.3144      Y       1.9084      Z      -3.3143
       Tot       5.0608
    Quadrupole Moments (Debye-Ang)
        XX    -152.6771     XY      -0.3142     YY    -159.3183
        XZ     -13.9036     YZ       4.0051     ZZ    -163.0445

 Total job time:  109.25s(wall), 5209.21s(cpu)
        *  Thank you very much for using Q-Chem.  Have a nice day.  *
