 Q-Chem 5.0, Q-Chem, Inc., Pleasanton, CA (2017)
 Q-Chem 5.0.1 for Intel X86 EM64T Linux

User input:
--------------------------------------------------------------
$molecule
0  1
O 5.2270247074 -0.9137799132 0.8972717667
C 4.985694237 -0.1997069731 -0.0967871625
C 3.665795284 0.5585731746 -0.4817315504
C 2.3034218536 -0.0570679259 0.0314337325
C 2.2426851294 -1.5734977586 0.4604415931
O 0.9031917522 -1.9576737908 0.9046749901
C -0.0621118263 -1.9042286172 -0.2138842019
C -1.2943015461 -2.7847091219 0.2380481647
O -2.5778745143 -2.0378247422 0.2215194377
C -2.5540276445 -1.0072649747 1.2163049676
C -3.6473720883 0.0748934748 0.9158014702
C -3.2269533187 1.2291273893 -0.0957045469
C -2.0517398908 0.8998571676 -1.0803526214
O -0.9750730959 1.532175291 -1.2131339423
O 5.9514016754 0.0938853056 -1.1210815069
O -2.4255678109 -0.198681613 -1.9124822376
O -1.7284488301 -0.9578375067 2.1552332376
C -1.4210487215 -0.4237886212 -2.9800565441
C -5.0243158349 -0.414991064 0.2835682985
C -6.1349923076 0.5886802578 0.78538811
C -5.7377877471 1.8843781453 -0.0178558591
C -4.5754217074 1.3359257479 -0.9401948919
O -4.9240561567 -0.0855028705 -1.1552937683
H -3.8480115105 0.5512679689 1.8930718723
H -2.9706279043 2.1604829935 0.4390538516
H -5.2452741539 -1.4907611191 0.4217618802
H -7.1347012093 0.2279231095 0.4941767422
H -6.1134379872 0.7355638813 1.8769585312
H -6.5734498731 2.2550716436 -0.6320798571
H -5.3932672731 2.701064168 0.6369311685
H -4.4616017476 1.8573805998 -1.9105140425
O 3.1733129753 -2.3960424421 0.5504138666
C 7.2404047526 -0.5571686128 -0.7951591045
C 3.6651658047 1.9171158408 0.356105367
C 2.4744977459 2.8483889162 -0.1108031673
C 1.2557157637 2.2039104317 0.6477565582
C 1.9427418494 0.9213034669 1.2472339488
O 3.2559210315 1.4364461971 1.6965449968
H 3.6587202547 0.7332606347 -1.5715836228
H 1.5494902251 0.0783820574 -0.7638147339
H 7.1212328724 -1.6507458821 -0.6541242809
H 4.6542351782 2.4127830849 0.4074413478
H 2.651349505 3.8892781991 0.202917894
H 2.3479749701 2.8289744518 -1.20545026
H 0.9129578713 2.8549941089 1.4678639867
H 0.3990980612 1.9762433197 -0.0164357219
H 1.4021886024 0.4287904688 2.079524982
H 7.6912304842 -0.1335296906 0.1258643221
H 7.9081121602 -0.3629364515 -1.6546873385
H -1.2051133322 -1.5076723177 -3.0241145868
H -0.4983193366 0.1514764803 -2.7648015757
H -1.8432561313 -0.0962315922 -3.9510581733
H -1.4497237355 -3.6336386838 -0.4558167283
H -1.0718156435 -3.1778357713 1.2544941391
H 0.3719214797 -2.3137919207 -1.1516951746
H -0.4048169869 -0.866957191 -0.4173775893
$end

$rem
JOBTYPE                   OPT
METHOD                    B3LYP
DFT_D                     d3_op
BASIS                     STO-3G
GEOM_OPT_MAX_CYCLES       100
GEOM_OPT_TOL_GRADIENT     300
GEOM_OPT_TOL_DISPLACEMENT 1200
GEOM_OPT_TOL_ENERGY       100
SYMMETRY                  False
THRESH                    12
SCF_CONVERGENCE           8
MAX_SUB_FILE_NUM          128
MEM_STATIC                400
MEM_TOTAL                 4000
$end
--------------------------------------------------------------

   16   -1510.2538777402      6.84E-09 Convergence criterion met
 Total energy in the final basis set = -1510.25387774
   15   -1510.2521020475      4.13E-09 Convergence criterion met
 Total energy in the final basis set = -1510.25210205
   14   -1510.2569008103      2.92E-09 Convergence criterion met
 Total energy in the final basis set = -1510.25690081
   15   -1510.2477979679      2.20E-09 Convergence criterion met
 Total energy in the final basis set = -1510.24779797
   15   -1510.2599103074      4.51E-09 Convergence criterion met
 Total energy in the final basis set = -1510.25991031
   15   -1510.2604647952      2.97E-09 Convergence criterion met
 Total energy in the final basis set = -1510.26046480
   13   -1510.2618813994      9.13E-09 Convergence criterion met
 Total energy in the final basis set = -1510.26188140
   14   -1510.2646188934      7.04E-09 Convergence criterion met
   12   -1510.2843776729      3.30E-09 Convergence criterion met
 Total energy in the final basis set = -1510.28437767
   11   -1510.2843902647      7.89E-09 Convergence criterion met
 Total energy in the final basis set = -1510.28439026
   12   -1510.2843961646      2.25E-09 Convergence criterion met
 Total energy in the final basis set = -1510.28439616
   10   -1510.2843995209      9.53E-09 Convergence criterion met
 Total energy in the final basis set = -1510.28439952
   10   -1510.2844006259      6.48E-09 Convergence criterion met
 Total energy in the final basis set = -1510.28440063
    9   -1510.2844029616      8.93E-09 Convergence criterion met
 Total energy in the final basis set = -1510.28440296

             Standard Nuclear Orientation (Angstroms)
    I     Atom           X                Y                Z
 ----------------------------------------------------------------
    1      O      -5.5358807899    -0.2640945046     1.1208016992
    2      C      -4.7802695518    -0.3712402700     0.1323978414
    3      C      -3.3765050528    -1.0826414838     0.0718651714
    4      C      -2.1360025140    -0.1047825414    -0.0623554695
    5      C      -2.5742078744     1.4004064022    -0.1732325812
    6      O      -1.7043827243     2.3909223515    -0.7481129888
    7      C      -0.3543126465     1.9680041866    -1.1732223927
    8      C       0.7383757113     2.4794377009    -0.1518766084
    9      O       1.8828397088     1.5312639703    -0.1469844687
   10      C       1.9100840803     0.7954336424     1.0806041628
   11      C       3.0144457386    -0.3028671165     1.0146109402
   12      C       3.0496221408    -1.1571733575    -0.3271573533
   13      C       2.0088912210    -0.6910360958    -1.4109795008
   14      O       0.7643810392    -0.8682517509    -1.3739618494
   15      O      -5.1418874881    -0.0070508747    -1.2113820912
   16      O       2.6913280796    -0.1031987958    -2.5124461135
   17      O       1.1557206457     1.0294206921     2.0536803126
   18      C       1.7443631329     0.3141798882    -3.5725070077
   19      C       4.4894676143     0.3076462020     1.0156870130
   20      C       5.4808241908    -0.8327369996     1.4742229878
   21      C       5.4975638702    -1.7448948212     0.1927675241
   22      C       4.5528546925    -0.9332134732    -0.7791109685
   23      O       4.8011046182     0.4824451488    -0.4182049988
   24      H       2.8619698028    -0.9575960768     1.8904343171
   25      H       2.8369712366    -2.2192134454    -0.1055414041
   26      H       4.5878102883     1.2685541863     1.5571612978
   27      H       6.4768529774    -0.4111106433     1.6836701990
   28      H       5.1227586322    -1.3596451561     2.3728372192
   29      H       6.5098521955    -1.8251999797    -0.2337316347
   30      H       5.1148993846    -2.7593492633     0.3882578589
   31      H       4.7298838194    -1.0941159316    -1.8590712409
   32      O      -3.6879421893     1.8226281706     0.2182703478
   33      C      -6.4349221300     0.7104728055    -1.2007445578
   34      C      -3.0485527797    -1.7965121013     1.4449835480
   35      C      -1.8370676676    -2.7884777081     1.2195255779
   36      C      -0.6293688239    -1.7836485415     1.1427483842
   37      C      -1.3752260281    -0.4048777587     1.3102466187
   38      O      -2.4677338438    -0.7032985754     2.2579247847
   39      H      -3.3939541513    -1.7946033552    -0.7729045163
   40      H      -1.5164631162    -0.4036551275    -0.9226999691
   41      H      -6.3584319193     1.6650836907    -0.6407928464
   42      H      -3.9346737866    -2.2242341752     1.9527796358
   43      H      -1.7370283659    -3.4774032312     2.0732728423
   44      H      -1.9589010783    -3.3832011626     0.2997686525
   45      H       0.0732729575    -1.9351873878     1.9772387154
   46      H      -0.0736533719    -1.8083970327     0.1868854978
   47      H      -0.7316129201     0.4159524527     1.6891982481
   48      H      -7.2410830168     0.0987433427    -0.7460807505
   49      H      -6.6804505214     0.9203489122    -2.2581762223
   50      H       1.5530216360     1.4032916511    -3.4973520058
   51      H       0.7862144024    -0.2341525832    -3.4774437347
   52      H       2.2229817919     0.0937268772    -4.5452213773
   53      H       1.1274756892     3.4758656594    -0.4411021754
   54      H       0.3127377632     2.5242236222     0.8742237859
   55      H      -0.1867339517     2.4403085724    -2.1631289534
   56      H      -0.2246607600     0.8705002799    -1.2887476324
 ----------------------------------------------------------------

    9   -1510.2844036429      4.51E-09 Convergence criterion met
 Total energy in the final basis set = -1510.28440364
 Final energy is   -1510.28440364289
 **  OPTIMIZATION CONVERGED  **

                    Orbital Energies (a.u.)
 --------------------------------------------------------------

 Alpha MOs
 -- Occupied --
-18.961 -18.952 -18.932 -18.908 -18.901 -18.897 -18.894 -18.875
-18.873 -18.850 -10.127 -10.118 -10.098 -10.079 -10.079 -10.076
-10.074 -10.073 -10.071 -10.056 -10.054 -10.046 -10.045 -10.043
-10.031 -10.030 -10.028 -10.023 -10.008 -10.000  -1.036  -1.028
 -1.004  -0.986  -0.983  -0.958  -0.958  -0.954  -0.933  -0.913
 -0.778  -0.751  -0.737  -0.724  -0.709  -0.707  -0.693  -0.678
 -0.645  -0.622  -0.599  -0.589  -0.558  -0.549  -0.535  -0.531
 -0.526  -0.507  -0.498  -0.485  -0.472  -0.457  -0.451  -0.447
 -0.445  -0.441  -0.427  -0.424  -0.421  -0.410  -0.405  -0.395
 -0.394  -0.388  -0.384  -0.377  -0.373  -0.368  -0.356  -0.350
 -0.344  -0.342  -0.336  -0.331  -0.329  -0.319  -0.319  -0.317
 -0.313  -0.307  -0.305  -0.299  -0.296  -0.291  -0.286  -0.270
 -0.267  -0.263  -0.260  -0.246  -0.240  -0.233  -0.222  -0.197
 -0.195  -0.180  -0.172  -0.165  -0.156  -0.154  -0.146  -0.132
 -0.130

          Ground-State Mulliken Net Atomic Charges

     Atom                 Charge (a.u.)
  ----------------------------------------
      1 O                    -0.216733
      2 C                     0.216204
      3 C                    -0.079268
      4 C                    -0.088690
      5 C                     0.212126
      6 O                    -0.170974
      7 C                    -0.059799
      8 C                    -0.058546
      9 O                    -0.170457
     10 C                     0.212999
     11 C                    -0.079351
     12 C                    -0.077217
     13 C                     0.225560
     14 O                    -0.230160
     15 O                    -0.179676
     16 O                    -0.157733
     17 O                    -0.207560
     18 C                    -0.131376
     19 C                     0.026952
     20 C                    -0.143037
     21 C                    -0.144794
     22 C                     0.025823
     23 O                    -0.184176
     24 H                     0.090130
     25 H                     0.088253
     26 H                     0.085928
     27 H                     0.080693
     28 H                     0.076176
     29 H                     0.080266
     30 H                     0.074554
     31 H                     0.092436
     32 O                    -0.195991
     33 C                    -0.128773
     34 C                     0.025385
     35 C                    -0.145514
     36 C                    -0.156520
     37 C                     0.015831
     38 O                    -0.188217
     39 H                     0.080761
     40 H                     0.087985
     41 H                     0.092450
     42 H                     0.086665
     43 H                     0.073861
     44 H                     0.069532
     45 H                     0.068203
     46 H                     0.085608
     47 H                     0.088818
     48 H                     0.085049
     49 H                     0.083791
     50 H                     0.089727
     51 H                     0.099111
     52 H                     0.093775
     53 H                     0.090684
     54 H                     0.105104
     55 H                     0.083004
     56 H                     0.101120
  ----------------------------------------
  Sum of atomic charges =    -0.000000

                    Cartesian Multipole Moments
 -----------------------------------------------------------------
    Charge (ESU x 10^10)
                -0.0000
    Dipole Moment (Debye)
         X       5.5221      Y      -2.4454      Z      -3.2866
       Tot       6.8757
    Quadrupole Moments (Debye-Ang)
        XX    -167.8537     XY      -0.5102     YY    -156.6040
        XZ      13.2573     YZ      -2.1377     ZZ    -159.8203

 Total job time:  162.51s(wall), 7755.35s(cpu)
        *  Thank you very much for using Q-Chem.  Have a nice day.  *
