 Q-Chem 5.0, Q-Chem, Inc., Pleasanton, CA (2017)
 Q-Chem 5.0.1 for Intel X86 EM64T Linux

User input:
--------------------------------------------------------------
$molecule
0  1
O 4.2486696258 -1.0270102222 1.2616725735
C 4.8505056932 -0.2034157665 0.5377159162
C 4.2292122861 0.691473362 -0.5920280401
C 2.7243536572 0.2873479332 -0.9245171066
C 2.5354322152 -1.2788902139 -0.5967774606
O 1.5844664177 -1.8810192794 0.2924820925
C 0.2926750318 -1.2176619281 0.5366219422
C -0.8099877061 -2.0046640385 -0.2755670968
O -2.2345852647 -1.8203882085 0.1234507966
C -2.4605854235 -1.1103410191 1.3386143492
C -3.7192145975 -0.1752615472 1.2301328226
C -3.8792326316 0.7627515994 -0.045157591
C -2.881223085 0.5568153624 -1.2359277918
O -2.7564437626 -0.4202658638 -2.0034502417
O 6.2408572688 0.1046604383 0.6503097469
O -2.0668849816 1.738927385 -1.3331285527
O -1.7683028471 -1.2138636539 2.380504687
C -1.1240859614 1.6025383818 -2.4667433224
C -5.0872776244 -0.9995254875 1.1689433652
C -6.2409748506 -0.0697059247 1.711869867
C -6.3972266966 0.9389909949 0.5137155803
C -5.3474670628 0.3572776036 -0.515526948
O -5.379715267 -1.1014825096 -0.275663017
H -3.6957084146 0.4462861867 2.1431221895
H -3.8213775063 1.8242801877 0.2537384797
H -5.0358751396 -2.006210191 1.6271492962
H -7.161414589 -0.6547003587 1.8691802858
H -5.9702038551 0.4256785489 2.6577643357
H -7.4124139171 0.9094560708 0.0871031735
H -6.1632654459 1.9772137855 0.7986692011
H -5.5594861349 0.5773106962 -1.5797841117
O 3.306958425 -2.0763229055 -1.179798461
C 6.8466823488 -0.6961762479 1.7404058671
C 4.0425875399 2.1505476588 -0.0011606139
C 3.6051250848 3.1318723451 -1.1550148956
C 2.0979779247 2.7282282267 -1.3372429006
C 1.9648997945 1.5469410818 -0.2897584056
O 2.8231635055 1.996067306 0.8274571399
H 4.8826069056 0.6756174114 -1.4821564824
H 2.5874457704 0.3290187942 -2.0212455507
H 6.7457749441 -1.7840433003 1.549443356
H 4.8934792734 2.4972526382 0.6166739801
H 3.7105029809 4.1803613484 -0.8343975193
H 4.2002054022 2.9803836126 -2.069823423
H 1.4225627561 3.5535402021 -1.0607641359
H 1.8652189749 2.4077221441 -2.364715857
H 0.9322123587 1.398553762 0.0687635523
H 6.3818358534 -0.4662395947 2.7208970326
H 7.9168723369 -0.420201762 1.7629731994
H -0.6210334274 2.5809613386 -2.5674752827
H -1.6501058331 1.3528873311 -3.4103029714
H -0.3652992811 0.8165770833 -2.2729491382
H -0.7800257519 -1.7133006373 -1.3475821802
H -0.5680344878 -3.088619077 -0.2063879691
H 0.2713244311 -0.1532521735 0.2569806395
H 0.0570349761 -1.3077358165 1.6190673868
$end

$rem
JOBTYPE                   OPT
METHOD                    B3LYP
DFT_D                     d3_op
BASIS                     STO-3G
GEOM_OPT_MAX_CYCLES       100
GEOM_OPT_TOL_GRADIENT     300
GEOM_OPT_TOL_DISPLACEMENT 1200
GEOM_OPT_TOL_ENERGY       100
SYMMETRY                  False
THRESH                    12
SCF_CONVERGENCE           8
MAX_SUB_FILE_NUM          128
MEM_STATIC                400
MEM_TOTAL                 4000
$end
--------------------------------------------------------------

   16   -1510.2356999914      6.67E-09 Convergence criterion met
 Total energy in the final basis set = -1510.23569999
   14   -1510.2375196818      5.52E-09 Convergence criterion met
 Total energy in the final basis set = -1510.23751968
   13   -1510.2405468103      8.34E-09 Convergence criterion met
 Total energy in the final basis set = -1510.24054681
   13   -1510.2437945173      7.28E-09 Convergence criterion met
 Total energy in the final basis set = -1510.24379452
   14   -1510.2468744403      5.18E-09 Convergence criterion met
 Total energy in the final basis set = -1510.24687444
   14   -1510.2498438707      5.35E-09 Convergence criterion met
 Total energy in the final basis set = -1510.24984387
   13   -1510.2525304612      9.84E-09 Convergence criterion met
 Total energy in the final basis set = -1510.25253046
   13   -1510.2546361533      7.71E-09 Convergence criterion met
   13   -1510.2863027679      5.57E-09 Convergence criterion met
 Total energy in the final basis set = -1510.28630277
   12   -1510.2863515406      5.21E-09 Convergence criterion met
 Total energy in the final basis set = -1510.28635154
   12   -1510.2863664436      2.49E-09 Convergence criterion met
 Total energy in the final basis set = -1510.28636644
   12   -1510.2863807929      3.11E-09 Convergence criterion met
 Total energy in the final basis set = -1510.28638079
   11   -1510.2863871232      5.68E-09 Convergence criterion met
 Total energy in the final basis set = -1510.28638712
   11   -1510.2863927228      3.69E-09 Convergence criterion met
 Total energy in the final basis set = -1510.28639272

             Standard Nuclear Orientation (Angstroms)
    I     Atom           X                Y                Z
 ----------------------------------------------------------------
    1      O       4.3901582492    -0.6702036695    -1.6664348484
    2      C       3.2828301091    -0.6269013515    -1.0956798170
    3      C       2.3936020929     0.6248928237    -0.7876759442
    4      C       2.0266292154     0.7754409494     0.7495504049
    5      C       2.8214949593    -0.2638742364     1.6404867828
    6      O       2.1477308903    -1.0930053936     2.6070294690
    7      C       0.6786509416    -1.1785887555     2.4796969327
    8      C       0.2106344278    -1.8230994225     1.1111339013
    9      O      -0.8852767705    -1.0486462593     0.4770045515
   10      C      -2.1344119546    -1.3589839838     1.1065524253
   11      C      -3.2994907213    -0.7507250678     0.2562844535
   12      C      -3.2080858115     0.8106475896    -0.0009146110
   13      C      -2.0117570708     1.5384395309     0.7022154821
   14      O      -1.1384276385     2.2411408702     0.1466299504
   15      O       2.5868876518    -1.7962964343    -0.6213033292
   16      O      -2.1159131301     1.3396433491     2.1140289037
   17      O      -2.2469982074    -2.0696695233     2.1294180980
   18      C      -1.1370905367     2.1888359773     2.8343550190
   19      C      -3.2439978598    -1.2877671854    -1.2424506929
   20      C      -4.6235587276    -0.9663853301    -1.9438662975
   21      C      -4.4781062630     0.5775640536    -2.2137828826
   22      C      -3.0616131485     0.8605517053    -1.5789457686
   23      O      -2.2908131684    -0.3638483096    -1.8952120561
   24      H      -4.2480462956    -1.0192206772     0.7530763903
   25      H      -4.1382019462     1.3059714834     0.3345814886
   26      H      -2.8989562711    -2.3353445250    -1.3406820381
   27      H      -4.7196737737    -1.5343224158    -2.8828903725
   28      H      -5.4819235362    -1.2061645319    -1.2962303724
   29      H      -4.4672713163     0.7997145110    -3.2927429750
   30      H      -5.2748516463     1.1713821435    -1.7380854573
   31      H      -2.5309360334     1.7588571705    -1.9500055147
   32      O       4.0672852864    -0.3765059318     1.5873463188
   33      C       3.4285871928    -3.0034540394    -0.7638190524
   34      C       3.1809239568     1.9746503173    -1.0586176625
   35      C       2.1264811218     3.1388055481    -1.1903234757
   36      C       1.6564936505     3.2856216451     0.3044139110
   37      C       2.5927195702     2.2370989826     1.0262188032
   38      O       3.8432428404     2.2589175261     0.2354346556
   39      H       1.4719141986     0.5594947890    -1.3954622789
   40      H       0.9365968220     0.7212455676     0.8889867869
   41      H       4.3385869951    -2.9295413841    -0.1337048136
   42      H       3.9321902035     1.8977787892    -1.8686335403
   43      H       2.6127171690     4.0564806473    -1.5580960083
   44      H       1.2992692237     2.8768329618    -1.8693395585
   45      H       1.8424822131     4.2993847186     0.6914516487
   46      H       0.5868426597     3.0300045539     0.4168165479
   47      H       2.8082894077     2.4481551072     2.0918262811
   48      H       3.7345992128    -3.1632030184    -1.8174685273
   49      H       2.8083709632    -3.8522981777    -0.4220526403
   50      H      -1.2803684924     1.9719166296     3.9087308846
   51      H      -1.3221306924     3.2658532298     2.6449950515
   52      H      -0.0919230149     1.9589904398     2.5473961106
   53      H       1.0590864790    -1.8146048415     0.3810602769
   54      H      -0.1158757734    -2.8676881873     1.2886666842
   55      H       0.1907709594    -0.1898675629     2.6086663892
   56      H       0.3633608338    -1.8178818883     3.3285102265
 ----------------------------------------------------------------

    9   -1510.2863936780      6.92E-09 Convergence criterion met
 Total energy in the final basis set = -1510.28639368
 Final energy is   -1510.28639367803
 **  OPTIMIZATION CONVERGED  **

                    Orbital Energies (a.u.)
 --------------------------------------------------------------

 Alpha MOs
 -- Occupied --
-18.954 -18.941 -18.935 -18.926 -18.898 -18.896 -18.884 -18.880
-18.880 -18.866 -10.120 -10.104 -10.104 -10.093 -10.080 -10.070
-10.068 -10.067 -10.066 -10.056 -10.053 -10.050 -10.050 -10.046
-10.034 -10.031 -10.027 -10.026 -10.009  -9.999  -1.030  -1.016
 -1.015  -0.999  -0.978  -0.962  -0.956  -0.941  -0.940  -0.930
 -0.773  -0.757  -0.733  -0.717  -0.713  -0.698  -0.697  -0.679
 -0.662  -0.617  -0.600  -0.590  -0.554  -0.545  -0.542  -0.530
 -0.521  -0.507  -0.491  -0.476  -0.474  -0.463  -0.458  -0.450
 -0.439  -0.432  -0.431  -0.423  -0.415  -0.414  -0.411  -0.399
 -0.395  -0.387  -0.383  -0.374  -0.368  -0.364  -0.361  -0.353
 -0.349  -0.343  -0.338  -0.333  -0.329  -0.323  -0.318  -0.314
 -0.310  -0.306  -0.300  -0.298  -0.294  -0.291  -0.287  -0.281
 -0.270  -0.266  -0.260  -0.248  -0.242  -0.236  -0.226  -0.196
 -0.186  -0.182  -0.174  -0.163  -0.159  -0.155  -0.152  -0.143
 -0.134

          Ground-State Mulliken Net Atomic Charges

     Atom                 Charge (a.u.)
  ----------------------------------------
      1 O                    -0.199748
      2 C                     0.220154
      3 C                    -0.079333
      4 C                    -0.086343
      5 C                     0.203340
      6 O                    -0.172498
      7 C                    -0.052684
      8 C                    -0.072909
      9 O                    -0.175571
     10 C                     0.206323
     11 C                    -0.078654
     12 C                    -0.078144
     13 C                     0.219177
     14 O                    -0.211103
     15 O                    -0.177277
     16 O                    -0.168423
     17 O                    -0.213414
     18 C                    -0.130607
     19 C                     0.026681
     20 C                    -0.144085
     21 C                    -0.143737
     22 C                     0.024508
     23 O                    -0.185966
     24 H                     0.086972
     25 H                     0.087066
     26 H                     0.083697
     27 H                     0.079391
     28 H                     0.074807
     29 H                     0.079495
     30 H                     0.073834
     31 H                     0.089975
     32 O                    -0.202968
     33 C                    -0.127006
     34 C                     0.024746
     35 C                    -0.143281
     36 C                    -0.159974
     37 C                     0.022603
     38 O                    -0.186109
     39 H                     0.092031
     40 H                     0.082978
     41 H                     0.097573
     42 H                     0.088864
     43 H                     0.074779
     44 H                     0.074116
     45 H                     0.069936
     46 H                     0.094985
     47 H                     0.077776
     48 H                     0.092243
     49 H                     0.091034
     50 H                     0.096775
     51 H                     0.091504
     52 H                     0.089179
     53 H                     0.115946
     54 H                     0.084217
     55 H                     0.077663
     56 H                     0.095469
  ----------------------------------------
  Sum of atomic charges =    -0.000000

                    Cartesian Multipole Moments
 -----------------------------------------------------------------
    Charge (ESU x 10^10)
                -0.0000
    Dipole Moment (Debye)
         X      -5.7171      Y       0.4284      Z      -0.5942
       Tot       5.7639
    Quadrupole Moments (Debye-Ang)
        XX    -174.2352     XY      -7.1376     YY    -152.6243
        XZ      -0.2833     YZ       7.5642     ZZ    -161.2058

 Total job time:  211.29s(wall), 10083.26s(cpu)
        *  Thank you very much for using Q-Chem.  Have a nice day.  *
