 Q-Chem 5.0, Q-Chem, Inc., Pleasanton, CA (2017)
 Q-Chem 5.0.1 for Intel X86 EM64T Linux

User input:
--------------------------------------------------------------
$molecule
0  1
O -3.94934 -3.66094 2.70899
C -3.26408 -4.56952 2.26188
C -3.36658 -6.02376 2.66595
C -4.25419 -6.35572 3.87665
C -5.08044 -5.22016 4.4387
O -6.4025 -5.56308 4.43679
C -6.61862 -6.97338 4.55344
C -7.07828 -7.31964 5.96587
O -7.70735 -8.61081 5.97308
C -7.94551 -9.15023 4.75183
C -7.72161 -10.64325 4.71427
C -6.40723 -11.11693 5.35171
C -5.69723 -10.10668 6.23033
O -6.1166 -9.67365 7.2939
O -2.33732 -4.27682 1.31027
O -4.42931 -9.78601 5.85975
O -8.84923 -8.69518 4.06072
C -3.57509 -9.00922 6.61611
C -8.73654 -11.45919 5.54197
C -8.81116 -12.88346 4.99348
C -7.45824 -13.42279 5.4186
C -6.94103 -12.24319 6.25146
O -8.10857 -11.66374 6.7849
H -7.79611 -10.95265 3.64629
H -5.6857 -11.46205 4.57746
H -9.74869 -11.0001 5.57275
H -9.6018 -13.40934 5.57569
H -9.03783 -12.9737 3.90938
H -7.62285 -14.32062 6.0546
H -6.76076 -13.66443 4.58741
H -6.1817 -12.58295 6.99021
O -4.65411 -4.23442 5.02168
C -2.10786 -3.01201 0.81078
C -3.68274 -6.89901 1.45702
C -2.87165 -8.17462 1.54037
C -3.43347 -8.7236 2.81696
C -4.64044 -7.75714 3.00956
O -4.9644 -7.3149 1.72751
H -2.31072 -6.2125 2.97895
H -3.63483 -6.68037 4.74122
H -1.78801 -2.3302 1.62759
H -3.54694 -6.41331 0.46532
H -3.19146 -8.8057 0.6795
H -1.7658 -8.064 1.53204
H -3.70625 -9.78887 2.63369
H -2.75205 -8.65097 3.68988
H -5.38054 -8.5388 3.27986
H -3.02873 -2.61747 0.3305
H -1.30166 -3.06195 0.05051
H -2.60607 -8.90683 6.08775
H -3.39161 -9.49193 7.59963
H -4.00694 -7.99919 6.77359
H -6.33731 -7.18751 6.79904
H -7.8893 -6.6053 6.22446
H -5.80626 -7.61467 4.90252
H -7.20805 -7.21653 3.65184
$end

$opt
CONSTRAINT
tors           1           2           3           4      -9.474
tors           3           4           5           6    +123.158
tors           4           5           6           7     +28.421
tors           5           6           7           8    +104.211
tors           6           7           8           9    +161.053
tors           7           8           9          10      -9.474
tors           8           9          10          11    +142.105
tors           9          10          11          12     -47.368
tors          11          12          13          14     +66.316
ENDCONSTRAINT
$end

$rem
JOBTYPE                   OPT
METHOD                    B3LYP
DFT_D                     d3_op
BASIS                     STO-3G
GEOM_OPT_MAX_CYCLES       100
GEOM_OPT_TOL_GRADIENT     300
GEOM_OPT_TOL_DISPLACEMENT 1200
GEOM_OPT_TOL_ENERGY       100
SYMMETRY                  False
THRESH                    12
SCF_CONVERGENCE           8
MAX_SUB_FILE_NUM          128
MEM_STATIC                400
MEM_TOTAL                 4000
$end
--------------------------------------------------------------

   16   -1509.9499148221      4.51E-09 Convergence criterion met
 Total energy in the final basis set = -1509.94991482
   14   -1510.0511688927      4.50E-09 Convergence criterion met
 Total energy in the final basis set = -1510.05116889
   14   -1510.1164669077      5.89E-09 Convergence criterion met
 Total energy in the final basis set = -1510.11646691
   14   -1510.1622677575      1.96E-09 Convergence criterion met
 Total energy in the final basis set = -1510.16226776
   14   -1510.1906738864      2.29E-09 Convergence criterion met
 Total energy in the final basis set = -1510.19067389
   13   -1510.2078062264      8.42E-09 Convergence criterion met
 Total energy in the final basis set = -1510.20780623
   13   -1510.2179201126      5.70E-09 Convergence criterion met
 Total energy in the final basis set = -1510.21792011
   13   -1510.2238850980      6.68E-09 Convergence criterion met
   11   -1510.2357124510      8.96E-09 Convergence criterion met
 Total energy in the final basis set = -1510.23571245
   11   -1510.2357460826      8.86E-09 Convergence criterion met
 Total energy in the final basis set = -1510.23574608
   11   -1510.2357652173      3.33E-09 Convergence criterion met
 Total energy in the final basis set = -1510.23576522
   10   -1510.2357751706      6.97E-09 Convergence criterion met
 Total energy in the final basis set = -1510.23577517
    9   -1510.2357786603      9.75E-09 Convergence criterion met
 Total energy in the final basis set = -1510.23577866
    9   -1510.2357800463      7.50E-09 Convergence criterion met
 Total energy in the final basis set = -1510.23578005

             Standard Nuclear Orientation (Angstroms)
    I     Atom           X                Y                Z
 ----------------------------------------------------------------
    1      O       4.2486696258    -1.0270102222     1.2616725735
    2      C       4.8505056932    -0.2034157665     0.5377159162
    3      C       4.2292122861     0.6914733620    -0.5920280401
    4      C       2.7243536572     0.2873479332    -0.9245171066
    5      C       2.5354322152    -1.2788902139    -0.5967774606
    6      O       1.5844664177    -1.8810192794     0.2924820925
    7      C       0.2926750318    -1.2176619281     0.5366219422
    8      C      -0.8099877061    -2.0046640385    -0.2755670968
    9      O      -2.2345852647    -1.8203882085     0.1234507966
   10      C      -2.4605854235    -1.1103410191     1.3386143492
   11      C      -3.7192145975    -0.1752615472     1.2301328226
   12      C      -3.8792326316     0.7627515994    -0.0451575910
   13      C      -2.8812230850     0.5568153624    -1.2359277918
   14      O      -2.7564437626    -0.4202658638    -2.0034502417
   15      O       6.2408572688     0.1046604383     0.6503097469
   16      O      -2.0668849816     1.7389273850    -1.3331285527
   17      O      -1.7683028471    -1.2138636539     2.3805046870
   18      C      -1.1240859614     1.6025383818    -2.4667433224
   19      C      -5.0872776244    -0.9995254875     1.1689433652
   20      C      -6.2409748506    -0.0697059247     1.7118698670
   21      C      -6.3972266966     0.9389909949     0.5137155803
   22      C      -5.3474670628     0.3572776036    -0.5155269480
   23      O      -5.3797152670    -1.1014825096    -0.2756630170
   24      H      -3.6957084146     0.4462861867     2.1431221895
   25      H      -3.8213775063     1.8242801877     0.2537384797
   26      H      -5.0358751396    -2.0062101910     1.6271492962
   27      H      -7.1614145890    -0.6547003587     1.8691802858
   28      H      -5.9702038551     0.4256785489     2.6577643357
   29      H      -7.4124139171     0.9094560708     0.0871031735
   30      H      -6.1632654459     1.9772137855     0.7986692011
   31      H      -5.5594861349     0.5773106962    -1.5797841117
   32      O       3.3069584250    -2.0763229055    -1.1797984610
   33      C       6.8466823488    -0.6961762479     1.7404058671
   34      C       4.0425875399     2.1505476588    -0.0011606139
   35      C       3.6051250848     3.1318723451    -1.1550148956
   36      C       2.0979779247     2.7282282267    -1.3372429006
   37      C       1.9648997945     1.5469410818    -0.2897584056
   38      O       2.8231635055     1.9960673060     0.8274571399
   39      H       4.8826069056     0.6756174114    -1.4821564824
   40      H       2.5874457704     0.3290187942    -2.0212455507
   41      H       6.7457749441    -1.7840433003     1.5494433560
   42      H       4.8934792734     2.4972526382     0.6166739801
   43      H       3.7105029809     4.1803613484    -0.8343975193
   44      H       4.2002054022     2.9803836126    -2.0698234230
   45      H       1.4225627561     3.5535402021    -1.0607641359
   46      H       1.8652189749     2.4077221441    -2.3647158570
   47      H       0.9322123587     1.3985537620     0.0687635523
   48      H       6.3818358534    -0.4662395947     2.7208970326
   49      H       7.9168723369    -0.4202017620     1.7629731994
   50      H      -0.6210334274     2.5809613386    -2.5674752827
   51      H      -1.6501058331     1.3528873311    -3.4103029714
   52      H      -0.3652992811     0.8165770833    -2.2729491382
   53      H      -0.7800257519    -1.7133006373    -1.3475821802
   54      H      -0.5680344878    -3.0886190770    -0.2063879691
   55      H       0.2713244311    -0.1532521735     0.2569806395
   56      H       0.0570349761    -1.3077358165     1.6190673868
 ----------------------------------------------------------------

    9   -1510.2357809410      7.10E-09 Convergence criterion met
 Total energy in the final basis set = -1510.23578094
 Final energy is   -1510.23578094099
 **  OPTIMIZATION CONVERGED  **

                    Orbital Energies (a.u.)
 --------------------------------------------------------------

 Alpha MOs
 -- Occupied --
-18.939 -18.938 -18.929 -18.925 -18.895 -18.894 -18.884 -18.883
-18.880 -18.860 -10.107 -10.103 -10.101 -10.097 -10.072 -10.069
-10.068 -10.066 -10.066 -10.065 -10.064 -10.064 -10.043 -10.041
-10.041 -10.038 -10.028 -10.026 -10.024 -10.023  -1.018  -1.015
 -1.009  -0.997  -0.978  -0.975  -0.943  -0.939  -0.937  -0.927
 -0.766  -0.766  -0.727  -0.726  -0.714  -0.710  -0.700  -0.671
 -0.664  -0.613  -0.600  -0.594  -0.553  -0.548  -0.544  -0.541
 -0.521  -0.517  -0.485  -0.477  -0.467  -0.463  -0.453  -0.445
 -0.443  -0.437  -0.434  -0.420  -0.414  -0.413  -0.409  -0.406
 -0.393  -0.384  -0.379  -0.375  -0.365  -0.361  -0.356  -0.349
 -0.347  -0.341  -0.338  -0.335  -0.332  -0.329  -0.320  -0.318
 -0.314  -0.312  -0.310  -0.306  -0.300  -0.286  -0.281  -0.279
 -0.275  -0.263  -0.256  -0.246  -0.242  -0.237  -0.228  -0.185
 -0.180  -0.174  -0.166  -0.158  -0.154  -0.152  -0.149  -0.147
 -0.136

          Ground-State Mulliken Net Atomic Charges

     Atom                 Charge (a.u.)
  ----------------------------------------
      1 O                    -0.203226
      2 C                     0.214809
      3 C                    -0.076240
      4 C                    -0.085877
      5 C                     0.213719
      6 O                    -0.167625
      7 C                    -0.060426
      8 C                    -0.051792
      9 O                    -0.171060
     10 C                     0.209675
     11 C                    -0.079860
     12 C                    -0.079825
     13 C                     0.206017
     14 O                    -0.202552
     15 O                    -0.170264
     16 O                    -0.173649
     17 O                    -0.207132
     18 C                    -0.130884
     19 C                     0.027330
     20 C                    -0.143138
     21 C                    -0.144638
     22 C                     0.027369
     23 O                    -0.182269
     24 H                     0.085851
     25 H                     0.086275
     26 H                     0.085693
     27 H                     0.079173
     28 H                     0.074966
     29 H                     0.078914
     30 H                     0.073958
     31 H                     0.083809
     32 O                    -0.210652
     33 C                    -0.128236
     34 C                     0.023954
     35 C                    -0.144622
     36 C                    -0.143171
     37 C                     0.021226
     38 O                    -0.189696
     39 H                     0.089594
     40 H                     0.080214
     41 H                     0.093301
     42 H                     0.086917
     43 H                     0.079284
     44 H                     0.075898
     45 H                     0.077849
     46 H                     0.071727
     47 H                     0.080320
     48 H                     0.090420
     49 H                     0.090949
     50 H                     0.090242
     51 H                     0.092067
     52 H                     0.080876
     53 H                     0.090407
     54 H                     0.093070
     55 H                     0.078477
     56 H                     0.112485
  ----------------------------------------
  Sum of atomic charges =    -0.000000

                    Cartesian Multipole Moments
 -----------------------------------------------------------------
    Charge (ESU x 10^10)
                -0.0000
    Dipole Moment (Debye)
         X      -0.4392      Y       4.7180      Z      -0.8281
       Tot       4.8103
    Quadrupole Moments (Debye-Ang)
        XX    -144.2433     XY      -0.2137     YY    -165.5185
        XZ      -4.6263     YZ      -6.6390     ZZ    -160.3103

 Total job time:  72.68s(wall), 3460.18s(cpu)
        *  Thank you very much for using Q-Chem.  Have a nice day.  *
