 Q-Chem 5.0, Q-Chem, Inc., Pleasanton, CA (2017)
 Q-Chem 5.0.1 for Intel X86 EM64T Linux

User input:
--------------------------------------------------------------
$molecule
0  1
O 3.0039240978 -2.1359978835 -0.7235588167
C 3.8919374335 -1.2721141844 -0.5445384653
C 3.8034928563 0.2427590376 -0.9639370384
C 2.4387454681 0.9280288574 -0.5397168718
C 1.8484256235 0.2046540621 0.7426100602
O 0.4601015772 0.3754770126 1.0478336675
C -0.0907928741 1.7392012087 1.0168721022
C -1.1235802812 1.8347869495 2.2097419746
O -2.5212507259 1.7778737354 1.7476953784
C -3.0281959823 0.427576543 1.5784086436
C -3.9448696022 0.444854691 0.3017768298
C -3.4144012757 -0.1768033534 -1.0606482569
C -2.3021764807 -1.2958694739 -0.9957108556
O -2.2559365548 -2.2927167512 -1.7519845998
O 5.1716821765 -1.5408833596 0.0328238168
O -1.3542961606 -1.0233347494 0.0258611778
O -2.7884315645 -0.5129515034 2.3618440094
C -0.3876110774 -2.1446449098 0.1478817785
C -5.3398808917 -0.3161698847 0.4588960134
C -6.3926850185 0.4715042115 -0.4134222505
C -5.8781423434 0.1281805003 -1.8616756963
C -4.7323779714 -0.913084801 -1.5490761348
O -5.1716667401 -1.5765268669 -0.2967995897
H -4.1382565247 1.5181733869 0.1220337735
H -3.0816963744 0.6213451863 -1.7504199568
H -5.6387258439 -0.5266647811 1.5040531205
H -7.405705069 0.0724750642 -0.2437528141
H -6.395803984 1.5528174563 -0.2027041808
H -6.6667951876 -0.3362621186 -2.4743508732
H -5.4946204661 1.0123188551 -2.3960414574
H -4.5347760889 -1.6667843358 -2.3360273218
O 2.5031817059 -0.605252808 1.4375591921
C 5.238732979 -2.9568653316 0.4613910971
C 4.8854216817 1.2459955592 -0.383614281
C 5.0636743611 2.386284664 -1.4575577011
C 3.6557983217 3.0839232722 -1.3622418133
C 3.0246099074 2.3502671122 -0.1085336477
O 4.1883166688 1.9524758057 0.7159479809
H 3.8653229173 0.2466245733 -2.0691043878
H 1.6909678369 0.977576508 -1.3507528921
H 5.1043235781 -3.6503420005 -0.3938526964
H 5.8111471928 0.7621985271 -0.0182672895
H 5.8717575438 3.0733302191 -1.1584956252
H 5.2834052218 1.9943735096 -2.4633315739
H 3.74568126 4.1652299818 -1.17350652
H 3.0481162609 2.9347664921 -2.2696530724
H 2.3431336609 2.9855212669 0.4857700664
H 4.4658640029 -3.1828656914 1.2240557618
H 6.2445053084 -3.0966386824 0.8984320728
H -0.048643845 -2.1514224952 1.19992275
H 0.4917966896 -1.994011688 -0.5142115354
H -0.8713782665 -3.1062316197 -0.112730862
H -0.8956604026 1.0190039187 2.9314897815
H -1.0118588814 2.8135829781 2.7200783939
H -0.6097628889 1.939878661 0.0516805747
H 0.6886756688 2.5110104332 1.1630185461
$end

$rem
JOBTYPE                   OPT
METHOD                    B3LYP
DFT_D                     d3_op
BASIS                     STO-3G
GEOM_OPT_MAX_CYCLES       100
GEOM_OPT_TOL_GRADIENT     300
GEOM_OPT_TOL_DISPLACEMENT 1200
GEOM_OPT_TOL_ENERGY       100
SYMMETRY                  False
THRESH                    12
SCF_CONVERGENCE           8
MAX_SUB_FILE_NUM          128
MEM_STATIC                400
MEM_TOTAL                 4000
$end
--------------------------------------------------------------

   16   -1510.2464167526      6.08E-09 Convergence criterion met
 Total energy in the final basis set = -1510.24641675
   14   -1510.2514092840      1.75E-09 Convergence criterion met
 Total energy in the final basis set = -1510.25140928
   14   -1510.2576610989      8.91E-09 Convergence criterion met
 Total energy in the final basis set = -1510.25766110
   14   -1510.2617024136      3.17E-09 Convergence criterion met
 Total energy in the final basis set = -1510.26170241
   13   -1510.2654472015      8.25E-09 Convergence criterion met
 Total energy in the final basis set = -1510.26544720
   13   -1510.2684300433      9.42E-09 Convergence criterion met
 Total energy in the final basis set = -1510.26843004
   13   -1510.2709010057      5.80E-09 Convergence criterion met
 Total energy in the final basis set = -1510.27090101
   13   -1510.2729302383      4.55E-09 Convergence criterion met
   12   -1510.2946281876      4.95E-09 Convergence criterion met
 Total energy in the final basis set = -1510.29462819
   12   -1510.2946497442      4.17E-09 Convergence criterion met
 Total energy in the final basis set = -1510.29464974
   12   -1510.2946778336      2.68E-09 Convergence criterion met
 Total energy in the final basis set = -1510.29467783
   12   -1510.2946786917      2.62E-09 Convergence criterion met
 Total energy in the final basis set = -1510.29467869
   11   -1510.2946809062      2.82E-09 Convergence criterion met
 Total energy in the final basis set = -1510.29468091
    9   -1510.2946826667      6.66E-09 Convergence criterion met
 Total energy in the final basis set = -1510.29468267

             Standard Nuclear Orientation (Angstroms)
    I     Atom           X                Y                Z
 ----------------------------------------------------------------
    1      O       2.5640025608    -2.6390742423     0.7474697844
    2      C       2.9366182940    -1.6228290274     0.1040192073
    3      C       1.9929987638    -0.5118737466    -0.4845781523
    4      C       1.7789819051     0.7285850297     0.4739890398
    5      C       2.4646333649     0.5389092791     1.8668389490
    6      O       2.0527224009     1.3543689807     2.9794945727
    7      C       0.9240603843     2.2781126959     2.7364925458
    8      C      -0.4837723489     1.5715603966     2.6329334839
    9      O      -0.8645571725     1.5495875871     1.1978780820
   10      C      -2.0460784603     0.7466587776     0.9820132970
   11      C      -2.3891133925     0.8100847492    -0.5462525100
   12      C      -2.2978477488    -0.5917818276    -1.2837557170
   13      C      -1.8876509590    -1.7767599346    -0.3396724993
   14      O      -2.4531753863    -2.8840295384    -0.2229773365
   15      O       4.2794510313    -1.4127030968    -0.3219648924
   16      O      -0.7088216851    -1.3777728605     0.3631913446
   17      O      -2.6707982326     0.1825289769     1.9024627288
   18      C      -0.2618170615    -2.4181312491     1.3275300288
   19      C      -3.9225078140     1.1642272849    -0.7877627092
   20      C      -4.0933378327     1.6031412821    -2.2963139953
   21      C      -3.9940943480     0.2140701248    -3.0306588072
   22      C      -3.7814430938    -0.7617451344    -1.8083871491
   23      O      -4.5923795446    -0.1526339303    -0.7279315134
   24      H      -1.7191091394     1.5516540994    -1.0141762858
   25      H      -1.5715576984    -0.5447730772    -2.1166361578
   26      H      -4.3577055805     1.8558061200    -0.0405473877
   27      H      -5.0781606243     2.0722852450    -2.4493924809
   28      H      -3.3110765588     2.3106734792    -2.6148742972
   29      H      -4.9276995385    -0.0289241300    -3.5623738796
   30      H      -3.1574823065     0.1702100879    -3.7461182363
   31      H      -4.0791683737    -1.8163493350    -1.9681444834
   32      O       3.3745345735    -0.2918727794     2.0993187565
   33      C       5.1610540856    -2.4407760692     0.2767059739
   34      C       2.5938040728     0.2033238547    -1.7605026564
   35      C       1.4435255982     1.0472285420    -2.4477540423
   36      C       1.3606057371     2.2949417754    -1.4932637146
   37      C       2.4248882473     1.8993665109    -0.3966297171
   38      O       3.4876058955     1.2326253987    -1.1782807741
   39      H       1.0060251285    -0.9807429570    -0.6663777803
   40      H       0.6935558646     0.9169460180     0.6128863089
   41      H       4.8591041526    -3.4645190108    -0.0257947496
   42      H       3.1612354151    -0.4604575845    -2.4403739059
   43      H       1.7303625604     1.3366213921    -3.4711485333
   44      H       0.4959855792     0.4866088159    -2.4908777124
   45      H       1.6632947270     3.2197749909    -2.0098553275
   46      H       0.3575439662     2.4390348702    -1.0608637801
   47      H       2.8459615813     2.7436902890     0.1830857587
   48      H       5.1491112652    -2.3777091577     1.3837990312
   49      H       6.1779468439    -2.2247199221    -0.0989169486
   50      H      -0.4615756555    -2.0518605912     2.3537285431
   51      H       0.8401119535    -2.5744262613     1.1684100604
   52      H      -0.8339216679    -3.3497171733     1.1543569384
   53      H      -0.4313828652     0.5412690302     3.0477220514
   54      H      -1.2413361012     2.1393392100     3.2148273979
   55      H       1.0758998766     2.9126586494     1.8370796725
   56      H       0.9256857001     2.9384733437     3.6275384608
 ----------------------------------------------------------------

    9   -1510.2946832490      2.96E-09 Convergence criterion met
 Total energy in the final basis set = -1510.29468325
 Final energy is   -1510.29468324898
 **  OPTIMIZATION CONVERGED  **

                    Orbital Energies (a.u.)
 --------------------------------------------------------------

 Alpha MOs
 -- Occupied --
-18.953 -18.940 -18.935 -18.931 -18.895 -18.892 -18.888 -18.884
-18.883 -18.866 -10.115 -10.105 -10.104 -10.098 -10.090 -10.088
-10.069 -10.064 -10.062 -10.059 -10.056 -10.049 -10.046 -10.031
-10.027 -10.026 -10.026 -10.023 -10.022 -10.022  -1.028  -1.013
 -1.012  -1.003  -0.977  -0.970  -0.955  -0.942  -0.940  -0.929
 -0.773  -0.761  -0.734  -0.723  -0.721  -0.709  -0.705  -0.655
 -0.651  -0.625  -0.599  -0.593  -0.554  -0.548  -0.544  -0.541
 -0.521  -0.515  -0.492  -0.484  -0.472  -0.466  -0.461  -0.448
 -0.435  -0.433  -0.429  -0.418  -0.412  -0.410  -0.407  -0.403
 -0.399  -0.395  -0.384  -0.371  -0.367  -0.363  -0.356  -0.354
 -0.346  -0.340  -0.337  -0.334  -0.331  -0.328  -0.320  -0.318
 -0.314  -0.311  -0.310  -0.309  -0.302  -0.289  -0.284  -0.279
 -0.275  -0.265  -0.252  -0.249  -0.244  -0.241  -0.233  -0.194
 -0.181  -0.178  -0.170  -0.169  -0.160  -0.154  -0.151  -0.145
 -0.141

          Ground-State Mulliken Net Atomic Charges

     Atom                 Charge (a.u.)
  ----------------------------------------
      1 O                    -0.225341
      2 C                     0.222474
      3 C                    -0.088159
      4 C                    -0.106135
      5 C                     0.208512
      6 O                    -0.168857
      7 C                    -0.048434
      8 C                    -0.051723
      9 O                    -0.176565
     10 C                     0.216548
     11 C                    -0.079599
     12 C                    -0.078425
     13 C                     0.213996
     14 O                    -0.204648
     15 O                    -0.162278
     16 O                    -0.182896
     17 O                    -0.203353
     18 C                    -0.158950
     19 C                     0.026107
     20 C                    -0.143812
     21 C                    -0.144051
     22 C                     0.024695
     23 O                    -0.184894
     24 H                     0.083150
     25 H                     0.081954
     26 H                     0.084195
     27 H                     0.079765
     28 H                     0.073186
     29 H                     0.080071
     30 H                     0.073377
     31 H                     0.093189
     32 O                    -0.197118
     33 C                    -0.126223
     34 C                     0.025650
     35 C                    -0.144041
     36 C                    -0.144356
     37 C                     0.022512
     38 O                    -0.185690
     39 H                     0.095289
     40 H                     0.107236
     41 H                     0.087223
     42 H                     0.086273
     43 H                     0.076689
     44 H                     0.068043
     45 H                     0.076055
     46 H                     0.072287
     47 H                     0.077799
     48 H                     0.096658
     49 H                     0.089909
     50 H                     0.074459
     51 H                     0.118870
     52 H                     0.092505
     53 H                     0.099216
     54 H                     0.091251
     55 H                     0.090357
     56 H                     0.096051
  ----------------------------------------
  Sum of atomic charges =     0.000000

                    Cartesian Multipole Moments
 -----------------------------------------------------------------
    Charge (ESU x 10^10)
                 0.0000
    Dipole Moment (Debye)
         X      -0.7794      Y       3.6195      Z      -2.3503
       Tot       4.3855
    Quadrupole Moments (Debye-Ang)
        XX    -176.4938     XY     -10.9834     YY    -157.5119
        XZ       1.9952     YZ       6.2002     ZZ    -156.0701

 Total job time:  151.07s(wall), 7206.42s(cpu)
        *  Thank you very much for using Q-Chem.  Have a nice day.  *
