 Q-Chem 5.0, Q-Chem, Inc., Pleasanton, CA (2017)
 Q-Chem 5.0.1 for Intel X86 EM64T Linux

User input:
--------------------------------------------------------------
$molecule
0  1
O -3.94934 -3.66094 2.70899
C -3.26408 -4.56952 2.26188
C -3.36658 -6.02376 2.66595
C -4.77372 -6.64113 2.71769
C -5.90468 -5.78727 2.1886
O -7.098 -6.2511 2.66429
C -7.24283 -7.66939 2.5349
C -8.68022 -8.0193 2.16398
O -9.36957 -8.53799 3.3123
C -9.91772 -7.60768 4.13279
C -9.80203 -7.97067 5.59413
C -8.72741 -7.19562 6.37052
C -8.18738 -5.9537 5.69029
O -7.89497 -4.90812 6.25226
O -2.41179 -4.27224 1.24369
O -8.53846 -5.65582 4.42074
O -10.74355 -6.80563 3.71278
C -8.66689 -4.38109 3.87148
C -11.05522 -7.62519 6.42888
C -11.10611 -8.51364 7.67042
C -9.94904 -7.94857 8.46756
C -9.56773 -6.75267 7.58596
O -10.77871 -6.36421 6.98494
H -9.64938 -9.07313 5.65656
H -7.85134 -7.82397 6.64088
H -12.00591 -7.71286 5.85883
H -12.05559 -8.26907 8.19911
H -11.06479 -9.60879 7.48671
H -10.33538 -7.61405 9.45586
H -9.08608 -8.63563 8.60551
H -9.05887 -5.97757 8.19981
O -5.84284 -4.73903 1.57042
C -2.23188 -3.01031 0.71653
C -2.54502 -6.98648 1.80124
C -2.14946 -8.20622 2.61966
C -3.48978 -8.87187 2.7701
C -4.36662 -7.94892 1.90357
O -3.49109 -7.48807 0.90714
H -2.93963 -6.01254 3.69532
H -5.0139 -6.86806 3.78273
H -1.86323 -2.31658 1.5021
H -1.63115 -6.54356 1.35081
H -1.50209 -8.84058 1.97187
H -1.61811 -7.98849 3.57119
H -3.41149 -9.89033 2.32491
H -3.87282 -8.95094 3.81049
H -5.10791 -8.64687 1.50462
H -3.18836 -2.6306 0.29778
H -1.48035 -3.06025 -0.09781
H -8.99187 -4.46643 2.81402
H -7.69548 -3.84243 3.90663
H -9.43789 -3.80379 4.42508
H -9.22845 -7.22424 1.60885
H -8.66106 -8.90085 1.47815
H -6.77731 -8.3077 3.31782
H -6.88155 -7.87448 1.51468
$end

$opt
CONSTRAINT
tors           1           2           3           4     +47.368
tors           3           4           5           6    -161.053
tors           4           5           6           7     -47.368
tors           5           6           7           8    -142.105
tors           6           7           8           9    -104.211
tors           7           8           9          10     +85.263
tors           8           9          10          11    -142.105
tors           9          10          11          12    +104.211
tors          11          12          13          14    +142.105
ENDCONSTRAINT
$end

$rem
JOBTYPE                   OPT
METHOD                    B3LYP
DFT_D                     d3_op
BASIS                     STO-3G
GEOM_OPT_MAX_CYCLES       100
GEOM_OPT_TOL_GRADIENT     300
GEOM_OPT_TOL_DISPLACEMENT 1200
GEOM_OPT_TOL_ENERGY       100
SYMMETRY                  False
THRESH                    12
SCF_CONVERGENCE           8
MAX_SUB_FILE_NUM          128
MEM_STATIC                400
MEM_TOTAL                 4000
$end
--------------------------------------------------------------

   16   -1510.0519891408      2.38E-09 Convergence criterion met
 Total energy in the final basis set = -1510.05198914
   14   -1510.1354792200      8.82E-09 Convergence criterion met
 Total energy in the final basis set = -1510.13547922
   14   -1510.1815000411      8.64E-09 Convergence criterion met
 Total energy in the final basis set = -1510.18150004
   15   -1510.2102659090      2.36E-09 Convergence criterion met
 Total energy in the final basis set = -1510.21026591
   14   -1510.2252532708      3.23E-09 Convergence criterion met
 Total energy in the final basis set = -1510.22525327
   13   -1510.2333806377      8.33E-09 Convergence criterion met
 Total energy in the final basis set = -1510.23338064
   13   -1510.2384117948      6.05E-09 Convergence criterion met
 Total energy in the final basis set = -1510.23841179
   13   -1510.2416408949      4.40E-09 Convergence criterion met
   11   -1510.2465913239      4.13E-09 Convergence criterion met
 Total energy in the final basis set = -1510.24659132
   10   -1510.2466002293      8.87E-09 Convergence criterion met
 Total energy in the final basis set = -1510.24660023
    9   -1510.2466055888      6.65E-09 Convergence criterion met
 Total energy in the final basis set = -1510.24660559
    9   -1510.2466083518      4.32E-09 Convergence criterion met
 Total energy in the final basis set = -1510.24660835
    9   -1510.2466110671      6.79E-09 Convergence criterion met
 Total energy in the final basis set = -1510.24661107
    9   -1510.2466122955      5.29E-09 Convergence criterion met
 Total energy in the final basis set = -1510.24661230

             Standard Nuclear Orientation (Angstroms)
    I     Atom           X                Y                Z
 ----------------------------------------------------------------
    1      O       3.0039240978    -2.1359978835    -0.7235588167
    2      C       3.8919374335    -1.2721141844    -0.5445384653
    3      C       3.8034928563     0.2427590376    -0.9639370384
    4      C       2.4387454681     0.9280288574    -0.5397168718
    5      C       1.8484256235     0.2046540621     0.7426100602
    6      O       0.4601015772     0.3754770126     1.0478336675
    7      C      -0.0907928741     1.7392012087     1.0168721022
    8      C      -1.1235802812     1.8347869495     2.2097419746
    9      O      -2.5212507259     1.7778737354     1.7476953784
   10      C      -3.0281959823     0.4275765430     1.5784086436
   11      C      -3.9448696022     0.4448546910     0.3017768298
   12      C      -3.4144012757    -0.1768033534    -1.0606482569
   13      C      -2.3021764807    -1.2958694739    -0.9957108556
   14      O      -2.2559365548    -2.2927167512    -1.7519845998
   15      O       5.1716821765    -1.5408833596     0.0328238168
   16      O      -1.3542961606    -1.0233347494     0.0258611778
   17      O      -2.7884315645    -0.5129515034     2.3618440094
   18      C      -0.3876110774    -2.1446449098     0.1478817785
   19      C      -5.3398808917    -0.3161698847     0.4588960134
   20      C      -6.3926850185     0.4715042115    -0.4134222505
   21      C      -5.8781423434     0.1281805003    -1.8616756963
   22      C      -4.7323779714    -0.9130848010    -1.5490761348
   23      O      -5.1716667401    -1.5765268669    -0.2967995897
   24      H      -4.1382565247     1.5181733869     0.1220337735
   25      H      -3.0816963744     0.6213451863    -1.7504199568
   26      H      -5.6387258439    -0.5266647811     1.5040531205
   27      H      -7.4057050690     0.0724750642    -0.2437528141
   28      H      -6.3958039840     1.5528174563    -0.2027041808
   29      H      -6.6667951876    -0.3362621186    -2.4743508732
   30      H      -5.4946204661     1.0123188551    -2.3960414574
   31      H      -4.5347760889    -1.6667843358    -2.3360273218
   32      O       2.5031817059    -0.6052528080     1.4375591921
   33      C       5.2387329790    -2.9568653316     0.4613910971
   34      C       4.8854216817     1.2459955592    -0.3836142810
   35      C       5.0636743611     2.3862846640    -1.4575577011
   36      C       3.6557983217     3.0839232722    -1.3622418133
   37      C       3.0246099074     2.3502671122    -0.1085336477
   38      O       4.1883166688     1.9524758057     0.7159479809
   39      H       3.8653229173     0.2466245733    -2.0691043878
   40      H       1.6909678369     0.9775765080    -1.3507528921
   41      H       5.1043235781    -3.6503420005    -0.3938526964
   42      H       5.8111471928     0.7621985271    -0.0182672895
   43      H       5.8717575438     3.0733302191    -1.1584956252
   44      H       5.2834052218     1.9943735096    -2.4633315739
   45      H       3.7456812600     4.1652299818    -1.1735065200
   46      H       3.0481162609     2.9347664921    -2.2696530724
   47      H       2.3431336609     2.9855212669     0.4857700664
   48      H       4.4658640029    -3.1828656914     1.2240557618
   49      H       6.2445053084    -3.0966386824     0.8984320728
   50      H      -0.0486438450    -2.1514224952     1.1999227500
   51      H       0.4917966896    -1.9940116880    -0.5142115354
   52      H      -0.8713782665    -3.1062316197    -0.1127308620
   53      H      -0.8956604026     1.0190039187     2.9314897815
   54      H      -1.0118588814     2.8135829781     2.7200783939
   55      H      -0.6097628889     1.9398786610     0.0516805747
   56      H       0.6886756688     2.5110104332     1.1630185461
 ----------------------------------------------------------------

    8   -1510.2466131799      9.18E-09 Convergence criterion met
 Total energy in the final basis set = -1510.24661318
 Final energy is   -1510.24661317987
 **  OPTIMIZATION CONVERGED  **

                    Orbital Energies (a.u.)
 --------------------------------------------------------------

 Alpha MOs
 -- Occupied --
-18.931 -18.930 -18.926 -18.915 -18.893 -18.891 -18.884 -18.883
-18.864 -18.862 -10.108 -10.101 -10.097 -10.092 -10.082 -10.075
-10.069 -10.062 -10.059 -10.056 -10.054 -10.046 -10.044 -10.038
-10.038 -10.033 -10.028 -10.024 -10.019 -10.017  -1.014  -1.006
 -1.003  -1.000  -0.977  -0.967  -0.945  -0.934  -0.929  -0.926
 -0.767  -0.759  -0.727  -0.721  -0.714  -0.710  -0.697  -0.658
 -0.650  -0.617  -0.602  -0.584  -0.551  -0.544  -0.540  -0.535
 -0.522  -0.507  -0.491  -0.472  -0.465  -0.462  -0.455  -0.441
 -0.440  -0.432  -0.425  -0.414  -0.408  -0.406  -0.404  -0.399
 -0.393  -0.384  -0.375  -0.373  -0.368  -0.358  -0.351  -0.344
 -0.341  -0.337  -0.334  -0.331  -0.327  -0.325  -0.322  -0.316
 -0.307  -0.306  -0.301  -0.299  -0.295  -0.291  -0.287  -0.279
 -0.268  -0.252  -0.247  -0.241  -0.237  -0.233  -0.231  -0.180
 -0.173  -0.167  -0.163  -0.156  -0.155  -0.151  -0.144  -0.144
 -0.140

          Ground-State Mulliken Net Atomic Charges

     Atom                 Charge (a.u.)
  ----------------------------------------
      1 O                    -0.224859
      2 C                     0.216406
      3 C                    -0.079876
      4 C                    -0.082797
      5 C                     0.219178
      6 O                    -0.178349
      7 C                    -0.044131
      8 C                    -0.045889
      9 O                    -0.189195
     10 C                     0.219001
     11 C                    -0.082885
     12 C                    -0.077051
     13 C                     0.208510
     14 O                    -0.217812
     15 O                    -0.170150
     16 O                    -0.166260
     17 O                    -0.192847
     18 C                    -0.129091
     19 C                     0.024106
     20 C                    -0.142153
     21 C                    -0.145997
     22 C                     0.023709
     23 O                    -0.189476
     24 H                     0.083018
     25 H                     0.080390
     26 H                     0.084795
     27 H                     0.077632
     28 H                     0.072717
     29 H                     0.078257
     30 H                     0.071871
     31 H                     0.092254
     32 O                    -0.187881
     33 C                    -0.127090
     34 C                     0.023671
     35 C                    -0.141643
     36 C                    -0.145475
     37 C                     0.022839
     38 O                    -0.190218
     39 H                     0.081551
     40 H                     0.083555
     41 H                     0.087695
     42 H                     0.096002
     43 H                     0.078784
     44 H                     0.074493
     45 H                     0.078242
     46 H                     0.073330
     47 H                     0.074507
     48 H                     0.094456
     49 H                     0.089339
     50 H                     0.099172
     51 H                     0.092224
     52 H                     0.095140
     53 H                     0.101972
     54 H                     0.086583
     55 H                     0.084069
     56 H                     0.081653
  ----------------------------------------
  Sum of atomic charges =     0.000000

                    Cartesian Multipole Moments
 -----------------------------------------------------------------
    Charge (ESU x 10^10)
                 0.0000
    Dipole Moment (Debye)
         X       1.1481      Y       4.4076      Z      -2.3913
       Tot       5.1443
    Quadrupole Moments (Debye-Ang)
        XX    -152.6277     XY     -10.1637     YY    -158.5475
        XZ      -3.0615     YZ      -3.8047     ZZ    -161.7390

 Total job time:  75.33s(wall), 3585.24s(cpu)
        *  Thank you very much for using Q-Chem.  Have a nice day.  *
