 Q-Chem 5.0, Q-Chem, Inc., Pleasanton, CA (2017)
 Q-Chem 5.0.1 for Intel X86 EM64T Linux

User input:
--------------------------------------------------------------
$molecule
0  1
O -3.94934 -3.66094 2.70899
C -3.26408 -4.56952 2.26188
C -3.36658 -6.02376 2.66595
C -4.66266 -6.76517 2.29943
C -5.63801 -6.02118 1.41441
O -5.57726 -6.51242 0.14145
C -4.54321 -5.91156 -0.64528
C -4.27173 -4.49131 -0.16017
O -5.46261 -3.93631 0.42007
C -5.34633 -2.66973 0.8906
C -6.62999 -2.14357 1.48728
C -7.86375 -3.02669 1.25014
C -7.58413 -4.44058 0.78172
O -6.57525 -5.08388 1.03251
O -2.0138 -4.2487 1.80949
O -8.52353 -4.94642 -0.06535
O -4.35171 -1.9679 0.77172
C -8.52454 -6.19712 -0.64409
C -6.60811 -2.03141 3.01606
C -7.66602 -1.02699 3.47235
C -8.93418 -1.80937 3.19975
C -8.34087 -3.13737 2.71479
O -7.14228 -3.25714 3.44544
H -6.79095 -1.14349 1.02481
H -8.65539 -2.5729 0.61252
H -5.61196 -1.75307 3.4224
H -7.55637 -0.90048 4.57313
H -7.60736 -0.03231 2.97968
H -9.468 -1.95801 4.16473
H -9.62156 -1.35713 2.45206
H -9.07775 -3.95955 2.85557
O -6.75508 -6.80557 1.86524
C -1.47406 -2.98118 1.70499
C -2.29795 -7.01004 2.13492
C -2.1554 -8.18987 3.09927
C -3.44184 -8.94054 2.81903
C -4.04143 -8.06612 1.71152
O -2.90135 -7.61426 1.02496
H -3.24663 -5.97164 3.77296
H -5.1419 -7.018 3.28421
H -1.5056 -2.46315 2.68819
H -1.3004 -6.55361 1.96335
H -1.30087 -8.81421 2.75209
H -1.99141 -7.90399 4.16056
H -3.17906 -9.93833 2.40093
H -4.12081 -9.06861 3.68928
H -4.77123 -8.6621 1.12162
H -2.00047 -2.38384 0.93775
H -0.41569 -3.07188 1.38529
H -9.43179 -6.29894 -1.2741
H -8.56127 -6.98543 0.13529
H -7.63606 -6.32595 -1.29416
H -3.26356 -4.10038 -0.02691
H -4.19318 -3.95275 -1.13325
H -4.99707 -5.8295 -1.65914
H -3.65003 -6.53059 -0.82896
$end

$opt
CONSTRAINT
tors           1           2           3           4     +66.316
tors           3           4           5           6    +104.211
tors           4           5           6           7     -85.263
tors           5           6           7           8     -28.421
tors           6           7           8           9     -28.421
tors           7           8           9          10    -180.000
tors           8           9          10          11    -180.000
tors           9          10          11          12      -9.474
tors          11          12          13          14     +28.421
ENDCONSTRAINT
$end

$rem
JOBTYPE                   OPT
METHOD                    B3LYP
DFT_D                     d3_op
BASIS                     STO-3G
GEOM_OPT_MAX_CYCLES       100
GEOM_OPT_TOL_GRADIENT     300
GEOM_OPT_TOL_DISPLACEMENT 1200
GEOM_OPT_TOL_ENERGY       100
SYMMETRY                  False
THRESH                    12
SCF_CONVERGENCE           8
MAX_SUB_FILE_NUM          128
MEM_STATIC                400
MEM_TOTAL                 4000
$end
--------------------------------------------------------------

   19   -1509.7039771304      3.34E-09 Convergence criterion met
 Total energy in the final basis set = -1509.70397713
   15   -1509.8202043291      7.22E-09 Convergence criterion met
 Total energy in the final basis set = -1509.82020433
   16   -1509.9034827271      3.72E-09 Convergence criterion met
 Total energy in the final basis set = -1509.90348273
   15   -1509.9682215413      5.19E-09 Convergence criterion met
 Total energy in the final basis set = -1509.96822154
   15   -1510.0192382077      3.78E-09 Convergence criterion met
 Total energy in the final basis set = -1510.01923821
   15   -1510.0592923037      4.20E-09 Convergence criterion met
 Total energy in the final basis set = -1510.05929230
   15   -1510.0915430162      3.85E-09 Convergence criterion met
 Total energy in the final basis set = -1510.09154302
   14   -1510.1179341423      9.48E-09 Convergence criterion met
   11   -1510.2493647392      5.72E-09 Convergence criterion met
 Total energy in the final basis set = -1510.24936474
   11   -1510.2493920981      6.80E-09 Convergence criterion met
 Total energy in the final basis set = -1510.24939210
   11   -1510.2494020189      4.31E-09 Convergence criterion met
 Total energy in the final basis set = -1510.24940202
    9   -1510.2494109654      9.51E-09 Convergence criterion met
 Total energy in the final basis set = -1510.24941097
    9   -1510.2494136837      6.32E-09 Convergence criterion met
 Total energy in the final basis set = -1510.24941368
   10   -1510.2494159128      6.30E-09 Convergence criterion met
 Total energy in the final basis set = -1510.24941591

             Standard Nuclear Orientation (Angstroms)
    I     Atom           X                Y                Z
 ----------------------------------------------------------------
    1      O      -0.2481897658    -2.1258579544     0.9701479191
    2      C      -1.4209322813    -1.9098858813     0.6013005294
    3      C      -2.4527716828    -0.9283645641     1.2613388811
    4      C      -2.1636256723     0.6385126291     1.2112016105
    5      C      -0.9823224416     1.2433879786     0.3124816129
    6      O      -1.4645586459     1.8784854702    -0.9009386878
    7      C      -1.6833128324     0.9856738651    -2.0608937654
    8      C      -0.8050301918    -0.3178728859    -2.1688372663
    9      O       0.4845888332    -0.0341274330    -1.4860890398
   10      C       1.3686875175    -1.1364422878    -1.5144178979
   11      C       2.7335620313    -0.8340972285    -0.7910475841
   12      C       3.1262143329     0.6255355399    -0.3140868033
   13      C       2.5747637356     1.9205942055    -1.0154612489
   14      O       1.5260944058     2.1770806008    -1.6387380405
   15      O      -2.0405048214    -2.5859081658    -0.5067319763
   16      O       3.5814640931     2.9219194534    -0.7575155876
   17      O       1.1137278233    -2.2364238522    -2.0671886204
   18      C       3.1434656368     4.2255091938    -1.3021671424
   19      C       2.6303242044    -1.5418354251     0.6393324851
   20      C       4.0464562503    -1.5651410304     1.3437063833
   21      C       4.1384084637    -0.0991453381     1.9099195338
   22      C       2.8498148319     0.5372738966     1.2598439508
   23      O       1.8518382648    -0.5423406698     1.4060601529
   24      H       3.5323259828    -1.2780455883    -1.4121071824
   25      H       4.2198961727     0.7142669784    -0.4485623574
   26      H       2.0923606185    -2.5088245496     0.6191995563
   27      H       4.0661747636    -2.3172125142     2.1481190845
   28      H       4.8531720907    -1.7925703252     0.6283746317
   29      H       4.0552591702    -0.0880303658     3.0087907587
   30      H       5.0648966131     0.4198300631     1.6171901267
   31      H       2.4837165418     1.4729440452     1.7223342894
   32      O       0.1412038997     1.5140887833     0.7801730709
   33      C      -1.1616282760    -3.6751211627    -1.0097669797
   34      C      -3.9168783289    -0.9934919334     0.6425954291
   35      C      -4.9378222025    -0.5577496287     1.7639193288
   36      C      -4.6452202899     0.9863037158     1.8465043337
   37      C      -3.5732492108     1.1611492419     0.6984296806
   38      O      -3.9617217971     0.1418161008    -0.3051876831
   39      H      -2.4851326221    -1.2287180025     2.3257688264
   40      H      -1.9519435956     0.9916989974     2.2368597356
   41      H      -0.8725062826    -4.3624943107    -0.1908334675
   42      H      -4.1435821388    -1.9443353712     0.1243170255
   43      H      -5.9714104822    -0.7548610350     1.4372364646
   44      H      -4.7621522107    -1.0796869640     2.7180910148
   45      H      -5.5457134274     1.5826175168     1.6299134190
   46      H      -4.2483725253     1.2900377481     2.8283914898
   47      H      -3.5321180043     2.1626677120     0.2301748120
   48      H      -0.2459633299    -3.2481045485    -1.4899470983
   49      H      -1.7656445980    -4.2200902940    -1.7574128747
   50      H       3.9185192334     4.9568583110    -1.0072792811
   51      H       2.1621222531     4.5352183398    -0.8882959092
   52      H       3.0622718678     4.2012025247    -2.4085187055
   53      H      -1.3356927227    -1.1652618351    -1.6780653760
   54      H      -0.6369696891    -0.5722723136    -3.2369985371
   55      H      -1.5073800990     1.6328803101    -2.9451901768
   56      H      -2.7489788605     0.6524635712    -2.0581745964
 ----------------------------------------------------------------

    9   -1510.2494154492      8.89E-09 Convergence criterion met
 Total energy in the final basis set = -1510.24941545
 Final energy is   -1510.24941544916
 **  OPTIMIZATION CONVERGED  **

                    Orbital Energies (a.u.)
 --------------------------------------------------------------

 Alpha MOs
 -- Occupied --
-18.940 -18.933 -18.915 -18.891 -18.890 -18.888 -18.880 -18.877
-18.868 -18.868 -10.101 -10.101 -10.097 -10.086 -10.059 -10.058
-10.057 -10.055 -10.053 -10.048 -10.048 -10.042 -10.037 -10.032
-10.029 -10.026 -10.019 -10.018 -10.012 -10.010  -1.015  -1.009
 -0.996  -0.990  -0.970  -0.959  -0.936  -0.935  -0.922  -0.919
 -0.759  -0.753  -0.718  -0.716  -0.705  -0.699  -0.691  -0.652
 -0.651  -0.605  -0.594  -0.575  -0.542  -0.535  -0.532  -0.528
 -0.509  -0.506  -0.480  -0.467  -0.456  -0.448  -0.446  -0.434
 -0.429  -0.425  -0.422  -0.415  -0.405  -0.400  -0.398  -0.396
 -0.392  -0.369  -0.367  -0.361  -0.356  -0.348  -0.344  -0.337
 -0.337  -0.331  -0.330  -0.329  -0.324  -0.318  -0.315  -0.308
 -0.305  -0.303  -0.296  -0.291  -0.285  -0.282  -0.279  -0.275
 -0.262  -0.256  -0.250  -0.242  -0.235  -0.223  -0.217  -0.175
 -0.174  -0.165  -0.156  -0.151  -0.149  -0.141  -0.137  -0.134
 -0.131

          Ground-State Mulliken Net Atomic Charges

     Atom                 Charge (a.u.)
  ----------------------------------------
      1 O                    -0.203036
      2 C                     0.206684
      3 C                    -0.081559
      4 C                    -0.082579
      5 C                     0.225381
      6 O                    -0.192311
      7 C                    -0.046852
      8 C                    -0.061779
      9 O                    -0.153808
     10 C                     0.219537
     11 C                    -0.077306
     12 C                    -0.079274
     13 C                     0.211810
     14 O                    -0.197589
     15 O                    -0.175942
     16 O                    -0.177508
     17 O                    -0.229024
     18 C                    -0.129614
     19 C                     0.025286
     20 C                    -0.146102
     21 C                    -0.142267
     22 C                     0.029173
     23 O                    -0.180824
     24 H                     0.083693
     25 H                     0.083469
     26 H                     0.091873
     27 H                     0.076858
     28 H                     0.071370
     29 H                     0.075986
     30 H                     0.072977
     31 H                     0.091413
     32 O                    -0.173559
     33 C                    -0.149297
     34 C                     0.022161
     35 C                    -0.143431
     36 C                    -0.145173
     37 C                     0.021729
     38 O                    -0.195144
     39 H                     0.085592
     40 H                     0.083776
     41 H                     0.081048
     42 H                     0.091810
     43 H                     0.077291
     44 H                     0.072986
     45 H                     0.077474
     46 H                     0.073699
     47 H                     0.090666
     48 H                     0.113752
     49 H                     0.083501
     50 H                     0.086070
     51 H                     0.089759
     52 H                     0.084307
     53 H                     0.097766
     54 H                     0.086530
     55 H                     0.086360
     56 H                     0.092189
  ----------------------------------------
  Sum of atomic charges =    -0.000000

                    Cartesian Multipole Moments
 -----------------------------------------------------------------
    Charge (ESU x 10^10)
                -0.0000
    Dipole Moment (Debye)
         X      -0.4371      Y      -0.4425      Z       0.7230
       Tot       0.9538
    Quadrupole Moments (Debye-Ang)
        XX    -147.3674     XY       3.0623     YY    -155.2054
        XZ      -5.4673     YZ      -0.7134     ZZ    -156.1967

 Total job time:  217.64s(wall), 10378.95s(cpu)
        *  Thank you very much for using Q-Chem.  Have a nice day.  *
