 Q-Chem 5.0, Q-Chem, Inc., Pleasanton, CA (2017)
 Q-Chem 5.0.1 for Intel X86 EM64T Linux

User input:
--------------------------------------------------------------
$molecule
0  1
O -0.2481897658 -2.1258579544 0.9701479191
C -1.4209322813 -1.9098858813 0.6013005294
C -2.4527716828 -0.9283645641 1.2613388811
C -2.1636256723 0.6385126291 1.2112016105
C -0.9823224416 1.2433879786 0.3124816129
O -1.4645586459 1.8784854702 -0.9009386878
C -1.6833128324 0.9856738651 -2.0608937654
C -0.8050301918 -0.3178728859 -2.1688372663
O 0.4845888332 -0.034127433 -1.4860890398
C 1.3686875175 -1.1364422878 -1.5144178979
C 2.7335620313 -0.8340972285 -0.7910475841
C 3.1262143329 0.6255355399 -0.3140868033
C 2.5747637356 1.9205942055 -1.0154612489
O 1.5260944058 2.1770806008 -1.6387380405
O -2.0405048214 -2.5859081658 -0.5067319763
O 3.5814640931 2.9219194534 -0.7575155876
O 1.1137278233 -2.2364238522 -2.0671886204
C 3.1434656368 4.2255091938 -1.3021671424
C 2.6303242044 -1.5418354251 0.6393324851
C 4.0464562503 -1.5651410304 1.3437063833
C 4.1384084637 -0.0991453381 1.9099195338
C 2.8498148319 0.5372738966 1.2598439508
O 1.8518382648 -0.5423406698 1.4060601529
H 3.5323259828 -1.2780455883 -1.4121071824
H 4.2198961727 0.7142669784 -0.4485623574
H 2.0923606185 -2.5088245496 0.6191995563
H 4.0661747636 -2.3172125142 2.1481190845
H 4.8531720907 -1.7925703252 0.6283746317
H 4.0552591702 -0.0880303658 3.0087907587
H 5.0648966131 0.4198300631 1.6171901267
H 2.4837165418 1.4729440452 1.7223342894
O 0.1412038997 1.5140887833 0.7801730709
C -1.161628276 -3.6751211627 -1.0097669797
C -3.9168783289 -0.9934919334 0.6425954291
C -4.9378222025 -0.5577496287 1.7639193288
C -4.6452202899 0.9863037158 1.8465043337
C -3.5732492108 1.1611492419 0.6984296806
O -3.9617217971 0.1418161008 -0.3051876831
H -2.4851326221 -1.2287180025 2.3257688264
H -1.9519435956 0.9916989974 2.2368597356
H -0.8725062826 -4.3624943107 -0.1908334675
H -4.1435821388 -1.9443353712 0.1243170255
H -5.9714104822 -0.754861035 1.4372364646
H -4.7621522107 -1.079686964 2.7180910148
H -5.5457134274 1.5826175168 1.629913419
H -4.2483725253 1.2900377481 2.8283914898
H -3.5321180043 2.162667712 0.230174812
H -0.2459633299 -3.2481045485 -1.4899470983
H -1.765644598 -4.220090294 -1.7574128747
H 3.9185192334 4.956858311 -1.0072792811
H 2.1621222531 4.5352183398 -0.8882959092
H 3.0622718678 4.2012025247 -2.4085187055
H -1.3356927227 -1.1652618351 -1.678065376
H -0.6369696891 -0.5722723136 -3.2369985371
H -1.507380099 1.6328803101 -2.9451901768
H -2.7489788605 0.6524635712 -2.0581745964
$end

$rem
JOBTYPE                   OPT
METHOD                    B3LYP
DFT_D                     d3_op
BASIS                     STO-3G
GEOM_OPT_MAX_CYCLES       100
GEOM_OPT_TOL_GRADIENT     300
GEOM_OPT_TOL_DISPLACEMENT 1200
GEOM_OPT_TOL_ENERGY       100
SYMMETRY                  False
THRESH                    12
SCF_CONVERGENCE           8
MAX_SUB_FILE_NUM          128
MEM_STATIC                400
MEM_TOTAL                 4000
$end
--------------------------------------------------------------

   16   -1510.2495087534      3.49E-09 Convergence criterion met
 Total energy in the final basis set = -1510.24950875
   15   -1510.2471890232      2.32E-09 Convergence criterion met
 Total energy in the final basis set = -1510.24718902
   15   -1510.2501307500      2.29E-09 Convergence criterion met
 Total energy in the final basis set = -1510.25013075
   14   -1510.2554873583      4.84E-09 Convergence criterion met
 Total energy in the final basis set = -1510.25548736
   15   -1510.2472972140      4.12E-09 Convergence criterion met
 Total energy in the final basis set = -1510.24729721
   15   -1510.2531329766      4.65E-09 Convergence criterion met
 Total energy in the final basis set = -1510.25313298
   15   -1510.2586336074      3.40E-09 Convergence criterion met
 Total energy in the final basis set = -1510.25863361
   13   -1510.2610146653      3.94E-09 Convergence criterion met
   13   -1510.2848935607      2.01E-09 Convergence criterion met
 Total energy in the final basis set = -1510.28489356
   12   -1510.2849158397      6.05E-09 Convergence criterion met
 Total energy in the final basis set = -1510.28491584
   10   -1510.2849127372      9.14E-09 Convergence criterion met
 Total energy in the final basis set = -1510.28491274
   11   -1510.2849209544      3.87E-09 Convergence criterion met
 Total energy in the final basis set = -1510.28492095
    9   -1510.2849211222      7.93E-09 Convergence criterion met
 Total energy in the final basis set = -1510.28492112
    9   -1510.2849200906      3.30E-09 Convergence criterion met
 Total energy in the final basis set = -1510.28492009

             Standard Nuclear Orientation (Angstroms)
    I     Atom           X                Y                Z
 ----------------------------------------------------------------
    1      O      -0.8599127316    -0.9586101935     0.0966465999
    2      C      -1.9953801373    -1.4281493526    -0.1510956822
    3      C      -3.2902683470    -1.0936129889     0.6597215066
    4      C      -3.0514387417     0.0955193377     1.6795859565
    5      C      -1.5281745910     0.5829513280     1.8252397054
    6      O      -1.0710736941     1.7897054932     1.2030944202
    7      C      -1.5249315767     2.0588747507    -0.1821799837
    8      C      -0.2931288379     1.8838128786    -1.1684599254
    9      O       0.8145121283     1.2298750890    -0.4351144857
   10      C       1.1881284135     0.0118600341    -1.0767267398
   11      C       2.1656210762    -0.7897973047    -0.1401359158
   12      C       3.7002120618    -0.4660867923    -0.3558851908
   13      C       3.9280214903     0.6789918509    -1.3960547647
   14      O       3.0535103528     1.2684860837    -2.0714946155
   15      O      -2.2917517841    -2.3373256600    -1.1956168668
   16      O       5.3238821435     0.9731022277    -1.4697626974
   17      O       0.6936822543    -0.3946741700    -2.1600200075
   18      C       5.5585003739     2.0716159532    -2.4363636295
   19      C       1.9958713814    -0.4305405184     1.4034332091
   20      C       2.6587811640    -1.5945753146     2.2420827126
   21      C       4.1894252935    -1.3071236957     2.0205906335
   22      C       4.1251655885    -0.0185281449     1.1097338062
   23      O       2.9312441874     0.7032171521     1.5972187303
   24      H       1.9687066150    -1.8600022548    -0.3280896438
   25      H       4.2682364081    -1.3560840689    -0.6829450310
   26      H       0.9677496326    -0.1531551203     1.7311153175
   27      H       2.3795035577    -1.5025530260     3.3036086870
   28      H       2.3554855374    -2.5911236406     1.8835483262
   29      H       4.7019634990    -1.0813812555     2.9692147968
   30      H       4.7147132450    -2.1392613407     1.5249696730
   31      H       5.0219274693     0.6304469346     1.1390155378
   32      O      -0.7802417202     0.0815232026     2.7005464577
   33      C      -1.0573265646    -2.7007126255    -1.9452913111
   34      C      -4.4524214788    -0.5069413336    -0.2430428750
   35      C      -5.7936915099    -0.5317080870     0.5851878864
   36      C      -5.5563557239     0.6568620146     1.5907528790
   37      C      -4.1199695574     1.1470173543     1.1612436544
   38      O      -4.1281208542     0.9396189927    -0.3131572679
   39      H      -3.6214112200    -2.0131321634     1.1759896747
   40      H      -3.3186831522    -0.2382519277     2.6981348539
   41      H      -0.5115202731    -3.5004066087    -1.4041675323
   42      H      -4.5057499122    -0.9458926444    -1.2584628059
   43      H      -6.6555889437    -0.3372705028    -0.0729120649
   44      H      -5.9474733765    -1.4971011261     1.0932718348
   45      H      -6.2953303320     1.4608149368     1.4455365569
   46      H      -5.5848221410     0.3361810357     2.6443330716
   47      H      -3.8902618419     2.2028385132     1.4009311727
   48      H      -0.3764446285    -1.8210638602    -2.0918263692
   49      H      -1.4022778268    -3.0944239864    -2.9186265592
   50      H       6.6512971261     2.2378460824    -2.4492754288
   51      H       5.0439099030     3.0036332323    -2.1251636470
   52      H       5.2107130953     1.8004364294    -3.4540867026
   53      H      -0.5502436718     1.2516491275    -2.0464611252
   54      H       0.0668943484     2.8727372937    -1.5194055035
   55      H      -1.8465593085     3.1214862812    -0.2011390441
   56      H      -2.4038638828     1.4341207308    -0.4767260103
 ----------------------------------------------------------------

   10   -1510.2849192057      3.46E-09 Convergence criterion met
 Total energy in the final basis set = -1510.28491921
 Final energy is   -1510.28491920572
 **  OPTIMIZATION CONVERGED  **

                    Orbital Energies (a.u.)
 --------------------------------------------------------------

 Alpha MOs
 -- Occupied --
-18.945 -18.936 -18.917 -18.911 -18.910 -18.889 -18.879 -18.869
-18.855 -18.850 -10.111 -10.099 -10.092 -10.090 -10.074 -10.071
-10.064 -10.047 -10.047 -10.047 -10.046 -10.043 -10.037 -10.031
-10.030 -10.030 -10.030 -10.021 -10.007 -10.001  -1.022  -1.013
 -0.995  -0.990  -0.983  -0.952  -0.946  -0.936  -0.922  -0.911
 -0.772  -0.749  -0.730  -0.715  -0.709  -0.697  -0.679  -0.660
 -0.659  -0.601  -0.595  -0.569  -0.557  -0.546  -0.531  -0.520
 -0.516  -0.501  -0.485  -0.470  -0.465  -0.453  -0.449  -0.440
 -0.434  -0.424  -0.419  -0.414  -0.409  -0.406  -0.401  -0.399
 -0.394  -0.380  -0.373  -0.369  -0.361  -0.352  -0.348  -0.344
 -0.341  -0.336  -0.330  -0.324  -0.322  -0.318  -0.316  -0.312
 -0.305  -0.302  -0.299  -0.292  -0.288  -0.284  -0.269  -0.266
 -0.262  -0.256  -0.252  -0.251  -0.232  -0.217  -0.215  -0.185
 -0.179  -0.167  -0.162  -0.153  -0.149  -0.148  -0.138  -0.133
 -0.126

          Ground-State Mulliken Net Atomic Charges

     Atom                 Charge (a.u.)
  ----------------------------------------
      1 O                    -0.209565
      2 C                     0.215426
      3 C                    -0.081385
      4 C                    -0.087090
      5 C                     0.220287
      6 O                    -0.174230
      7 C                    -0.067304
      8 C                    -0.054498
      9 O                    -0.158256
     10 C                     0.236982
     11 C                    -0.078169
     12 C                    -0.079291
     13 C                     0.214589
     14 O                    -0.205992
     15 O                    -0.168574
     16 O                    -0.168934
     17 O                    -0.240882
     18 C                    -0.128041
     19 C                     0.020142
     20 C                    -0.144491
     21 C                    -0.144591
     22 C                     0.024716
     23 O                    -0.188632
     24 H                     0.079844
     25 H                     0.083811
     26 H                     0.113105
     27 H                     0.078258
     28 H                     0.068344
     29 H                     0.075424
     30 H                     0.069248
     31 H                     0.082749
     32 O                    -0.214634
     33 C                    -0.147403
     34 C                     0.024859
     35 C                    -0.142633
     36 C                    -0.142676
     37 C                     0.020823
     38 O                    -0.188803
     39 H                     0.089344
     40 H                     0.086773
     41 H                     0.077782
     42 H                     0.092753
     43 H                     0.081009
     44 H                     0.077139
     45 H                     0.080853
     46 H                     0.077768
     47 H                     0.088857
     48 H                     0.122128
     49 H                     0.085285
     50 H                     0.091074
     51 H                     0.091533
     52 H                     0.089978
     53 H                     0.095293
     54 H                     0.081674
     55 H                     0.074676
     56 H                     0.103547
  ----------------------------------------
  Sum of atomic charges =    -0.000000

                    Cartesian Multipole Moments
 -----------------------------------------------------------------
    Charge (ESU x 10^10)
                -0.0000
    Dipole Moment (Debye)
         X      -2.1099      Y      -1.7067      Z      -0.9806
       Tot       2.8855
    Quadrupole Moments (Debye-Ang)
        XX    -132.6811     XY       0.3305     YY    -153.5388
        XZ     -10.0990     YZ      -3.9635     ZZ    -164.6208

 Total job time:  163.18s(wall), 7785.55s(cpu)
        *  Thank you very much for using Q-Chem.  Have a nice day.  *
