 Q-Chem 5.0, Q-Chem, Inc., Pleasanton, CA (2017)
 Q-Chem 5.0.1 for Intel X86 EM64T Linux

User input:
--------------------------------------------------------------
$molecule
0  1
O -3.8170006593 -2.3889643601 -0.8471640485
C -3.3576356383 -1.2355585265 -0.9931973487
C -3.7225894095 0.0094436404 -0.1076705316
C -2.8986705153 0.2072698512 1.2464483966
C -1.9468239519 -0.9931014456 1.6877455714
O -1.3843314019 -1.8487023142 0.6823759468
C -0.1405361448 -1.5840075557 -0.0744791755
C 0.1217708626 -0.434073795 -1.1205245926
O 0.1339351041 0.9637841311 -0.6405675496
C 0.9352614606 1.1550634071 0.5541424985
C 2.4908569334 1.3962267418 0.2416890107
C 3.5465328796 0.2322901265 0.4804537391
C 2.9837919687 -1.0663762142 1.1430906728
O 2.0091909148 -1.1516258494 1.9266760128
O -2.5708923785 -0.858470643 -2.1423214539
O 3.7876646508 -2.1809660226 0.758218627
O 0.4428853844 1.4100640857 1.676460755
C 3.2896957773 -3.4177082484 1.4076394747
C 2.7037990922 1.6495887641 -1.3129469326
C 4.0922487079 2.3646776996 -1.5404965513
C 5.0946193332 1.1676684219 -1.3375817305
C 4.096432861 -0.0032146395 -0.9922698822
O 2.9248445468 0.2829225212 -1.8501917071
H 2.7828750259 2.2805495456 0.8368030843
H 4.3590519151 0.5977560376 1.1366247709
H 1.8321516556 2.1171900595 -1.8091431239
H 4.1513854711 2.7738667665 -2.5615482774
H 4.2552668428 3.1840015916 -0.8224362089
H 5.6470816021 0.9418979709 -2.2636584183
H 5.8189990868 1.3478208839 -0.527525173
H 4.4733851805 -1.0292179325 -1.167504056
O -1.862314203 -1.3387128499 2.8882196054
C -2.407006511 -2.0345579832 -3.0299195603
C -3.536972084 1.4203779995 -0.7914212311
C -4.3609448629 2.4908339252 0.0365160843
C -3.4210162521 2.7005848461 1.284633893
C -2.2798566465 1.6518600227 0.985799231
O -2.1353496308 1.7524369031 -0.4838001101
H -4.784643191 -0.1531503749 0.1564668958
H -3.612726092 0.2807767373 2.0863248345
H -3.3864618795 -2.4237943573 -3.3737383965
H -3.7112743419 1.4282886406 -1.8844761632
H -4.4773216375 3.4192934238 -0.5448297904
H -5.3619810495 2.1234317063 0.3149414652
H -3.0041251769 3.7204984789 1.3018326223
H -3.9322940338 2.5129031917 2.2422302607
H -1.2900324817 1.7977720039 1.4717500137
H -1.8617492751 -2.8569644359 -2.5238340964
H -1.8216320821 -1.681078458 -3.898549929
H 3.9952811076 -4.217437303 1.1169545572
H 2.2694673301 -3.6764460801 1.0578602053
H 3.2691467494 -3.3171415243 2.5115481219
H 1.1134565921 -0.6628310793 -1.585841334
H -0.6954108276 -0.4354545125 -1.8742828491
H -0.015863339 -2.5245602934 -0.6528154764
H 0.6790333811 -1.5411851865 0.6810747137
$end

$rem
JOBTYPE                   OPT
METHOD                    B3LYP
DFT_D                     d3_op
BASIS                     STO-3G
GEOM_OPT_MAX_CYCLES       100
GEOM_OPT_TOL_GRADIENT     300
GEOM_OPT_TOL_DISPLACEMENT 1200
GEOM_OPT_TOL_ENERGY       100
SYMMETRY                  False
THRESH                    12
SCF_CONVERGENCE           8
MAX_SUB_FILE_NUM          128
MEM_STATIC                400
MEM_TOTAL                 4000
$end
--------------------------------------------------------------

   16   -1510.2289024942      3.79E-09 Convergence criterion met
 Total energy in the final basis set = -1510.22890249
   14   -1510.2298311545      9.83E-09 Convergence criterion met
 Total energy in the final basis set = -1510.22983115
   14   -1510.2438697566      4.42E-09 Convergence criterion met
 Total energy in the final basis set = -1510.24386976
   14   -1510.2489393094      2.65E-09 Convergence criterion met
 Total energy in the final basis set = -1510.24893931
   14   -1510.2548732910      7.96E-09 Convergence criterion met
 Total energy in the final basis set = -1510.25487329
   14   -1510.2570787269      9.18E-09 Convergence criterion met
 Total energy in the final basis set = -1510.25707873
   13   -1510.2620460708      4.56E-09 Convergence criterion met
 Total energy in the final basis set = -1510.26204607
   14   -1510.2647002394      7.83E-09 Convergence criterion met
   12   -1510.2852976795      4.42E-09 Convergence criterion met
 Total energy in the final basis set = -1510.28529768
   12   -1510.2853281677      3.28E-09 Convergence criterion met
 Total energy in the final basis set = -1510.28532817
   10   -1510.2853267526      6.11E-09 Convergence criterion met
 Total energy in the final basis set = -1510.28532675
   11   -1510.2853336870      3.19E-09 Convergence criterion met
 Total energy in the final basis set = -1510.28533369
   11   -1510.2853252359      6.32E-09 Convergence criterion met
 Total energy in the final basis set = -1510.28532524
   10   -1510.2853196902      5.82E-09 Convergence criterion met
 Total energy in the final basis set = -1510.28531969

             Standard Nuclear Orientation (Angstroms)
    I     Atom           X                Y                Z
 ----------------------------------------------------------------
    1      O       2.8020080477    -1.8570116440     2.0214723860
    2      C       3.7547098645    -1.3861781975     1.3588945183
    3      C       3.6785147289    -0.7011017820    -0.0446612413
    4      C       2.1912472425    -0.5373408457    -0.5626395018
    5      C       1.0944844948    -1.1409027457     0.3916326486
    6      O       0.7233966150    -0.1532631595     1.3522793700
    7      C      -0.5032646155    -0.5552055855     2.0761430884
    8      C      -1.4932142676     0.6852971312     2.0754515001
    9      O      -0.8941538235     1.7916682406     1.2916370077
   10      C      -1.3778846224     2.0097868459    -0.0361356508
   11      C      -2.9397630587     1.9176825502    -0.3900258743
   12      C      -3.4057822291     0.5548396325    -1.0478990411
   13      C      -2.2452847577    -0.4926032258    -1.1060205446
   14      O      -1.0392731400    -0.2369546257    -0.8802179604
   15      O       5.1150482958    -1.4065041453     1.7955683172
   16      O      -2.7558675568    -1.7629049678    -1.4716963195
   17      O      -0.5743269094     2.5349018332    -0.8473870402
   18      C      -1.6557742619    -2.7565201729    -1.6087944107
   19      C      -3.9788870537     2.0403975465     0.8010900328
   20      C      -5.3855685277     2.4262165935     0.2004990844
   21      C      -5.8422610445     1.0579765263    -0.4339364508
   22      C      -4.6065028951     0.1372007607    -0.0998556472
   23      O      -4.1840946373     0.6309901839     1.2347351827
   24      H      -3.0957564134     2.7433399885    -1.1064477177
   25      H      -3.7695185876     0.7103909510    -2.0801620858
   26      H      -3.6417594471     2.6597580174     1.6544701562
   27      H      -6.0703577738     2.7467696443     1.0017505537
   28      H      -5.3072406871     3.2348967421    -0.5435506546
   29      H      -6.7521948246     0.6716775392     0.0523431335
   30      H      -6.0230200280     1.1293132546    -1.5183948022
   31      H      -4.8080325659    -0.9513374492    -0.0691936622
   32      O       0.5268695356    -2.2541619015     0.2626130444
   33      C       5.2082976995    -2.0480846387     3.1278833565
   34      C       4.1516827651     0.8167351530     0.0075824748
   35      C       4.3956451454     1.3058873272    -1.4736304753
   36      C       2.9162712017     1.4712425542    -1.9812362313
   37      C       2.0923795242     1.0470165963    -0.7005677688
   38      O       2.9295206543     1.5372959818     0.4208440855
   39      H       4.2964847971    -1.2861126995    -0.7503424553
   40      H       2.0649539909    -1.0387396178    -1.5386943980
   41      H       4.8551727470    -3.0993309327     3.0996741721
   42      H       4.9828603861     1.0043593369     0.7147839470
   43      H       4.9357724447     2.2660101401    -1.4749155626
   44      H       4.9729420025     0.5758209825    -2.0633077649
   45      H       2.6937433652     2.5172414621    -2.2450002726
   46      H       2.6906587466     0.8342963139    -2.8513792650
   47      H       1.0681297286     1.4866226622    -0.6474599185
   48      H       4.6159224746    -1.4980565058     3.8872640843
   49      H       6.2786028815    -2.0243093955     3.4034351978
   50      H      -2.1196101739    -3.7475524931    -1.4527660232
   51      H      -0.8338781851    -2.5834206738    -0.8677784064
   52      H      -1.2379328236    -2.7097291816    -2.6350452503
   53      H      -2.5174155722     0.4058452963     1.7164645089
   54      H      -1.5807060415     1.0763383958     3.1099387710
   55      H      -0.2337877245    -0.8352120742     3.1164699429
   56      H      -0.9400314236    -1.4443722998     1.5727929103
 ----------------------------------------------------------------

    9   -1510.2853159953      8.25E-09 Convergence criterion met
 Total energy in the final basis set = -1510.28531600
 Final energy is   -1510.28531599533
 **  OPTIMIZATION CONVERGED  **

                    Orbital Energies (a.u.)
 --------------------------------------------------------------

 Alpha MOs
 -- Occupied --
-18.945 -18.935 -18.916 -18.915 -18.912 -18.888 -18.878 -18.867
-18.857 -18.849 -10.111 -10.097 -10.093 -10.087 -10.076 -10.073
-10.063 -10.048 -10.048 -10.046 -10.045 -10.041 -10.038 -10.033
-10.032 -10.028 -10.027 -10.019 -10.005  -9.999  -1.022  -1.011
 -0.995  -0.991  -0.984  -0.949  -0.945  -0.935  -0.923  -0.911
 -0.774  -0.747  -0.731  -0.716  -0.708  -0.696  -0.679  -0.660
 -0.657  -0.602  -0.594  -0.569  -0.558  -0.548  -0.529  -0.520
 -0.515  -0.501  -0.484  -0.471  -0.463  -0.454  -0.449  -0.439
 -0.434  -0.426  -0.417  -0.413  -0.408  -0.405  -0.402  -0.398
 -0.391  -0.380  -0.372  -0.368  -0.360  -0.354  -0.347  -0.343
 -0.342  -0.337  -0.328  -0.325  -0.324  -0.317  -0.316  -0.312
 -0.304  -0.303  -0.298  -0.291  -0.287  -0.285  -0.268  -0.266
 -0.260  -0.256  -0.253  -0.251  -0.232  -0.216  -0.213  -0.184
 -0.177  -0.167  -0.165  -0.152  -0.149  -0.148  -0.136  -0.134
 -0.124

          Ground-State Mulliken Net Atomic Charges

     Atom                 Charge (a.u.)
  ----------------------------------------
      1 O                    -0.206462
      2 C                     0.214353
      3 C                    -0.079277
      4 C                    -0.079303
      5 C                     0.235273
      6 O                    -0.159231
      7 C                    -0.052924
      8 C                    -0.070616
      9 O                    -0.172041
     10 C                     0.220136
     11 C                    -0.086972
     12 C                    -0.081731
     13 C                     0.213961
     14 O                    -0.208925
     15 O                    -0.169159
     16 O                    -0.169621
     17 O                    -0.213525
     18 C                    -0.147203
     19 C                     0.021522
     20 C                    -0.142619
     21 C                    -0.142220
     22 C                     0.025150
     23 O                    -0.187226
     24 H                     0.087633
     25 H                     0.089523
     26 H                     0.089884
     27 H                     0.081313
     28 H                     0.078165
     29 H                     0.081390
     30 H                     0.077513
     31 H                     0.093622
     32 O                    -0.239249
     33 C                    -0.128002
     34 C                     0.024712
     35 C                    -0.144544
     36 C                    -0.144822
     37 C                     0.018212
     38 O                    -0.188549
     39 H                     0.083622
     40 H                     0.080199
     41 H                     0.089420
     42 H                     0.082315
     43 H                     0.074927
     44 H                     0.068996
     45 H                     0.077628
     46 H                     0.068399
     47 H                     0.113373
     48 H                     0.091413
     49 H                     0.090810
     50 H                     0.085383
     51 H                     0.123236
     52 H                     0.079568
     53 H                     0.106256
     54 H                     0.075978
     55 H                     0.081061
     56 H                     0.089276
  ----------------------------------------
  Sum of atomic charges =    -0.000000

                    Cartesian Multipole Moments
 -----------------------------------------------------------------
    Charge (ESU x 10^10)
                -0.0000
    Dipole Moment (Debye)
         X      -2.5414      Y      -0.9935      Z      -0.9612
       Tot       2.8930
    Quadrupole Moments (Debye-Ang)
        XX    -133.5319     XY     -11.4717     YY    -162.7817
        XZ       3.9869     YZ      -0.5203     ZZ    -152.9698

 Total job time:  237.12s(wall), 11301.36s(cpu)
        *  Thank you very much for using Q-Chem.  Have a nice day.  *
