 Q-Chem 5.0, Q-Chem, Inc., Pleasanton, CA (2017)
 Q-Chem 5.0.1 for Intel X86 EM64T Linux

User input:
--------------------------------------------------------------
$molecule
0  1
O -3.94934 -3.66094 2.70899
C -3.26408 -4.56952 2.26188
C -3.36658 -6.02376 2.66595
C -4.41631 -6.88207 1.94122
C -5.12384 -6.23632 0.77054
O -4.3098 -5.30375 0.19341
C -3.41134 -5.86068 -0.7719
C -2.40876 -6.783 -0.08612
O -3.08641 -7.93026 0.45004
C -3.95531 -8.5411 -0.39319
C -3.28665 -9.54672 -1.29998
C -3.09142 -9.08122 -2.75032
C -3.25415 -7.59445 -2.99468
O -3.96192 -6.84197 -2.34092
O -2.16487 -4.22328 1.54286
O -2.72548 -7.12484 -4.15636
O -5.10267 -8.7884 -0.05034
C -2.81784 -5.81741 -4.58551
C -1.84743 -9.98428 -0.93501
C -1.55844 -11.36154 -1.53225
C -1.46612 -11.01451 -3.00459
C -1.60954 -9.48889 -2.93758
O -1.0184 -9.15627 -1.70869
H -3.91982 -10.46428 -1.26797
H -3.74211 -9.59979 -3.48822
H -1.65166 -9.99743 0.15921
H -0.54837 -11.66679 -1.17566
H -2.29028 -12.15769 -1.27656
H -0.45259 -11.29698 -3.36692
H -2.24323 -11.47458 -3.65257
H -1.14592 -9.02828 -3.83645
O -6.33801 -6.21458 0.60424
C -1.85272 -2.93613 1.15712
C -2.45255 -7.03765 3.41258
C -3.07112 -7.46785 4.75033
C -4.3065 -8.22475 4.24122
C -4.04254 -8.2494 2.70733
O -2.62476 -8.24374 2.70903
H -3.95215 -5.6944 3.55648
H -5.35386 -6.76196 2.5331
H -1.71684 -2.28964 2.05024
H -1.40019 -6.69301 3.49287
H -2.36308 -8.1935 5.21196
H -3.28118 -6.6586 5.48273
H -4.27091 -9.25065 4.66994
H -5.28364 -7.76083 4.49378
H -4.52878 -9.14463 2.27077
H -2.65951 -2.52527 0.51315
H -0.90661 -2.95029 0.57834
H -2.30316 -5.71881 -5.56311
H -2.3264 -5.14011 -3.85529
H -3.88315 -5.52836 -4.7108
H -1.68803 -7.10398 -0.85666
H -1.75892 -6.34483 0.69172
H -2.61414 -5.08569 -0.81859
H -3.23888 -5.04028 -1.53358
$end

$opt
CONSTRAINT
tors           1           2           3           4     +85.263
tors           3           4           5           6     +28.421
tors           4           5           6           7     +85.263
tors           5           6           7           8     -66.316
tors           6           7           8           9     +66.316
tors           7           8           9          10     +47.368
tors           8           9          10          11     +85.263
tors           9          10          11          12    -104.211
tors          11          12          13          14     -28.421
ENDCONSTRAINT
$end

$rem
JOBTYPE                   OPT
METHOD                    B3LYP
DFT_D                     d3_op
BASIS                     STO-3G
GEOM_OPT_MAX_CYCLES       100
GEOM_OPT_TOL_GRADIENT     300
GEOM_OPT_TOL_DISPLACEMENT 1200
GEOM_OPT_TOL_ENERGY       100
SYMMETRY                  False
THRESH                    12
SCF_CONVERGENCE           8
MAX_SUB_FILE_NUM          128
MEM_STATIC                400
MEM_TOTAL                 4000
$end
--------------------------------------------------------------

   15   -1509.7469283220      9.08E-09 Convergence criterion met
 Total energy in the final basis set = -1509.74692832
   14   -1509.8383212954      9.22E-09 Convergence criterion met
 Total energy in the final basis set = -1509.83832130
   14   -1509.9053308266      7.06E-09 Convergence criterion met
 Total energy in the final basis set = -1509.90533083
   13   -1509.9526847368      6.12E-09 Convergence criterion met
 Total energy in the final basis set = -1509.95268474
   14   -1509.9895578925      3.35E-09 Convergence criterion met
 Total energy in the final basis set = -1509.98955789
   14   -1510.0191838158      2.96E-09 Convergence criterion met
 Total energy in the final basis set = -1510.01918382
   14   -1510.0440470364      3.04E-09 Convergence criterion met
 Total energy in the final basis set = -1510.04404704
   14   -1510.0655580959      3.06E-09 Convergence criterion met
   11   -1510.2288680691      5.43E-09 Convergence criterion met
 Total energy in the final basis set = -1510.22886807
   10   -1510.2288982061      9.11E-09 Convergence criterion met
 Total energy in the final basis set = -1510.22889821
   10   -1510.2289109401      9.10E-09 Convergence criterion met
 Total energy in the final basis set = -1510.22891094
   10   -1510.2289201426      8.37E-09 Convergence criterion met
 Total energy in the final basis set = -1510.22892014
    9   -1510.2289235528      9.90E-09 Convergence criterion met
 Total energy in the final basis set = -1510.22892355
    9   -1510.2289250976      7.48E-09 Convergence criterion met
 Total energy in the final basis set = -1510.22892510

             Standard Nuclear Orientation (Angstroms)
    I     Atom           X                Y                Z
 ----------------------------------------------------------------
    1      O      -3.8170006593    -2.3889643601    -0.8471640485
    2      C      -3.3576356383    -1.2355585265    -0.9931973487
    3      C      -3.7225894095     0.0094436404    -0.1076705316
    4      C      -2.8986705153     0.2072698512     1.2464483966
    5      C      -1.9468239519    -0.9931014456     1.6877455714
    6      O      -1.3843314019    -1.8487023142     0.6823759468
    7      C      -0.1405361448    -1.5840075557    -0.0744791755
    8      C       0.1217708626    -0.4340737950    -1.1205245926
    9      O       0.1339351041     0.9637841311    -0.6405675496
   10      C       0.9352614606     1.1550634071     0.5541424985
   11      C       2.4908569334     1.3962267418     0.2416890107
   12      C       3.5465328796     0.2322901265     0.4804537391
   13      C       2.9837919687    -1.0663762142     1.1430906728
   14      O       2.0091909148    -1.1516258494     1.9266760128
   15      O      -2.5708923785    -0.8584706430    -2.1423214539
   16      O       3.7876646508    -2.1809660226     0.7582186270
   17      O       0.4428853844     1.4100640857     1.6764607550
   18      C       3.2896957773    -3.4177082484     1.4076394747
   19      C       2.7037990922     1.6495887641    -1.3129469326
   20      C       4.0922487079     2.3646776996    -1.5404965513
   21      C       5.0946193332     1.1676684219    -1.3375817305
   22      C       4.0964328610    -0.0032146395    -0.9922698822
   23      O       2.9248445468     0.2829225212    -1.8501917071
   24      H       2.7828750259     2.2805495456     0.8368030843
   25      H       4.3590519151     0.5977560376     1.1366247709
   26      H       1.8321516556     2.1171900595    -1.8091431239
   27      H       4.1513854711     2.7738667665    -2.5615482774
   28      H       4.2552668428     3.1840015916    -0.8224362089
   29      H       5.6470816021     0.9418979709    -2.2636584183
   30      H       5.8189990868     1.3478208839    -0.5275251730
   31      H       4.4733851805    -1.0292179325    -1.1675040560
   32      O      -1.8623142030    -1.3387128499     2.8882196054
   33      C      -2.4070065110    -2.0345579832    -3.0299195603
   34      C      -3.5369720840     1.4203779995    -0.7914212311
   35      C      -4.3609448629     2.4908339252     0.0365160843
   36      C      -3.4210162521     2.7005848461     1.2846338930
   37      C      -2.2798566465     1.6518600227     0.9857992310
   38      O      -2.1353496308     1.7524369031    -0.4838001101
   39      H      -4.7846431910    -0.1531503749     0.1564668958
   40      H      -3.6127260920     0.2807767373     2.0863248345
   41      H      -3.3864618795    -2.4237943573    -3.3737383965
   42      H      -3.7112743419     1.4282886406    -1.8844761632
   43      H      -4.4773216375     3.4192934238    -0.5448297904
   44      H      -5.3619810495     2.1234317063     0.3149414652
   45      H      -3.0041251769     3.7204984789     1.3018326223
   46      H      -3.9322940338     2.5129031917     2.2422302607
   47      H      -1.2900324817     1.7977720039     1.4717500137
   48      H      -1.8617492751    -2.8569644359    -2.5238340964
   49      H      -1.8216320821    -1.6810784580    -3.8985499290
   50      H       3.9952811076    -4.2174373030     1.1169545572
   51      H       2.2694673301    -3.6764460801     1.0578602053
   52      H       3.2691467494    -3.3171415243     2.5115481219
   53      H       1.1134565921    -0.6628310793    -1.5858413340
   54      H      -0.6954108276    -0.4354545125    -1.8742828491
   55      H      -0.0158633390    -2.5245602934    -0.6528154764
   56      H       0.6790333811    -1.5411851865     0.6810747137
 ----------------------------------------------------------------

    9   -1510.2289253955      4.95E-09 Convergence criterion met
 Total energy in the final basis set = -1510.22892540
 Final energy is   -1510.22892539546
 **  OPTIMIZATION CONVERGED  **

                    Orbital Energies (a.u.)
 --------------------------------------------------------------

 Alpha MOs
 -- Occupied --
-18.954 -18.931 -18.912 -18.904 -18.901 -18.894 -18.892 -18.878
-18.869 -18.865 -10.117 -10.112 -10.094 -10.092 -10.076 -10.069
-10.064 -10.061 -10.055 -10.051 -10.048 -10.045 -10.039 -10.028
-10.028 -10.026 -10.025 -10.018 -10.007 -10.004  -1.029  -1.009
 -1.004  -0.987  -0.982  -0.954  -0.953  -0.937  -0.928  -0.917
 -0.771  -0.746  -0.729  -0.715  -0.707  -0.697  -0.687  -0.673
 -0.656  -0.612  -0.593  -0.578  -0.553  -0.545  -0.531  -0.527
 -0.517  -0.501  -0.484  -0.476  -0.464  -0.453  -0.452  -0.444
 -0.426  -0.423  -0.420  -0.419  -0.415  -0.406  -0.401  -0.396
 -0.394  -0.388  -0.377  -0.367  -0.361  -0.359  -0.358  -0.351
 -0.344  -0.338  -0.336  -0.333  -0.321  -0.317  -0.314  -0.313
 -0.309  -0.306  -0.302  -0.294  -0.291  -0.286  -0.279  -0.274
 -0.267  -0.267  -0.248  -0.247  -0.238  -0.213  -0.204  -0.193
 -0.175  -0.170  -0.167  -0.159  -0.151  -0.145  -0.139  -0.135
 -0.120

          Ground-State Mulliken Net Atomic Charges

     Atom                 Charge (a.u.)
  ----------------------------------------
      1 O                    -0.212890
      2 C                     0.211986
      3 C                    -0.081367
      4 C                    -0.083993
      5 C                     0.221105
      6 O                    -0.202530
      7 C                    -0.061258
      8 C                    -0.070283
      9 O                    -0.180506
     10 C                     0.227158
     11 C                    -0.084256
     12 C                    -0.080865
     13 C                     0.212400
     14 O                    -0.207069
     15 O                    -0.170196
     16 O                    -0.167402
     17 O                    -0.176000
     18 C                    -0.128788
     19 C                     0.022008
     20 C                    -0.144652
     21 C                    -0.143112
     22 C                     0.022913
     23 O                    -0.192867
     24 H                     0.084862
     25 H                     0.089383
     26 H                     0.095773
     27 H                     0.079948
     28 H                     0.075383
     29 H                     0.079667
     30 H                     0.074869
     31 H                     0.092584
     32 O                    -0.184471
     33 C                    -0.129340
     34 C                     0.023098
     35 C                    -0.145059
     36 C                    -0.144088
     37 C                     0.006406
     38 O                    -0.186749
     39 H                     0.081756
     40 H                     0.082386
     41 H                     0.089494
     42 H                     0.082002
     43 H                     0.073771
     44 H                     0.069675
     45 H                     0.073727
     46 H                     0.071167
     47 H                     0.108088
     48 H                     0.088640
     49 H                     0.088356
     50 H                     0.094143
     51 H                     0.093778
     52 H                     0.095758
     53 H                     0.090570
     54 H                     0.108270
     55 H                     0.080295
     56 H                     0.086323
  ----------------------------------------
  Sum of atomic charges =    -0.000000

                    Cartesian Multipole Moments
 -----------------------------------------------------------------
    Charge (ESU x 10^10)
                -0.0000
    Dipole Moment (Debye)
         X       3.8697      Y       0.8085      Z      -2.3591
       Tot       4.6036
    Quadrupole Moments (Debye-Ang)
        XX    -142.8173     XY      -7.4688     YY    -156.4010
        XZ       5.4783     YZ       4.3546     ZZ    -165.0345

 Total job time:  109.73s(wall), 5227.19s(cpu)
        *  Thank you very much for using Q-Chem.  Have a nice day.  *
