 Q-Chem 5.0, Q-Chem, Inc., Pleasanton, CA (2017)
 Q-Chem 5.0.1 for Intel X86 EM64T Linux

User input:
--------------------------------------------------------------
$molecule
0  1
O -3.94934 -3.66094 2.70899
C -3.26408 -4.56952 2.26188
C -3.36658 -6.02376 2.66595
C -4.06137 -6.97914 1.68189
C -4.41791 -6.40938 0.32677
O -4.63446 -5.0649 0.4311
C -5.37818 -4.52738 -0.66763
C -6.63463 -3.82775 -0.15971
O -7.6938 -4.78351 0.00629
C -8.7129 -4.39078 0.81025
C -8.41693 -3.10887 1.55169
C -8.73074 -1.82323 0.77263
C -9.60576 -1.99045 -0.45337
O -10.78887 -1.69122 -0.52595
O -2.32892 -4.26858 1.3165
O -9.0381 -2.553 -1.54948
O -9.6819 -5.10544 1.01564
C -9.69613 -2.80384 -2.73551
C -9.40456 -2.89877 2.74816
C -8.77645 -1.98518 3.8054
C -8.74885 -0.67496 3.05191
C -9.57333 -1.06437 1.81811
O -10.43366 -2.07828 2.26498
H -7.48414 -3.18878 2.14386
H -7.82779 -1.24931 0.4717
H -9.73089 -3.8442 3.23494
H -9.52173 -1.90888 4.63046
H -7.8022 -2.30132 4.2365
H -9.25416 0.09698 3.67322
H -7.73891 -0.3253 2.74554
H -10.06598 -0.16449 1.38664
O -4.76335 -7.1146 -0.61453
C -2.0798 -2.99654 0.84491
C -1.98761 -6.68285 2.81311
C -2.08924 -7.92881 3.69323
C -2.77894 -8.88537 2.74441
C -2.91422 -8.00058 1.5023
O -1.74801 -7.21293 1.53432
H -3.90885 -6.02843 3.63831
H -4.96838 -7.48088 2.0862
H -1.74787 -2.33924 1.67666
H -1.21679 -5.98729 3.2122
H -1.05951 -8.30446 3.88822
H -2.61196 -7.7567 4.65878
H -2.0786 -9.72106 2.51999
H -3.74964 -9.29412 3.09908
H -3.04196 -8.63957 0.60083
H -2.99406 -2.57424 0.37646
H -1.27576 -3.04259 0.08227
H -8.98769 -3.26701 -3.45248
H -10.077 -1.85508 -3.17025
H -10.54023 -3.50534 -2.56331
H -6.19905 -3.27047 0.68436
H -6.91068 -3.12044 -0.9577
H -5.64423 -5.21055 -1.50487
H -4.71987 -3.74974 -1.11361
$end

$opt
CONSTRAINT
tors           1           2           3           4    +104.211
tors           3           4           5           6     -28.421
tors           4           5           6           7    -161.053
tors           5           6           7           8    +123.158
tors           6           7           8           9     -85.263
tors           7           8           9          10    +161.053
tors           8           9          10          11      -9.474
tors           9          10          11          12     +85.263
tors          11          12          13          14    +104.211
ENDCONSTRAINT
$end

$rem
JOBTYPE                   OPT
METHOD                    B3LYP
DFT_D                     d3_op
BASIS                     STO-3G
GEOM_OPT_MAX_CYCLES       100
GEOM_OPT_TOL_GRADIENT     300
GEOM_OPT_TOL_DISPLACEMENT 1200
GEOM_OPT_TOL_ENERGY       100
SYMMETRY                  False
THRESH                    12
SCF_CONVERGENCE           8
MAX_SUB_FILE_NUM          128
MEM_STATIC                400
MEM_TOTAL                 4000
$end
--------------------------------------------------------------

   15   -1510.1216227854      7.17E-09 Convergence criterion met
 Total energy in the final basis set = -1510.12162279
   14   -1510.1951274689      4.88E-09 Convergence criterion met
 Total energy in the final basis set = -1510.19512747
   15   -1510.2340455446      1.44E-09 Convergence criterion met
 Total energy in the final basis set = -1510.23404554
   14   -1510.2554169352      8.04E-09 Convergence criterion met
 Total energy in the final basis set = -1510.25541694
   14   -1510.2638397236      4.33E-09 Convergence criterion met
 Total energy in the final basis set = -1510.26383972
   13   -1510.2675747728      8.74E-09 Convergence criterion met
 Total energy in the final basis set = -1510.26757477
   13   -1510.2695330915      4.67E-09 Convergence criterion met
 Total energy in the final basis set = -1510.26953309
   13   -1510.2701948003      3.52E-09 Convergence criterion met
   11   -1510.2710852999      6.62E-09 Convergence criterion met
 Total energy in the final basis set = -1510.27108530
    9   -1510.2710936821      9.31E-09 Convergence criterion met
 Total energy in the final basis set = -1510.27109368
    9   -1510.2710985135      5.23E-09 Convergence criterion met
 Total energy in the final basis set = -1510.27109851
    9   -1510.2711025406      3.90E-09 Convergence criterion met
 Total energy in the final basis set = -1510.27110254
    9   -1510.2711058361      7.14E-09 Convergence criterion met
 Total energy in the final basis set = -1510.27110584
    9   -1510.2711073493      5.35E-09 Convergence criterion met
 Total energy in the final basis set = -1510.27110735

             Standard Nuclear Orientation (Angstroms)
    I     Atom           X                Y                Z
 ----------------------------------------------------------------
    1      O      -1.8906699795    -1.7441606164    -1.5483913683
    2      C      -2.8865983154    -1.0388440857    -1.2748910787
    3      C      -3.6148274501    -0.9434650615     0.1115797386
    4      C      -3.3263555341     0.3690208290     0.9577872740
    5      C      -2.4741323193     1.5031305166     0.2812711377
    6      O      -1.5762648977     0.9456891790    -0.6809853922
    7      C      -0.4726567783     1.8804818087    -1.0024963965
    8      C       0.8727155174     1.1438399795    -0.7038469449
    9      O       1.1562534637     1.3344082635     0.7389491336
   10      C       2.0921844880     0.4160489851     1.3235237159
   11      C       2.5784333902    -0.8428209179     0.5003221830
   12      C       3.8087330804    -0.5854344073    -0.4812599944
   13      C       4.4284867293     0.8575209841    -0.4158552746
   14      O       5.4984222038     1.1950947928     0.1317693691
   15      O      -3.5817369904    -0.2199066104    -2.2235991971
   16      O       3.6271378047     1.7637968010    -1.1933198778
   17      O       2.4395936389     0.6435106719     2.5040850816
   18      C       4.1783678623     3.1357038207    -1.1106376203
   19      C       3.2057878024    -1.9297488601     1.4756278436
   20      C       3.2098301503    -3.3155168805     0.7192941238
   21      C       4.3786917164    -3.0917424582    -0.3105426876
   22      C       4.8558882147    -1.6366571607     0.0790912236
   23      O       4.6391512901    -1.5687243947     1.5415904505
   24      H       1.7329382985    -1.2812857341    -0.0562208974
   25      H       3.5202269778    -0.7914860041    -1.5283521204
   26      H       2.7625952361    -1.9343918447     2.4900515091
   27      H       3.4410050381    -4.1337646432     1.4197558746
   28      H       2.2452491615    -3.5294739085     0.2315459405
   29      H       5.1949210933    -3.8163958415    -0.1631409192
   30      H       4.0400713581    -3.1498079337    -1.3575350243
   31      H       5.9079951019    -1.3945256220    -0.1660138106
   32      O      -2.5026082150     2.7150628510     0.5873704600
   33      C      -2.8745197862    -0.2484995953    -3.5223466662
   34      C      -5.2004887895    -0.8705475341    -0.0096793599
   35      C      -5.8204659567    -1.3152620207     1.3737274519
   36      C      -5.5084776923    -0.0552639523     2.2634516015
   37      C      -4.8026206267     0.8912091941     1.2154053047
   38      O      -5.4862571608     0.5805792567    -0.0613835755
   39      H      -3.3027007901    -1.8320873474     0.6886681595
   40      H      -2.8163792196     0.1139259728     1.9059986792
   41      H      -2.8166377157    -1.2757774953    -3.9373342889
   42      H      -5.6164695736    -1.3793403480    -0.9004963034
   43      H      -6.9052521442    -1.4783965218     1.2713756586
   44      H      -5.3595686379    -2.2374224829     1.7622921602
   45      H      -6.4307844497     0.4100966060     2.6456672589
   46      H      -4.8519534004    -0.2907519631     3.1162267314
   47      H      -4.8543616804     1.9758775204     1.4339527118
   48      H      -1.8441017586     0.1514227403    -3.4297784252
   49      H      -3.4609431124     0.3939553079    -4.2047293030
   50      H       3.5291938569     3.7645057374    -1.7473282384
   51      H       5.2215935908     3.1759514853    -1.4843343797
   52      H       4.1595187535     3.5169809418    -0.0692855919
   53      H       0.7350470301     0.0769981052    -0.9735056361
   54      H       1.7327751493     1.5537163018    -1.2850698111
   55      H      -0.5826118190     2.8076592916    -0.3989915152
   56      H      -0.5314329787     2.1386737632    -2.0819607191
 ----------------------------------------------------------------

    9   -1510.2711076620      2.80E-09 Convergence criterion met
 Total energy in the final basis set = -1510.27110766
 Final energy is   -1510.27110766202
 **  OPTIMIZATION CONVERGED  **

                    Orbital Energies (a.u.)
 --------------------------------------------------------------

 Alpha MOs
 -- Occupied --
-18.948 -18.939 -18.929 -18.928 -18.890 -18.889 -18.887 -18.881
-18.870 -18.864 -10.109 -10.106 -10.098 -10.097 -10.077 -10.074
-10.067 -10.063 -10.061 -10.059 -10.059 -10.058 -10.046 -10.041
-10.040 -10.036 -10.022 -10.020 -10.020 -10.019  -1.023  -1.019
 -1.004  -1.002  -0.971  -0.969  -0.947  -0.944  -0.932  -0.931
 -0.766  -0.763  -0.727  -0.725  -0.711  -0.706  -0.703  -0.671
 -0.659  -0.610  -0.604  -0.587  -0.552  -0.544  -0.541  -0.537
 -0.514  -0.513  -0.492  -0.485  -0.470  -0.466  -0.460  -0.439
 -0.433  -0.431  -0.429  -0.422  -0.418  -0.415  -0.408  -0.407
 -0.398  -0.387  -0.380  -0.370  -0.368  -0.361  -0.355  -0.351
 -0.343  -0.340  -0.336  -0.333  -0.330  -0.327  -0.317  -0.314
 -0.310  -0.308  -0.305  -0.300  -0.297  -0.293  -0.288  -0.279
 -0.277  -0.265  -0.249  -0.243  -0.241  -0.235  -0.234  -0.191
 -0.183  -0.171  -0.168  -0.164  -0.160  -0.148  -0.145  -0.144
 -0.142

          Ground-State Mulliken Net Atomic Charges

     Atom                 Charge (a.u.)
  ----------------------------------------
      1 O                    -0.225138
      2 C                     0.216671
      3 C                    -0.081289
      4 C                    -0.077065
      5 C                     0.217485
      6 O                    -0.176531
      7 C                    -0.050188
      8 C                    -0.062571
      9 O                    -0.174172
     10 C                     0.201777
     11 C                    -0.084847
     12 C                    -0.080004
     13 C                     0.209853
     14 O                    -0.199312
     15 O                    -0.168300
     16 O                    -0.175307
     17 O                    -0.200993
     18 C                    -0.128088
     19 C                     0.026494
     20 C                    -0.144297
     21 C                    -0.144730
     22 C                     0.026004
     23 O                    -0.184245
     24 H                     0.082064
     25 H                     0.083771
     26 H                     0.090297
     27 H                     0.078890
     28 H                     0.074094
     29 H                     0.079069
     30 H                     0.072608
     31 H                     0.088382
     32 O                    -0.210092
     33 C                    -0.126740
     34 C                     0.026353
     35 C                    -0.143846
     36 C                    -0.144498
     37 C                     0.024433
     38 O                    -0.187810
     39 H                     0.082432
     40 H                     0.087761
     41 H                     0.086509
     42 H                     0.084640
     43 H                     0.077717
     44 H                     0.073078
     45 H                     0.078579
     46 H                     0.073782
     47 H                     0.090154
     48 H                     0.084314
     49 H                     0.089924
     50 H                     0.091385
     51 H                     0.093165
     52 H                     0.095646
     53 H                     0.084995
     54 H                     0.105710
     55 H                     0.107798
     56 H                     0.084232
  ----------------------------------------
  Sum of atomic charges =     0.000000

                    Cartesian Multipole Moments
 -----------------------------------------------------------------
    Charge (ESU x 10^10)
                 0.0000
    Dipole Moment (Debye)
         X      -0.7871      Y      -1.7724      Z      -3.4062
       Tot       3.9196
    Quadrupole Moments (Debye-Ang)
        XX    -170.3781     XY       6.8791     YY    -156.7798
        XZ     -19.0271     YZ      -7.0967     ZZ    -158.8577

 Total job time:  58.83s(wall), 2801.08s(cpu)
        *  Thank you very much for using Q-Chem.  Have a nice day.  *
