 Q-Chem 5.0, Q-Chem, Inc., Pleasanton, CA (2017)
 Q-Chem 5.0.1 for Intel X86 EM64T Linux

User input:
--------------------------------------------------------------
$molecule
0  1
O -1.8906699795 -1.7441606164 -1.5483913683
C -2.8865983154 -1.0388440857 -1.2748910787
C -3.6148274501 -0.9434650615 0.1115797386
C -3.3263555341 0.369020829 0.957787274
C -2.4741323193 1.5031305166 0.2812711377
O -1.5762648977 0.945689179 -0.6809853922
C -0.4726567783 1.8804818087 -1.0024963965
C 0.8727155174 1.1438399795 -0.7038469449
O 1.1562534637 1.3344082635 0.7389491336
C 2.092184488 0.4160489851 1.3235237159
C 2.5784333902 -0.8428209179 0.500322183
C 3.8087330804 -0.5854344073 -0.4812599944
C 4.4284867293 0.8575209841 -0.4158552746
O 5.4984222038 1.1950947928 0.1317693691
O -3.5817369904 -0.2199066104 -2.2235991971
O 3.6271378047 1.763796801 -1.1933198778
O 2.4395936389 0.6435106719 2.5040850816
C 4.1783678623 3.1357038207 -1.1106376203
C 3.2057878024 -1.9297488601 1.4756278436
C 3.2098301503 -3.3155168805 0.7192941238
C 4.3786917164 -3.0917424582 -0.3105426876
C 4.8558882147 -1.6366571607 0.0790912236
O 4.6391512901 -1.5687243947 1.5415904505
H 1.7329382985 -1.2812857341 -0.0562208974
H 3.5202269778 -0.7914860041 -1.5283521204
H 2.7625952361 -1.9343918447 2.4900515091
H 3.4410050381 -4.1337646432 1.4197558746
H 2.2452491615 -3.5294739085 0.2315459405
H 5.1949210933 -3.8163958415 -0.1631409192
H 4.0400713581 -3.1498079337 -1.3575350243
H 5.9079951019 -1.394525622 -0.1660138106
O -2.502608215 2.715062851 0.58737046
C -2.8745197862 -0.2484995953 -3.5223466662
C -5.2004887895 -0.8705475341 -0.0096793599
C -5.8204659567 -1.3152620207 1.3737274519
C -5.5084776923 -0.0552639523 2.2634516015
C -4.8026206267 0.8912091941 1.2154053047
O -5.4862571608 0.5805792567 -0.0613835755
H -3.3027007901 -1.8320873474 0.6886681595
H -2.8163792196 0.1139259728 1.9059986792
H -2.8166377157 -1.2757774953 -3.9373342889
H -5.6164695736 -1.379340348 -0.9004963034
H -6.9052521442 -1.4783965218 1.2713756586
H -5.3595686379 -2.2374224829 1.7622921602
H -6.4307844497 0.410096606 2.6456672589
H -4.8519534004 -0.2907519631 3.1162267314
H -4.8543616804 1.9758775204 1.4339527118
H -1.8441017586 0.1514227403 -3.4297784252
H -3.4609431124 0.3939553079 -4.204729303
H 3.5291938569 3.7645057374 -1.7473282384
H 5.2215935908 3.1759514853 -1.4843343797
H 4.1595187535 3.5169809418 -0.0692855919
H 0.7350470301 0.0769981052 -0.9735056361
H 1.7327751493 1.5537163018 -1.2850698111
H -0.582611819 2.8076592916 -0.3989915152
H -0.5314329787 2.1386737632 -2.0819607191
$end

$rem
JOBTYPE                   OPT
METHOD                    B3LYP
DFT_D                     d3_op
BASIS                     STO-3G
GEOM_OPT_MAX_CYCLES       100
GEOM_OPT_TOL_GRADIENT     300
GEOM_OPT_TOL_DISPLACEMENT 1200
GEOM_OPT_TOL_ENERGY       100
SYMMETRY                  False
THRESH                    12
SCF_CONVERGENCE           8
MAX_SUB_FILE_NUM          128
MEM_STATIC                400
MEM_TOTAL                 4000
$end
--------------------------------------------------------------

   16   -1510.2711721409      5.67E-09 Convergence criterion met
 Total energy in the final basis set = -1510.27117214
   14   -1510.2728657019      3.09E-09 Convergence criterion met
 Total energy in the final basis set = -1510.27286570
   14   -1510.2735881363      6.67E-09 Convergence criterion met
 Total energy in the final basis set = -1510.27358814
   14   -1510.2749922380      7.43E-09 Convergence criterion met
 Total energy in the final basis set = -1510.27499224
   13   -1510.2760481738      5.59E-09 Convergence criterion met
 Total energy in the final basis set = -1510.27604817
   13   -1510.2770271658      4.52E-09 Convergence criterion met
 Total energy in the final basis set = -1510.27702717
   13   -1510.2776738357      8.86E-09 Convergence criterion met
 Total energy in the final basis set = -1510.27767384
   13   -1510.2779974242      6.22E-09 Convergence criterion met
   12   -1510.2794886979      9.71E-09 Convergence criterion met
 Total energy in the final basis set = -1510.27948870
   12   -1510.2794668866      7.87E-09 Convergence criterion met
 Total energy in the final basis set = -1510.27946689
   12   -1510.2794450430      9.10E-09 Convergence criterion met
 Total energy in the final basis set = -1510.27944504
   12   -1510.2795019224      4.77E-09 Convergence criterion met
 Total energy in the final basis set = -1510.27950192
   12   -1510.2794641220      4.95E-09 Convergence criterion met
 Total energy in the final basis set = -1510.27946412
   11   -1510.2794947251      5.47E-09 Convergence criterion met
 Total energy in the final basis set = -1510.27949473

             Standard Nuclear Orientation (Angstroms)
    I     Atom           X                Y                Z
 ----------------------------------------------------------------
    1      O       4.2688482585    -0.4721509441     3.0568547309
    2      C       4.1893604883     0.0258356747     1.9136454975
    3      C       4.3536966187    -0.7037818870     0.5388893555
    4      C       3.1839094974    -0.3821001853    -0.4836771413
    5      C       2.0709302446     0.5581913914     0.0954811684
    6      O       1.5423254529    -0.0695370516     1.2807199033
    7      C       0.3532646064     0.6734120337     1.7540384777
    8      C      -0.9499376445    -0.0124524977     1.2169453818
    9      O      -0.7770471317    -0.0731315590    -0.2561615151
   10      C      -1.8124213951    -0.7428185512    -0.9894102900
   11      C      -3.0298084938    -1.3903737357    -0.2118465460
   12      C      -4.1429075692    -0.3615742993     0.2795712259
   13      C      -3.8246748389     1.1256452779    -0.0920483480
   14      O      -4.0061349227     1.7131238225    -1.1771539365
   15      O       3.9367420523     1.4144277958     1.6558029542
   16      O      -3.2570893750     1.7588808602     1.0734629264
   17      O      -1.6756837060    -0.8038441375    -2.2312049842
   18      C      -2.8155353388     3.1353480145     0.7459988531
   19      C      -3.8798245279    -2.2892323486    -1.2084225698
   20      C      -4.7961983212    -3.2484587324    -0.3540094806
   21      C      -5.8881324699    -2.2405425909     0.1644213565
   22      C      -5.4097631509    -0.8961779417    -0.5146265104
   23      O      -4.8395757353    -1.3342649779    -1.8069449611
   24      H      -2.6547601425    -1.9879245850     0.6371538376
   25      H      -4.2802381026    -0.4226876821     1.3737755908
   26      H      -3.2756462865    -2.7717224741    -2.0006839013
   27      H      -5.2377942522    -4.0280056387    -0.9948739212
   28      H      -4.2418549795    -3.7359872003     0.4639970703
   29      H      -6.8942192243    -2.5145735083    -0.1907869159
   30      H      -5.9098916931    -2.1646689630     1.2632542186
   31      H      -6.1989943623    -0.1368473778    -0.6767411544
   32      O       1.6608663581     1.6384491199    -0.3756592096
   33      C       3.6807354994     2.1287157064     2.9256983193
   34      C       5.6057996981    -0.1625143983    -0.2832788868
   35      C       5.8968516284    -1.1709028530    -1.4651949539
   36      C       4.7401160256    -0.8078561223    -2.4700874787
   37      C       3.9800296065     0.3138726998    -1.6614531750
   38      O       5.0722025014     1.0356140987    -0.9661389097
   39      H       4.4348009517    -1.7862797069     0.7395238446
   40      H       2.6937492469    -1.3146052157    -0.8193324360
   41      H       4.5513332504     2.0729358502     3.6104705535
   42      H       6.4840652522     0.1015443442     0.3373643803
   43      H       6.8889112454    -0.9742725782    -1.9016769249
   44      H       5.8591068392    -2.2206977327    -1.1328666478
   45      H       5.1384319403    -0.4016773229    -3.4134478450
   46      H       4.0903075952    -1.6671219607    -2.7007126211
   47      H       3.3696091580     1.0181192589    -2.2596469884
   48      H       2.7941085740     1.7160832194     3.4490382403
   49      H       3.4915958971     3.1823985113     2.6501045061
   50      H      -2.4751754456     3.5831585926     1.6975981945
   51      H      -3.6458053291     3.7358102254     0.3239039068
   52      H      -1.9775304666     3.1247573769     0.0188957847
   53      H      -1.0465885983    -1.0278770460     1.6563649386
   54      H      -1.8423333958     0.6110729863     1.4751862732
   55      H       0.4046251461     1.7204168404     1.3859552052
   56      H       0.3612248614     0.6525308565     2.8629795895
 ----------------------------------------------------------------

    9   -1510.2794908029      8.72E-09 Convergence criterion met
 Total energy in the final basis set = -1510.27949080
 Final energy is   -1510.27949080288
 **  OPTIMIZATION CONVERGED  **

                    Orbital Energies (a.u.)
 --------------------------------------------------------------

 Alpha MOs
 -- Occupied --
-18.950 -18.932 -18.929 -18.924 -18.894 -18.891 -18.883 -18.872
-18.872 -18.872 -10.110 -10.098 -10.096 -10.096 -10.073 -10.071
-10.065 -10.065 -10.063 -10.061 -10.058 -10.053 -10.047 -10.042
-10.034 -10.033 -10.025 -10.023 -10.017 -10.015  -1.024  -1.013
 -1.006  -0.998  -0.973  -0.966  -0.950  -0.937  -0.933  -0.929
 -0.768  -0.760  -0.727  -0.723  -0.710  -0.708  -0.698  -0.672
 -0.659  -0.608  -0.605  -0.582  -0.554  -0.543  -0.542  -0.533
 -0.515  -0.508  -0.486  -0.482  -0.471  -0.464  -0.460  -0.442
 -0.434  -0.430  -0.427  -0.423  -0.416  -0.414  -0.406  -0.403
 -0.397  -0.386  -0.374  -0.369  -0.363  -0.358  -0.357  -0.352
 -0.345  -0.343  -0.338  -0.335  -0.327  -0.321  -0.318  -0.313
 -0.311  -0.306  -0.302  -0.301  -0.290  -0.288  -0.288  -0.283
 -0.271  -0.268  -0.248  -0.245  -0.242  -0.237  -0.230  -0.194
 -0.174  -0.171  -0.168  -0.164  -0.154  -0.147  -0.147  -0.144
 -0.140

          Ground-State Mulliken Net Atomic Charges

     Atom                 Charge (a.u.)
  ----------------------------------------
      1 O                    -0.214300
      2 C                     0.212145
      3 C                    -0.079009
      4 C                    -0.077393
      5 C                     0.223516
      6 O                    -0.180518
      7 C                    -0.051889
      8 C                    -0.065248
      9 O                    -0.174880
     10 C                     0.203386
     11 C                    -0.084336
     12 C                    -0.081368
     13 C                     0.208458
     14 O                    -0.194124
     15 O                    -0.166629
     16 O                    -0.173689
     17 O                    -0.198078
     18 C                    -0.130631
     19 C                     0.026462
     20 C                    -0.144377
     21 C                    -0.144196
     22 C                     0.026634
     23 O                    -0.182589
     24 H                     0.078761
     25 H                     0.084157
     26 H                     0.092139
     27 H                     0.079638
     28 H                     0.072232
     29 H                     0.079431
     30 H                     0.072557
     31 H                     0.086041
     32 O                    -0.208312
     33 C                    -0.127465
     34 C                     0.025830
     35 C                    -0.143994
     36 C                    -0.143665
     37 C                     0.025167
     38 O                    -0.186430
     39 H                     0.084579
     40 H                     0.086383
     41 H                     0.088978
     42 H                     0.081666
     43 H                     0.077461
     44 H                     0.073115
     45 H                     0.078157
     46 H                     0.073984
     47 H                     0.092517
     48 H                     0.084956
     49 H                     0.092072
     50 H                     0.091476
     51 H                     0.095172
     52 H                     0.096904
     53 H                     0.074366
     54 H                     0.102631
     55 H                     0.098328
     56 H                     0.083820
  ----------------------------------------
  Sum of atomic charges =     0.000000

                    Cartesian Multipole Moments
 -----------------------------------------------------------------
    Charge (ESU x 10^10)
                 0.0000
    Dipole Moment (Debye)
         X      -1.3962      Y      -1.3972      Z       3.9600
       Tot       4.4253
    Quadrupole Moments (Debye-Ang)
        XX    -153.6262     XY      -1.4232     YY    -152.1727
        XZ     -16.6577     YZ       8.7997     ZZ    -168.3353

 Total job time:  73.11s(wall), 3482.11s(cpu)
        *  Thank you very much for using Q-Chem.  Have a nice day.  *
