 Q-Chem 5.0, Q-Chem, Inc., Pleasanton, CA (2017)
 Q-Chem 5.0.1 for Intel X86 EM64T Linux

User input:
--------------------------------------------------------------
$molecule
0  1
O -3.94934 -3.66094 2.70899
C -3.26408 -4.56952 2.26188
C -3.36658 -6.02376 2.66595
C -3.63629 -7.04588 1.54953
C -3.59671 -6.52161 0.1312
O -3.02515 -7.45041 -0.69103
C -3.64498 -7.51922 -1.97957
C -2.95564 -8.57405 -2.83879
O -3.58132 -8.63881 -4.12999
C -4.05786 -9.85738 -4.48658
C -5.53086 -9.83883 -4.81912
C -6.39311 -10.80465 -3.99329
C -5.74341 -11.36853 -2.74564
O -4.78479 -12.12698 -2.72666
O -2.38121 -4.3312 1.2774
O -6.28391 -10.94855 -1.59207
O -3.34192 -10.83507 -4.64804
C -5.79875 -11.33687 -0.36143
C -6.29472 -8.51278 -4.57779
C -7.53404 -8.48797 -5.47961
C -8.41231 -9.50933 -4.79328
C -7.54266 -9.85855 -3.58738
O -6.86266 -8.65851 -3.30027
H -5.57366 -10.09429 -5.90025
H -6.74469 -11.65923 -4.60906
H -5.67941 -7.59507 -4.70615
H -8.01455 -7.48894 -5.40983
H -7.33469 -8.70995 -6.5475
H -9.35154 -9.0285 -4.45055
H -8.66391 -10.39081 -5.41736
H -8.15709 -10.25013 -2.74204
O -4.06401 -5.46021 -0.26228
C -2.20785 -3.07308 0.75279
C -2.03587 -6.5767 3.22265
C -2.32493 -7.80736 4.09199
C -2.65595 -8.83597 3.03613
C -2.44822 -8.01057 1.77491
O -1.39515 -7.13824 2.10353
H -4.15463 -6.06373 3.44913
H -4.61867 -7.5424 1.69708
H -1.86334 -2.44703 1.58345
H -1.42552 -5.8184 3.76364
H -1.39676 -8.11415 4.61899
H -3.12696 -7.66054 4.84284
H -1.91018 -9.65845 3.06484
H -3.67284 -9.27228 3.11894
H -2.22435 -8.68086 0.91324
H -3.16829 -2.70722 0.34572
H -1.4523 -3.10715 -0.04137
H -6.46435 -10.95226 0.41967
H -4.78965 -10.921 -0.25797
H -5.79763 -12.43382 -0.35625
H -1.87068 -8.36765 -2.93701
H -3.04405 -9.56021 -2.3278
H -3.57958 -6.53235 -2.48598
H -4.71711 -7.78846 -1.86858
$end

$opt
CONSTRAINT
tors           1           2           3           4    +123.158
tors           3           4           5           6    +142.105
tors           4           5           6           7    +142.105
tors           5           6           7           8    -180.000
tors           6           7           8           9    -180.000
tors           7           8           9          10    -123.158
tors           8           9          10          11    +123.158
tors           9          10          11          12    -123.158
tors          11          12          13          14     -66.316
ENDCONSTRAINT
$end

$rem
JOBTYPE                   OPT
METHOD                    B3LYP
DFT_D                     d3_op
BASIS                     STO-3G
GEOM_OPT_MAX_CYCLES       100
GEOM_OPT_TOL_GRADIENT     300
GEOM_OPT_TOL_DISPLACEMENT 1200
GEOM_OPT_TOL_ENERGY       100
SYMMETRY                  False
THRESH                    12
SCF_CONVERGENCE           8
MAX_SUB_FILE_NUM          128
MEM_STATIC                400
MEM_TOTAL                 4000
$end
--------------------------------------------------------------

   15   -1510.1326402955      5.87E-09 Convergence criterion met
 Total energy in the final basis set = -1510.13264030
   14   -1510.2038538857      3.74E-09 Convergence criterion met
 Total energy in the final basis set = -1510.20385389
   14   -1510.2403886883      5.63E-09 Convergence criterion met
 Total energy in the final basis set = -1510.24038869
   14   -1510.2537523874      7.10E-09 Convergence criterion met
 Total energy in the final basis set = -1510.25375239
   14   -1510.2558687275      2.69E-09 Convergence criterion met
 Total energy in the final basis set = -1510.25586873
   13   -1510.2563559713      3.37E-09 Convergence criterion met
 Total energy in the final basis set = -1510.25635597
   12   -1510.2566632972      5.77E-09 Convergence criterion met
 Total energy in the final basis set = -1510.25666330
   13   -1510.2568796436      2.11E-09 Convergence criterion met
   11   -1510.2588154236      6.45E-09 Convergence criterion met
 Total energy in the final basis set = -1510.25881542
   11   -1510.2588359271      5.12E-09 Convergence criterion met
 Total energy in the final basis set = -1510.25883593
   11   -1510.2588458822      4.12E-09 Convergence criterion met
 Total energy in the final basis set = -1510.25884588
   10   -1510.2588570296      8.69E-09 Convergence criterion met
 Total energy in the final basis set = -1510.25885703
   10   -1510.2588617029      8.62E-09 Convergence criterion met
 Total energy in the final basis set = -1510.25886170
   10   -1510.2588675660      7.27E-09 Convergence criterion met
 Total energy in the final basis set = -1510.25886757

             Standard Nuclear Orientation (Angstroms)
    I     Atom           X                Y                Z
 ----------------------------------------------------------------
    1      O      -5.0503702469    -2.4367118333     1.4261190787
    2      C      -4.6185984178    -1.5052213771     0.7135002037
    3      C      -4.2023854878    -0.0695167809     1.1827552358
    4      C      -2.7099582388     0.3100529124     0.8026394985
    5      C      -1.9161238207    -0.8568495291     0.1036178483
    6      O      -1.0677462952    -0.3222471475    -0.9255760432
    7      C       0.2209826069    -1.0555341100    -0.9572829062
    8      C       1.0887277548    -0.4202662410    -2.0976494938
    9      O       2.3654546807    -1.1799992694    -2.0960823353
   10      C       3.4747111071    -0.2698711020    -1.9111120455
   11      C       4.3283923960    -0.6919924358    -0.6446788152
   12      C       4.4522225338     0.4790234094     0.4331328135
   13      C       4.0206979147     1.9051138856    -0.0661224242
   14      O       4.5855882914     2.5956848754    -0.9410661796
   15      O      -4.4728094928    -1.5753812159    -0.7104586213
   16      O       2.7965345138     2.2865101072     0.5756068068
   17      O       3.6711572981     0.7245249418    -2.6393106012
   18      C       2.3441826977     3.5986732610     0.0597993600
   19      C       3.5670771903    -1.7854636578     0.2084798635
   20      C       4.5211368685    -2.3359471288     1.3400222863
   21      C       4.4651070670    -1.1671571745     2.3921095806
   22      C       3.5780436585    -0.1153641841     1.6226215472
   23      O       2.5715438217    -0.9689452811     0.9463900824
   24      H       5.3309295221    -1.0260240532    -0.9703124715
   25      H       5.5102256372     0.5640036704     0.7429519735
   26      H       3.0555369580    -2.5498867656    -0.4053462826
   27      H       4.1262125748    -3.2763635844     1.7556548536
   28      H       5.5401428235    -2.5184616460     0.9628761513
   29      H       3.9608910944    -1.4851151947     3.3186795392
   30      H       5.4607328014    -0.7715264629     2.6486284542
   31      H       3.0804115534     0.6484462355     2.2497748209
   32      O      -1.9218354010    -2.0560331367     0.4587214814
   33      C      -4.7610398915    -2.9476725143    -1.1819000460
   34      C      -4.9967153394     1.0673883668     0.4017920296
   35      C      -4.8034098230     2.4314755262     1.1772884344
   36      C      -3.3240086662     2.7983705644     0.7844088127
   37      C      -2.9404382273     1.5703350565    -0.1312343084
   38      O      -4.2049253929     1.2536968794    -0.8336891907
   39      H      -4.3715763840    -0.0122466492     2.2721920884
   40      H      -2.1305822826     0.5847187786     1.7043395726
   41      H      -5.7681256016    -3.2890267794    -0.8665363711
   42      H      -6.0449780507     0.8093822788     0.1554974208
   43      H      -5.5178482916     3.1863045891     0.8117393167
   44      H      -4.9393513710     2.3133631265     2.2641974902
   45      H      -3.2809669384     3.7371240143     0.2095805045
   46      H      -2.6598086555     2.8876025686     1.6586069665
   47      H      -2.1215311529     1.7400181539    -0.8560701485
   48      H      -4.0074207089    -3.6672898200    -0.8002647495
   49      H      -4.7094249700    -2.9090694105    -2.2855119606
   50      H       1.3938127276     3.8189984073     0.5800044919
   51      H       2.1714443490     3.5666414081    -1.0354678729
   52      H       3.0800537221     4.3998949619     0.2755298684
   53      H       0.5811120611    -0.5355278212    -3.0807553622
   54      H       1.2449647850     0.6623639181    -1.9119470881
   55      H       0.0662701551    -2.1373636650    -1.1617918692
   56      H       0.7861615232    -0.9504852693     0.0019098524
 ----------------------------------------------------------------

   10   -1510.2588680407      3.58E-09 Convergence criterion met
 Total energy in the final basis set = -1510.25886804
 Final energy is   -1510.25886804066
 **  OPTIMIZATION CONVERGED  **

                    Orbital Energies (a.u.)
 --------------------------------------------------------------

 Alpha MOs
 -- Occupied --
-18.939 -18.924 -18.921 -18.914 -18.899 -18.898 -18.885 -18.882
-18.877 -18.865 -10.109 -10.104 -10.100 -10.090 -10.072 -10.069
-10.067 -10.065 -10.059 -10.058 -10.055 -10.054 -10.045 -10.044
-10.035 -10.032 -10.026 -10.025 -10.019 -10.018  -1.018  -1.011
 -1.007  -0.999  -0.979  -0.967  -0.944  -0.939  -0.933  -0.926
 -0.769  -0.760  -0.728  -0.722  -0.716  -0.707  -0.693  -0.666
 -0.652  -0.611  -0.598  -0.577  -0.552  -0.544  -0.543  -0.535
 -0.520  -0.511  -0.487  -0.476  -0.471  -0.461  -0.449  -0.442
 -0.436  -0.432  -0.428  -0.417  -0.415  -0.407  -0.403  -0.402
 -0.396  -0.380  -0.373  -0.367  -0.361  -0.354  -0.350  -0.348
 -0.345  -0.341  -0.337  -0.337  -0.332  -0.327  -0.320  -0.317
 -0.313  -0.306  -0.303  -0.298  -0.290  -0.288  -0.288  -0.284
 -0.273  -0.261  -0.251  -0.247  -0.244  -0.239  -0.230  -0.184
 -0.173  -0.169  -0.166  -0.165  -0.154  -0.153  -0.150  -0.142
 -0.140

          Ground-State Mulliken Net Atomic Charges

     Atom                 Charge (a.u.)
  ----------------------------------------
      1 O                    -0.213607
      2 C                     0.211108
      3 C                    -0.080517
      4 C                    -0.077556
      5 C                     0.218331
      6 O                    -0.181993
      7 C                    -0.056976
      8 C                    -0.044462
      9 O                    -0.190732
     10 C                     0.214901
     11 C                    -0.077975
     12 C                    -0.081044
     13 C                     0.204414
     14 O                    -0.201472
     15 O                    -0.169005
     16 O                    -0.172496
     17 O                    -0.186400
     18 C                    -0.128983
     19 C                     0.023604
     20 C                    -0.145213
     21 C                    -0.142859
     22 C                     0.023825
     23 O                    -0.195293
     24 H                     0.087149
     25 H                     0.085699
     26 H                     0.095782
     27 H                     0.080004
     28 H                     0.074811
     29 H                     0.079249
     30 H                     0.074589
     31 H                     0.092109
     32 O                    -0.208371
     33 C                    -0.128253
     34 C                     0.026487
     35 C                    -0.144077
     36 C                    -0.144456
     37 C                     0.023167
     38 O                    -0.186449
     39 H                     0.083283
     40 H                     0.083799
     41 H                     0.087896
     42 H                     0.082741
     43 H                     0.077307
     44 H                     0.073342
     45 H                     0.076546
     46 H                     0.071361
     47 H                     0.091665
     48 H                     0.090787
     49 H                     0.089351
     50 H                     0.089988
     51 H                     0.091839
     52 H                     0.089963
     53 H                     0.086365
     54 H                     0.087521
     55 H                     0.086719
     56 H                     0.102490
  ----------------------------------------
  Sum of atomic charges =     0.000000

                    Cartesian Multipole Moments
 -----------------------------------------------------------------
    Charge (ESU x 10^10)
                 0.0000
    Dipole Moment (Debye)
         X       1.6890      Y       1.1271      Z       2.2192
       Tot       3.0080
    Quadrupole Moments (Debye-Ang)
        XX    -158.2352     XY     -14.1556     YY    -157.9845
        XZ      11.3991     YZ      11.4126     ZZ    -164.2458

 Total job time:  65.97s(wall), 3141.37s(cpu)
        *  Thank you very much for using Q-Chem.  Have a nice day.  *
