 Q-Chem 5.0, Q-Chem, Inc., Pleasanton, CA (2017)
 Q-Chem 5.0.1 for Intel X86 EM64T Linux

User input:
--------------------------------------------------------------
$molecule
0  1
O -5.0503702469 -2.4367118333 1.4261190787
C -4.6185984178 -1.5052213771 0.7135002037
C -4.2023854878 -0.0695167809 1.1827552358
C -2.7099582388 0.3100529124 0.8026394985
C -1.9161238207 -0.8568495291 0.1036178483
O -1.0677462952 -0.3222471475 -0.9255760432
C 0.2209826069 -1.05553411 -0.9572829062
C 1.0887277548 -0.420266241 -2.0976494938
O 2.3654546807 -1.1799992694 -2.0960823353
C 3.4747111071 -0.269871102 -1.9111120455
C 4.328392396 -0.6919924358 -0.6446788152
C 4.4522225338 0.4790234094 0.4331328135
C 4.0206979147 1.9051138856 -0.0661224242
O 4.5855882914 2.5956848754 -0.9410661796
O -4.4728094928 -1.5753812159 -0.7104586213
O 2.7965345138 2.2865101072 0.5756068068
O 3.6711572981 0.7245249418 -2.6393106012
C 2.3441826977 3.598673261 0.05979936
C 3.5670771903 -1.7854636578 0.2084798635
C 4.5211368685 -2.3359471288 1.3400222863
C 4.465107067 -1.1671571745 2.3921095806
C 3.5780436585 -0.1153641841 1.6226215472
O 2.5715438217 -0.9689452811 0.9463900824
H 5.3309295221 -1.0260240532 -0.9703124715
H 5.5102256372 0.5640036704 0.7429519735
H 3.055536958 -2.5498867656 -0.4053462826
H 4.1262125748 -3.2763635844 1.7556548536
H 5.5401428235 -2.518461646 0.9628761513
H 3.9608910944 -1.4851151947 3.3186795392
H 5.4607328014 -0.7715264629 2.6486284542
H 3.0804115534 0.6484462355 2.2497748209
O -1.921835401 -2.0560331367 0.4587214814
C -4.7610398915 -2.9476725143 -1.181900046
C -4.9967153394 1.0673883668 0.4017920296
C -4.803409823 2.4314755262 1.1772884344
C -3.3240086662 2.7983705644 0.7844088127
C -2.9404382273 1.5703350565 -0.1312343084
O -4.2049253929 1.2536968794 -0.8336891907
H -4.371576384 -0.0122466492 2.2721920884
H -2.1305822826 0.5847187786 1.7043395726
H -5.7681256016 -3.2890267794 -0.8665363711
H -6.0449780507 0.8093822788 0.1554974208
H -5.5178482916 3.1863045891 0.8117393167
H -4.939351371 2.3133631265 2.2641974902
H -3.2809669384 3.7371240143 0.2095805045
H -2.6598086555 2.8876025686 1.6586069665
H -2.1215311529 1.7400181539 -0.8560701485
H -4.0074207089 -3.66728982 -0.8002647495
H -4.70942497 -2.9090694105 -2.2855119606
H 1.3938127276 3.8189984073 0.5800044919
H 2.171444349 3.5666414081 -1.0354678729
H 3.0800537221 4.3998949619 0.2755298684
H 0.5811120611 -0.5355278212 -3.0807553622
H 1.244964785 0.6623639181 -1.9119470881
H 0.0662701551 -2.137363665 -1.1617918692
H 0.7861615232 -0.9504852693 0.0019098524
$end

$rem
JOBTYPE                   OPT
METHOD                    B3LYP
DFT_D                     d3_op
BASIS                     STO-3G
GEOM_OPT_MAX_CYCLES       100
GEOM_OPT_TOL_GRADIENT     300
GEOM_OPT_TOL_DISPLACEMENT 1200
GEOM_OPT_TOL_ENERGY       100
SYMMETRY                  False
THRESH                    12
SCF_CONVERGENCE           8
MAX_SUB_FILE_NUM          128
MEM_STATIC                400
MEM_TOTAL                 4000
$end
--------------------------------------------------------------

   16   -1510.2588112171      4.14E-09 Convergence criterion met
 Total energy in the final basis set = -1510.25881122
   15   -1510.2639364613      2.25E-09 Convergence criterion met
 Total energy in the final basis set = -1510.26393646
   14   -1510.2678450829      8.34E-09 Convergence criterion met
 Total energy in the final basis set = -1510.26784508
   14   -1510.2707483210      6.27E-09 Convergence criterion met
 Total energy in the final basis set = -1510.27074832
   14   -1510.2737784602      9.00E-09 Convergence criterion met
 Total energy in the final basis set = -1510.27377846
   15   -1510.2766214533      1.93E-09 Convergence criterion met
 Total energy in the final basis set = -1510.27662145
   14   -1510.2793772640      8.92E-09 Convergence criterion met
 Total energy in the final basis set = -1510.27937726
   15   -1510.2811621481      3.17E-09 Convergence criterion met
   11   -1510.2912568419      8.16E-09 Convergence criterion met
 Total energy in the final basis set = -1510.29125684
   10   -1510.2912605832      9.33E-09 Convergence criterion met
 Total energy in the final basis set = -1510.29126058
   11   -1510.2912645775      3.60E-09 Convergence criterion met
 Total energy in the final basis set = -1510.29126458
   11   -1510.2912616883      3.75E-09 Convergence criterion met
 Total energy in the final basis set = -1510.29126169
   10   -1510.2912636196      9.60E-09 Convergence criterion met
 Total energy in the final basis set = -1510.29126362
   10   -1510.2912651327      9.34E-09 Convergence criterion met
 Total energy in the final basis set = -1510.29126513

             Standard Nuclear Orientation (Angstroms)
    I     Atom           X                Y                Z
 ----------------------------------------------------------------
    1      O       2.3268571297     1.7051400170    -2.3652952673
    2      C       3.2185118726     1.2313692165    -1.6270589310
    3      C       3.8765519369     1.9488889402    -0.3869033092
    4      C       3.0821011123     1.7430831172     0.9700304239
    5      C       1.8583358565     0.7841413967     0.8276941493
    6      O       1.0595323391     0.8853791828     2.0040117809
    7      C      -0.1551793435     0.0352326615     1.8968301710
    8      C      -1.4130568534     0.9547549332     1.7178554344
    9      O      -2.5676108999     0.0859847158     1.3919586312
   10      C      -3.2910899315     0.6248886323     0.2764674099
   11      C      -4.4520617174    -0.3563130651    -0.1268154406
   12      C      -4.2510496641    -0.9811378035    -1.5753912659
   13      C      -2.9676187855    -0.4914126437    -2.3265857520
   14      O      -2.9018280920    -0.0991457894    -3.5120580004
   15      O       3.8755558183    -0.0200655489    -1.8553489789
   16      O      -1.8475864211    -0.5741882835    -1.4411863439
   17      O      -3.0422256866     1.7337357790    -0.2469541279
   18      C      -0.6361458386    -0.0294773810    -2.1012982451
   19      C      -4.5127236152    -1.6692479793     0.7592622113
   20      C      -5.8988219103    -2.3845605915     0.5043230231
   21      C      -5.6600851145    -3.0208147572    -0.9153950790
   22      C      -4.1894573520    -2.5331935213    -1.2194294080
   23      O      -3.5312291161    -2.5653905485     0.1043097814
   24      H      -5.3990494646     0.2125069402    -0.0821408263
   25      H      -5.1145149957    -0.7600004674    -2.2269490600
   26      H      -4.2459570983    -1.5138350879     1.8215170629
   27      H      -6.0775016772    -3.1577446620     1.2682921358
   28      H      -6.7415256258    -1.6750558786     0.5172228744
   29      H      -5.7011901046    -4.1211646215    -0.8775800272
   30      H      -6.3804632979    -2.6656677455    -1.6696333056
   31      H      -3.6281457712    -3.1499905675    -1.9478748332
   32      O       1.6125021249     0.0185652715    -0.1353661585
   33      C       3.2265291203    -0.7292712014    -2.9797715852
   34      C       5.2967568992     1.3601395373     0.0079437928
   35      C       6.0286762182     2.4092490775     0.9345302304
   36      C       5.2355154656     2.2320357038     2.2817930724
   37      C       4.2128074576     1.0949842711     1.8850632093
   38      O       4.9700090628     0.2513994512     0.9360597447
   39      H       3.9376830713     3.0251538759    -0.6279385435
   40      H       2.7253036524     2.6993307717     1.3926102613
   41      H       3.1671672521    -0.0942841753    -3.8871457827
   42      H       5.8898101900     0.9851413162    -0.8474253201
   43      H       7.0903634359     2.1407441305     1.0539838517
   44      H       5.9667870131     3.4336485347     0.5336005685
   45      H       5.8924117171     1.8912703034     3.0978468558
   46      H       4.7242563585     3.1544059860     2.6005161219
   47      H       3.8256634878     0.4902640217     2.7281926595
   48      H       2.2014971097    -1.0531766652    -2.7072935497
   49      H       3.8516907097    -1.6178151455    -3.1843251780
   50      H       0.1811599424    -0.0755931734    -1.3497454705
   51      H      -0.7920479255     1.0207593568    -2.4196585804
   52      H      -0.3649850102    -0.6280809760    -2.9938456630
   53      H      -1.6220236533     1.5157421972     2.6538601964
   54      H      -1.2659440309     1.6821932777     0.8897195206
   55      H      -0.2316656831    -0.5569469312     2.8313162224
   56      H      -0.0577223321    -0.6468521641     1.0257461302
 ----------------------------------------------------------------

    9   -1510.2912659114      5.72E-09 Convergence criterion met
 Total energy in the final basis set = -1510.29126591
 Final energy is   -1510.29126591142
 **  OPTIMIZATION CONVERGED  **

                    Orbital Energies (a.u.)
 --------------------------------------------------------------

 Alpha MOs
 -- Occupied --
-18.950 -18.932 -18.925 -18.925 -18.898 -18.891 -18.886 -18.869
-18.867 -18.860 -10.117 -10.099 -10.092 -10.091 -10.075 -10.069
-10.065 -10.060 -10.059 -10.056 -10.055 -10.046 -10.039 -10.037
-10.036 -10.033 -10.023 -10.021 -10.019 -10.018  -1.028  -1.011
 -1.001  -1.000  -0.973  -0.968  -0.953  -0.934  -0.927  -0.926
 -0.767  -0.761  -0.730  -0.722  -0.715  -0.707  -0.695  -0.654
 -0.646  -0.619  -0.596  -0.579  -0.548  -0.543  -0.539  -0.535
 -0.518  -0.509  -0.486  -0.479  -0.466  -0.465  -0.455  -0.437
 -0.436  -0.431  -0.426  -0.412  -0.409  -0.404  -0.401  -0.400
 -0.396  -0.382  -0.374  -0.366  -0.365  -0.354  -0.348  -0.347
 -0.341  -0.337  -0.335  -0.331  -0.328  -0.328  -0.318  -0.315
 -0.308  -0.305  -0.303  -0.301  -0.293  -0.289  -0.281  -0.279
 -0.271  -0.261  -0.248  -0.245  -0.241  -0.236  -0.231  -0.194
 -0.172  -0.171  -0.166  -0.166  -0.155  -0.148  -0.143  -0.141
 -0.141

          Ground-State Mulliken Net Atomic Charges

     Atom                 Charge (a.u.)
  ----------------------------------------
      1 O                    -0.222820
      2 C                     0.212994
      3 C                    -0.081005
      4 C                    -0.078003
      5 C                     0.221519
      6 O                    -0.169113
      7 C                    -0.053569
      8 C                    -0.052915
      9 O                    -0.170903
     10 C                     0.217280
     11 C                    -0.077780
     12 C                    -0.079860
     13 C                     0.208155
     14 O                    -0.211832
     15 O                    -0.168054
     16 O                    -0.172784
     17 O                    -0.220469
     18 C                    -0.142755
     19 C                     0.024834
     20 C                    -0.144711
     21 C                    -0.143552
     22 C                     0.025930
     23 O                    -0.186901
     24 H                     0.084107
     25 H                     0.084756
     26 H                     0.089991
     27 H                     0.077226
     28 H                     0.072828
     29 H                     0.077517
     30 H                     0.074056
     31 H                     0.082966
     32 O                    -0.208925
     33 C                    -0.127622
     34 C                     0.026121
     35 C                    -0.144286
     36 C                    -0.143565
     37 C                     0.025905
     38 O                    -0.186697
     39 H                     0.083927
     40 H                     0.088819
     41 H                     0.088297
     42 H                     0.090381
     43 H                     0.078379
     44 H                     0.073890
     45 H                     0.078850
     46 H                     0.074200
     47 H                     0.084853
     48 H                     0.090462
     49 H                     0.088444
     50 H                     0.107474
     51 H                     0.089463
     52 H                     0.081359
     53 H                     0.082890
     54 H                     0.101193
     55 H                     0.090715
     56 H                     0.108341
  ----------------------------------------
  Sum of atomic charges =     0.000000

                    Cartesian Multipole Moments
 -----------------------------------------------------------------
    Charge (ESU x 10^10)
                 0.0000
    Dipole Moment (Debye)
         X       0.2278      Y       0.2999      Z       2.5337
       Tot       2.5616
    Quadrupole Moments (Debye-Ang)
        XX    -141.7981     XY      13.6883     YY    -158.8246
        XZ      -3.6401     YZ       8.9955     ZZ    -161.3344

 Total job time:  188.15s(wall), 8964.81s(cpu)
        *  Thank you very much for using Q-Chem.  Have a nice day.  *
