 Q-Chem 5.0, Q-Chem, Inc., Pleasanton, CA (2017)
 Q-Chem 5.0.1 for Intel X86 EM64T Linux

User input:
--------------------------------------------------------------
$molecule
0  1
O 5.9828714802 0.6837446386 0.5615615939
C 4.7754658487 0.5079668029 0.2894931126
C 3.7566086929 -0.3833605821 1.0904021586
C 2.2347834848 -0.0552125814 0.8088086614
C 2.017549768 1.4451814388 0.3922338819
O 0.7595890845 1.7357386634 -0.2906009555
C 0.0691389612 2.7879011624 0.5029687831
C -1.3768827911 2.3794490538 0.9818015608
O -2.3530953202 2.2110109943 -0.1036765975
C -2.1628324576 1.1295582838 -1.0382720281
C -1.8423162501 -0.3110496032 -0.4658311626
C -2.7876057539 -0.7722357207 0.7206165941
C -3.9518013832 0.2299499253 1.0360988921
O -4.4079493231 0.5320036065 2.1604298801
O 4.1706623421 0.8990815879 -0.9488554353
O -4.5252364834 0.6404517081 -0.2088654756
O -2.3790699519 1.3619342807 -2.2458237951
C -5.5938864574 1.6381499573 0.0163344252
C -2.1943652833 -1.3910533917 -1.5798418423
C -1.4765902963 -2.750675257 -1.2511296465
C -2.2724936837 -3.2067860321 0.0255398189
C -3.4026307418 -2.1006504247 0.0924613881
O -3.61779028 -1.7149233286 -1.3185797756
H -0.7799551274 -0.3474048442 -0.1687304831
H -2.2304542939 -0.9707291045 1.653211941
H -2.0684981062 -1.0077215266 -2.6111991794
H -1.6204703983 -3.4572246526 -2.0839734299
H -0.3995261936 -2.6344506224 -1.0739435509
H -2.7138587336 -4.207673996 -0.1023673416
H -1.6492997682 -3.2088870845 0.9340422787
H -4.3526797018 -2.4267192475 0.5587084314
O 2.7558063544 2.3650063541 0.8113651313
C 5.1256473542 1.682015373 -1.7628078556
C 3.8397957008 -1.8428702353 0.4643693467
C 2.9352268279 -2.8326479649 1.3010161139
C 1.5029765145 -2.4810972775 0.752968026
C 1.8380616481 -1.2430508912 -0.1721000428
O 3.1056855824 -1.6608717233 -0.8103278804
H 4.0143018898 -0.3581408034 2.1633859485
H 1.6519204651 -0.160195588 1.7451509564
H 6.0647358307 1.1199619053 -1.942499328
H 4.8709664989 -2.1973560547 0.2713868388
H 3.2048566692 -3.8793864343 1.0905052556
H 3.0301689048 -2.6548823779 2.3842098895
H 1.1009168724 -3.3129788355 0.1543614457
H 0.7815328615 -2.234801732 1.5483581384
H 1.0861945541 -0.9873275892 -0.942557987
H 5.3768789638 2.6460241493 -1.2747875254
H 4.6169551583 1.8766964255 -2.7248584927
H -6.0725745036 1.7999808092 -0.9667046011
H -5.16969258 2.5952653891 0.3832489672
H -6.3443846916 1.2742117995 0.7471296685
H -1.3118304064 1.4736886996 1.6278136816
H -1.7740766379 3.2131594601 1.5972505009
H -0.0323813009 3.6922647978 -0.1377371863
H 0.6704591943 3.0768098451 1.3898766672
$end

$rem
JOBTYPE                   OPT
METHOD                    B3LYP
DFT_D                     d3_op
BASIS                     STO-3G
GEOM_OPT_MAX_CYCLES       100
GEOM_OPT_TOL_GRADIENT     300
GEOM_OPT_TOL_DISPLACEMENT 1200
GEOM_OPT_TOL_ENERGY       100
SYMMETRY                  False
THRESH                    12
SCF_CONVERGENCE           8
MAX_SUB_FILE_NUM          128
MEM_STATIC                400
MEM_TOTAL                 4000
$end
--------------------------------------------------------------

   16   -1510.2497222926      2.67E-09 Convergence criterion met
 Total energy in the final basis set = -1510.24972229
   14   -1510.2534247760      3.07E-09 Convergence criterion met
 Total energy in the final basis set = -1510.25342478
   13   -1510.2607183898      9.34E-09 Convergence criterion met
 Total energy in the final basis set = -1510.26071839
   13   -1510.2672644597      9.42E-09 Convergence criterion met
 Total energy in the final basis set = -1510.26726446
   14   -1510.2715812556      2.63E-09 Convergence criterion met
 Total energy in the final basis set = -1510.27158126
   14   -1510.2743260781      7.76E-09 Convergence criterion met
 Total energy in the final basis set = -1510.27432608
   13   -1510.2764998734      4.76E-09 Convergence criterion met
 Total energy in the final basis set = -1510.27649987
   13   -1510.2779208569      9.22E-09 Convergence criterion met
   12   -1510.2837459518      5.46E-09 Convergence criterion met
 Total energy in the final basis set = -1510.28374595
   10   -1510.2837607683      8.08E-09 Convergence criterion met
 Total energy in the final basis set = -1510.28376077
   10   -1510.2837658062      9.55E-09 Convergence criterion met
 Total energy in the final basis set = -1510.28376581
   10   -1510.2837634733      7.68E-09 Convergence criterion met
 Total energy in the final basis set = -1510.28376347
   10   -1510.2837621691      4.45E-09 Convergence criterion met
 Total energy in the final basis set = -1510.28376217
    9   -1510.2837651995      8.46E-09 Convergence criterion met
 Total energy in the final basis set = -1510.28376520

             Standard Nuclear Orientation (Angstroms)
    I     Atom           X                Y                Z
 ----------------------------------------------------------------
    1      O      -2.7404712106    -1.0324658410     2.6908348865
    2      C      -3.1916376948    -0.5311303015     1.6382161147
    3      C      -2.8195732760     0.8791712031     1.0474241422
    4      C      -1.7333809758     0.8414164976    -0.1044222982
    5      C      -1.2809198052    -0.6026837351    -0.4946561067
    6      O      -0.3856719310    -0.5063810074    -1.6172596375
    7      C       0.1116995908    -1.8505743461    -2.0070737246
    8      C       1.3083919914    -2.3613351522    -1.1048164049
    9      O       2.6480341874    -2.0391722080    -1.6333247345
   10      C       3.0826609525    -0.6626515082    -1.5135563296
   11      C       2.2035171259     0.3501091916    -0.6799982223
   12      C       2.1941155098     0.1300420957     0.8931971113
   13      C       3.0443411624    -1.0864949540     1.3912360811
   14      O       2.7158416761    -1.9327532258     2.2521048049
   15      O      -4.2166418336    -1.1212118822     0.8305688159
   16      O       4.2872444612    -1.0929620018     0.6867149931
   17      O       4.1133416565    -0.3526849013    -2.1471138258
   18      C       5.0835071715    -2.2860919140     1.0530885752
   19      C       2.8290586644     1.8011293984    -0.7770289881
   20      C       1.7279017467     2.8498314715    -0.3529189975
   21      C       1.6901915057     2.6316918315     1.2057145712
   22      C       2.7988451412     1.5187248533     1.3856994197
   23      O       3.7956297320     1.8451250114     0.3459656409
   24      H       1.1676363460     0.3055478365    -1.0791130590
   25      H       1.1674669650    -0.0104518216     1.2770773755
   26      H       3.3464716743     2.0016059949    -1.7350035556
   27      H       2.0471204523     3.8726260607    -0.6085717126
   28      H       0.7591042361     2.6507654405    -0.8383033194
   29      H       1.9741694387     3.5471602780     1.7484941444
   30      H       0.7050981102     2.2990007358     1.5711693634
   31      H       3.2718221693     1.4844363067     2.3863999215
   32      O      -1.6103431195    -1.6860346699     0.0338651672
   33      C      -4.5305936152    -2.4768558610     1.3331420551
   34      C      -4.0261164108     1.5806360996     0.2870102962
   35      C      -3.6956521754     3.1192608822     0.1479381463
   36      C      -2.6001025739     3.0946127900    -0.9811316283
   37      C      -2.5196943120     1.5488766686    -1.2928035734
   38      O      -3.9072812398     1.0757466444    -1.1016529847
   39      H      -2.4596657074     1.4977496740     1.8883504540
   40      H      -0.8333028252     1.4187766790     0.1716714917
   41      H      -4.8609656457    -2.4567913562     2.3918813778
   42      H      -5.0258435666     1.3441116115     0.6984573032
   43      H      -4.5903740385     3.6765875700    -0.1717970196
   44      H      -3.3271870067     3.5527598945     1.0913269939
   45      H      -2.9269874257     3.6488277794    -1.8751562874
   46      H      -1.6324230134     3.5023405399    -0.6472005936
   47      H      -2.1458300950     1.2838544778    -2.3008984364
   48      H      -3.6508567049    -3.1473089812     1.2492927027
   49      H      -5.3493305342    -2.8573361629     0.6951047534
   50      H       6.0173327596    -2.2179232474     0.4656934625
   51      H       4.5480778164    -3.2221763677     0.7936458990
   52      H       5.3215678065    -2.3001717452     2.1361767673
   53      H       1.1559503272    -2.0222699550    -0.0597914397
   54      H       1.2776585391    -3.4704153655    -1.1042675362
   55      H       0.4517296597    -1.7531831414    -3.0581390849
   56      H      -0.7192673308    -2.5846612048    -1.9500057352
 ----------------------------------------------------------------

    9   -1510.2837636695      4.01E-09 Convergence criterion met
 Total energy in the final basis set = -1510.28376367
 Final energy is   -1510.28376366951
 **  OPTIMIZATION CONVERGED  **

                    Orbital Energies (a.u.)
 --------------------------------------------------------------

 Alpha MOs
 -- Occupied --
-18.963 -18.940 -18.928 -18.925 -18.908 -18.896 -18.888 -18.877
-18.869 -18.866 -10.125 -10.101 -10.096 -10.095 -10.088 -10.081
-10.071 -10.066 -10.064 -10.063 -10.058 -10.057 -10.053 -10.042
-10.039 -10.029 -10.026 -10.025 -10.024 -10.023  -1.039  -1.015
 -1.005  -0.999  -0.978  -0.970  -0.963  -0.939  -0.932  -0.930
 -0.774  -0.764  -0.735  -0.726  -0.722  -0.708  -0.704  -0.661
 -0.658  -0.628  -0.602  -0.594  -0.555  -0.551  -0.545  -0.540
 -0.524  -0.512  -0.496  -0.485  -0.475  -0.466  -0.457  -0.448
 -0.440  -0.432  -0.428  -0.415  -0.414  -0.413  -0.412  -0.405
 -0.400  -0.400  -0.384  -0.374  -0.370  -0.365  -0.355  -0.347
 -0.345  -0.343  -0.340  -0.338  -0.335  -0.331  -0.327  -0.318
 -0.316  -0.312  -0.309  -0.304  -0.298  -0.294  -0.291  -0.284
 -0.282  -0.269  -0.254  -0.249  -0.242  -0.238  -0.235  -0.202
 -0.179  -0.178  -0.170  -0.166  -0.156  -0.153  -0.146  -0.144
 -0.142

          Ground-State Mulliken Net Atomic Charges

     Atom                 Charge (a.u.)
  ----------------------------------------
      1 O                    -0.217682
      2 C                     0.212454
      3 C                    -0.081946
      4 C                    -0.080074
      5 C                     0.215163
      6 O                    -0.172256
      7 C                    -0.054710
      8 C                    -0.054111
      9 O                    -0.177287
     10 C                     0.212431
     11 C                    -0.103833
     12 C                    -0.084528
     13 C                     0.202944
     14 O                    -0.213246
     15 O                    -0.169557
     16 O                    -0.161314
     17 O                    -0.201367
     18 C                    -0.126181
     19 C                     0.025452
     20 C                    -0.145413
     21 C                    -0.144438
     22 C                     0.026865
     23 O                    -0.184903
     24 H                     0.097152
     25 H                     0.078280
     26 H                     0.091640
     27 H                     0.078495
     28 H                     0.068841
     29 H                     0.078955
     30 H                     0.068385
     31 H                     0.083576
     32 O                    -0.198619
     33 C                    -0.127540
     34 C                     0.026789
     35 C                    -0.144193
     36 C                    -0.144163
     37 C                     0.024833
     38 O                    -0.185995
     39 H                     0.083425
     40 H                     0.085283
     41 H                     0.087411
     42 H                     0.088941
     43 H                     0.079553
     44 H                     0.074525
     45 H                     0.080150
     46 H                     0.073435
     47 H                     0.087356
     48 H                     0.092168
     49 H                     0.088528
     50 H                     0.096960
     51 H                     0.090278
     52 H                     0.089906
     53 H                     0.089324
     54 H                     0.095570
     55 H                     0.098775
     56 H                     0.099513
  ----------------------------------------
  Sum of atomic charges =     0.000000

                    Cartesian Multipole Moments
 -----------------------------------------------------------------
    Charge (ESU x 10^10)
                -0.0000
    Dipole Moment (Debye)
         X      -2.6209      Y       1.2456      Z      -0.1336
       Tot       2.9049
    Quadrupole Moments (Debye-Ang)
        XX    -173.0160     XY      -4.7610     YY    -150.6214
        XZ       6.0417     YZ       4.9719     ZZ    -167.2769

 Total job time:  131.17s(wall), 6256.81s(cpu)
        *  Thank you very much for using Q-Chem.  Have a nice day.  *
