 Q-Chem 5.0, Q-Chem, Inc., Pleasanton, CA (2017)
 Q-Chem 5.0.1 for Intel X86 EM64T Linux

User input:
--------------------------------------------------------------
$molecule
0  1
O -3.94934 -3.66094 2.70899
C -3.26408 -4.56952 2.26188
C -3.36658 -6.02376 2.66595
C -2.76261 -7.06348 1.7078
C -1.9673 -6.5228 0.54022
O -1.16128 -7.50256 0.03441
C -1.38372 -7.75194 -1.35756
C -1.73594 -9.21927 -1.57894
O -0.60615 -10.04714 -1.26097
C -0.24025 -10.05789 0.04484
C -1.40824 -10.25546 0.98154
C -2.3591 -11.39885 0.59836
C -1.8302 -12.38305 -0.42551
O -2.48836 -12.90277 -1.31505
O -2.07914 -4.1542 1.72186
O -0.52617 -12.77888 -0.31962
O 0.92078 -10.22746 0.38235
C 0.09532 -13.67547 -1.16357
C -1.05752 -10.7972 2.41492
C -2.33259 -10.78875 3.31004
C -2.9852 -12.07068 2.99994
C -2.18502 -12.39925 1.80003
O -0.86373 -12.16408 2.22551
H -2.00858 -9.36643 1.05029
H -3.42578 -11.14763 0.4058
H -0.21328 -10.25965 2.89487
H -2.16946 -10.7702 4.40838
H -3.03977 -10.07078 2.88093
H -2.72118 -12.82978 3.77408
H -4.09067 -12.03707 2.8753
H -2.41842 -13.47553 1.58968
O -2.44338 -5.65282 -0.18289
C -1.74461 -2.84481 1.43846
C -2.34609 -5.89879 3.85067
C -2.59411 -6.87337 4.93557
C -2.35812 -8.0887 4.14206
C -1.71228 -7.52719 2.8211
O -1.15591 -6.33529 3.27875
H -4.38599 -6.25002 3.05124
H -3.50154 -7.82855 1.38876
H -1.74944 -2.23655 2.368
H -2.26823 -4.91004 4.37323
H -1.78136 -6.73169 5.68751
H -3.58535 -6.80767 5.43753
H -1.66681 -8.7095 4.74917
H -3.37697 -8.48862 3.98403
H -0.91941 -8.18857 2.45208
H -2.46192 -2.41902 0.70472
H -0.72609 -2.81745 1.00013
H 1.14885 -13.80603 -0.84217
H 0.08409 -13.28945 -2.20524
H -0.41721 -14.66008 -1.12048
H -2.68453 -9.49416 -1.08182
H -1.92831 -9.34906 -2.66523
H -0.4538 -7.51436 -1.91729
H -2.20764 -7.16825 -1.8264
$end

$opt
CONSTRAINT
tors           1           2           3           4    +161.053
tors           3           4           5           6    +161.053
tors           4           5           6           7    +123.158
tors           5           6           7           8    -123.158
tors           6           7           8           9     -66.316
tors           7           8           9          10     +66.316
tors           8           9          10          11     +47.368
tors           9          10          11          12     +47.368
tors          11          12          13          14    -142.105
ENDCONSTRAINT
$end

$rem
JOBTYPE                   OPT
METHOD                    B3LYP
DFT_D                     d3_op
BASIS                     STO-3G
GEOM_OPT_MAX_CYCLES       100
GEOM_OPT_TOL_GRADIENT     300
GEOM_OPT_TOL_DISPLACEMENT 1200
GEOM_OPT_TOL_ENERGY       100
SYMMETRY                  False
THRESH                    12
SCF_CONVERGENCE           8
MAX_SUB_FILE_NUM          128
MEM_STATIC                400
MEM_TOTAL                 4000
$end
--------------------------------------------------------------

   15   -1510.0054081535      9.10E-09 Convergence criterion met
 Total energy in the final basis set = -1510.00540815
   14   -1510.0758909021      5.21E-09 Convergence criterion met
 Total energy in the final basis set = -1510.07589090
   13   -1510.1464801924      5.56E-09 Convergence criterion met
 Total energy in the final basis set = -1510.14648019
   13   -1510.1918464354      8.35E-09 Convergence criterion met
 Total energy in the final basis set = -1510.19184644
   13   -1510.2167239128      9.86E-09 Convergence criterion met
 Total energy in the final basis set = -1510.21672391
   13   -1510.2273986303      8.25E-09 Convergence criterion met
 Total energy in the final basis set = -1510.22739863
   14   -1510.2325311818      3.63E-09 Convergence criterion met
 Total energy in the final basis set = -1510.23253118
   13   -1510.2352791620      4.09E-09 Convergence criterion met
   10   -1510.2496728430      6.44E-09 Convergence criterion met
 Total energy in the final basis set = -1510.24967284
   11   -1510.2496832452      3.11E-09 Convergence criterion met
 Total energy in the final basis set = -1510.24968325
    9   -1510.2496887367      8.35E-09 Convergence criterion met
 Total energy in the final basis set = -1510.24968874
    9   -1510.2496920608      8.07E-09 Convergence criterion met
 Total energy in the final basis set = -1510.24969206
    9   -1510.2496941028      6.71E-09 Convergence criterion met
 Total energy in the final basis set = -1510.24969410
    9   -1510.2497022512      4.68E-09 Convergence criterion met
 Total energy in the final basis set = -1510.24970225

             Standard Nuclear Orientation (Angstroms)
    I     Atom           X                Y                Z
 ----------------------------------------------------------------
    1      O       5.9828714802     0.6837446386     0.5615615939
    2      C       4.7754658487     0.5079668029     0.2894931126
    3      C       3.7566086929    -0.3833605821     1.0904021586
    4      C       2.2347834848    -0.0552125814     0.8088086614
    5      C       2.0175497680     1.4451814388     0.3922338819
    6      O       0.7595890845     1.7357386634    -0.2906009555
    7      C       0.0691389612     2.7879011624     0.5029687831
    8      C      -1.3768827911     2.3794490538     0.9818015608
    9      O      -2.3530953202     2.2110109943    -0.1036765975
   10      C      -2.1628324576     1.1295582838    -1.0382720281
   11      C      -1.8423162501    -0.3110496032    -0.4658311626
   12      C      -2.7876057539    -0.7722357207     0.7206165941
   13      C      -3.9518013832     0.2299499253     1.0360988921
   14      O      -4.4079493231     0.5320036065     2.1604298801
   15      O       4.1706623421     0.8990815879    -0.9488554353
   16      O      -4.5252364834     0.6404517081    -0.2088654756
   17      O      -2.3790699519     1.3619342807    -2.2458237951
   18      C      -5.5938864574     1.6381499573     0.0163344252
   19      C      -2.1943652833    -1.3910533917    -1.5798418423
   20      C      -1.4765902963    -2.7506752570    -1.2511296465
   21      C      -2.2724936837    -3.2067860321     0.0255398189
   22      C      -3.4026307418    -2.1006504247     0.0924613881
   23      O      -3.6177902800    -1.7149233286    -1.3185797756
   24      H      -0.7799551274    -0.3474048442    -0.1687304831
   25      H      -2.2304542939    -0.9707291045     1.6532119410
   26      H      -2.0684981062    -1.0077215266    -2.6111991794
   27      H      -1.6204703983    -3.4572246526    -2.0839734299
   28      H      -0.3995261936    -2.6344506224    -1.0739435509
   29      H      -2.7138587336    -4.2076739960    -0.1023673416
   30      H      -1.6492997682    -3.2088870845     0.9340422787
   31      H      -4.3526797018    -2.4267192475     0.5587084314
   32      O       2.7558063544     2.3650063541     0.8113651313
   33      C       5.1256473542     1.6820153730    -1.7628078556
   34      C       3.8397957008    -1.8428702353     0.4643693467
   35      C       2.9352268279    -2.8326479649     1.3010161139
   36      C       1.5029765145    -2.4810972775     0.7529680260
   37      C       1.8380616481    -1.2430508912    -0.1721000428
   38      O       3.1056855824    -1.6608717233    -0.8103278804
   39      H       4.0143018898    -0.3581408034     2.1633859485
   40      H       1.6519204651    -0.1601955880     1.7451509564
   41      H       6.0647358307     1.1199619053    -1.9424993280
   42      H       4.8709664989    -2.1973560547     0.2713868388
   43      H       3.2048566692    -3.8793864343     1.0905052556
   44      H       3.0301689048    -2.6548823779     2.3842098895
   45      H       1.1009168724    -3.3129788355     0.1543614457
   46      H       0.7815328615    -2.2348017320     1.5483581384
   47      H       1.0861945541    -0.9873275892    -0.9425579870
   48      H       5.3768789638     2.6460241493    -1.2747875254
   49      H       4.6169551583     1.8766964255    -2.7248584927
   50      H      -6.0725745036     1.7999808092    -0.9667046011
   51      H      -5.1696925800     2.5952653891     0.3832489672
   52      H      -6.3443846916     1.2742117995     0.7471296685
   53      H      -1.3118304064     1.4736886996     1.6278136816
   54      H      -1.7740766379     3.2131594601     1.5972505009
   55      H      -0.0323813009     3.6922647978    -0.1377371863
   56      H       0.6704591943     3.0768098451     1.3898766672
 ----------------------------------------------------------------

    9   -1510.2497029172      3.02E-09 Convergence criterion met
 Total energy in the final basis set = -1510.24970292
 Final energy is   -1510.24970291724
 **  OPTIMIZATION CONVERGED  **

                    Orbital Energies (a.u.)
 --------------------------------------------------------------

 Alpha MOs
 -- Occupied --
-18.935 -18.934 -18.925 -18.917 -18.898 -18.894 -18.888 -18.882
-18.874 -18.873 -10.114 -10.103 -10.100 -10.099 -10.084 -10.077
-10.072 -10.069 -10.063 -10.062 -10.061 -10.057 -10.051 -10.045
-10.041 -10.036 -10.032 -10.030 -10.023 -10.020  -1.019  -1.014
 -1.008  -1.000  -0.980  -0.971  -0.945  -0.936  -0.935  -0.933
 -0.773  -0.764  -0.734  -0.726  -0.720  -0.709  -0.705  -0.661
 -0.658  -0.618  -0.604  -0.592  -0.558  -0.550  -0.547  -0.539
 -0.519  -0.512  -0.489  -0.485  -0.478  -0.467  -0.450  -0.445
 -0.444  -0.435  -0.425  -0.418  -0.416  -0.412  -0.410  -0.407
 -0.400  -0.387  -0.381  -0.369  -0.369  -0.366  -0.359  -0.354
 -0.346  -0.344  -0.341  -0.339  -0.331  -0.331  -0.320  -0.319
 -0.315  -0.312  -0.306  -0.304  -0.302  -0.293  -0.292  -0.283
 -0.275  -0.257  -0.253  -0.251  -0.243  -0.234  -0.229  -0.185
 -0.176  -0.175  -0.168  -0.164  -0.154  -0.153  -0.150  -0.147
 -0.144

          Ground-State Mulliken Net Atomic Charges

     Atom                 Charge (a.u.)
  ----------------------------------------
      1 O                    -0.214265
      2 C                     0.214107
      3 C                    -0.076534
      4 C                    -0.078657
      5 C                     0.220756
      6 O                    -0.186029
      7 C                    -0.056504
      8 C                    -0.045463
      9 O                    -0.189548
     10 C                     0.227357
     11 C                    -0.087276
     12 C                    -0.082444
     13 C                     0.207804
     14 O                    -0.216997
     15 O                    -0.167511
     16 O                    -0.162409
     17 O                    -0.190490
     18 C                    -0.126355
     19 C                     0.024631
     20 C                    -0.146697
     21 C                    -0.144796
     22 C                     0.026111
     23 O                    -0.184965
     24 H                     0.082512
     25 H                     0.077954
     26 H                     0.094609
     27 H                     0.079485
     28 H                     0.074726
     29 H                     0.078310
     30 H                     0.070463
     31 H                     0.082687
     32 O                    -0.199449
     33 C                    -0.126673
     34 C                     0.024625
     35 C                    -0.145103
     36 C                    -0.143639
     37 C                     0.023107
     38 O                    -0.185130
     39 H                     0.086894
     40 H                     0.080978
     41 H                     0.090578
     42 H                     0.086394
     43 H                     0.080571
     44 H                     0.075334
     45 H                     0.079947
     46 H                     0.070133
     47 H                     0.088990
     48 H                     0.090061
     49 H                     0.092388
     50 H                     0.094689
     51 H                     0.090568
     52 H                     0.089967
     53 H                     0.074696
     54 H                     0.095267
     55 H                     0.089212
     56 H                     0.091024
  ----------------------------------------
  Sum of atomic charges =    -0.000000

                    Cartesian Multipole Moments
 -----------------------------------------------------------------
    Charge (ESU x 10^10)
                -0.0000
    Dipole Moment (Debye)
         X       0.4147      Y      -1.6637      Z       2.5879
       Tot       3.1043
    Quadrupole Moments (Debye-Ang)
        XX    -175.6621     XY      -3.6435     YY    -153.8892
        XZ      -5.5563     YZ      -1.7892     ZZ    -165.2110

 Total job time:  94.20s(wall), 4488.57s(cpu)
        *  Thank you very much for using Q-Chem.  Have a nice day.  *
