 Q-Chem 5.0, Q-Chem, Inc., Pleasanton, CA (2017)
 Q-Chem 5.0.1 for Intel X86 EM64T Linux

User input:
--------------------------------------------------------------
$molecule
0  1
O -3.94934 -3.66094 2.70899
C -3.26408 -4.56952 2.26188
C -3.36658 -6.02376 2.66595
C -4.76371 -6.66479 2.63506
C -5.87455 -5.83231 2.03414
O -6.33572 -6.42723 0.89448
C -7.11066 -5.54691 0.07366
C -6.64917 -5.63864 -1.37711
O -6.83613 -6.97595 -1.86653
C -6.84759 -7.10663 -3.21632
C -7.68819 -8.2693 -3.68776
C -7.89813 -8.34219 -5.20726
C -6.97078 -7.48427 -6.04435
O -5.8799 -7.83058 -6.474
O -2.40465 -4.2751 1.24942
O -7.44304 -6.25215 -6.37417
O -6.3463 -6.24551 -3.92625
C -6.75766 -5.3385 -7.14739
C -7.0631 -9.64197 -3.39346
C -8.1613 -10.70282 -3.35179
C -8.53892 -10.7745 -4.81759
C -7.49708 -9.82143 -5.41676
O -6.37801 -9.96834 -4.57503
H -8.66718 -8.17788 -3.16406
H -8.94352 -8.16372 -5.54363
H -6.46509 -9.66287 -2.45621
H -7.67721 -11.66285 -3.06143
H -9.00141 -10.49109 -2.65579
H -8.36798 -11.81528 -5.17208
H -9.57547 -10.45405 -5.05913
H -7.33171 -10.06174 -6.49063
O -6.33048 -4.8156 2.54301
C -2.22248 -3.01456 0.71995
C -2.56826 -7.00836 1.78357
C -2.22393 -8.26257 2.58382
C -3.58231 -8.91852 2.6763
C -4.41892 -7.94987 1.83279
O -3.51615 -7.48336 0.85993
H -2.96353 -6.046 3.70339
H -5.12188 -6.94129 3.65158
H -1.86031 -2.31804 1.50607
H -1.63506 -6.58284 1.35648
H -1.56824 -8.8961 1.94408
H -1.71832 -8.07569 3.5556
H -3.5253 -9.91162 2.17689
H -3.98591 -9.03616 3.70513
H -5.31477 -8.49101 1.45789
H -3.17647 -2.63742 0.29317
H -1.4651 -3.06597 -0.08886
H -7.37175 -4.42122 -7.25659
H -6.56208 -5.76085 -8.15616
H -5.79628 -5.06937 -6.65981
H -7.29206 -4.92965 -1.94939
H -5.58513 -5.33074 -1.47762
H -7.06234 -4.47322 0.36853
H -8.17448 -5.8654 0.11802
$end

$opt
CONSTRAINT
tors           1           2           3           4     +50.995
tors           3           4           5           6    +114.846
tors           4           5           6           7    -163.745
tors           5           6           7           8    +132.420
tors           6           7           8           9     +61.275
tors           7           8           9          10    +161.192
tors           8           9          10          11    -151.128
tors           9          10          11          12    +171.662
tors          11          12          13          14     +88.938
ENDCONSTRAINT
$end

$rem
JOBTYPE                   OPT
METHOD                    B3LYP
DFT_D                     d3_op
BASIS                     STO-3G
GEOM_OPT_MAX_CYCLES       100
GEOM_OPT_TOL_GRADIENT     300
GEOM_OPT_TOL_DISPLACEMENT 1200
GEOM_OPT_TOL_ENERGY       100
SYMMETRY                  False
THRESH                    12
SCF_CONVERGENCE           8
MAX_SUB_FILE_NUM          128
MEM_STATIC                400
MEM_TOTAL                 4000
$end
--------------------------------------------------------------

   15   -1510.1455551900      6.66E-09 Convergence criterion met
 Total energy in the final basis set = -1510.14555519
   14   -1510.2146038658      5.05E-09 Convergence criterion met
 Total energy in the final basis set = -1510.21460387
   14   -1510.2508968338      6.93E-09 Convergence criterion met
 Total energy in the final basis set = -1510.25089683
   14   -1510.2655890868      5.47E-09 Convergence criterion met
 Total energy in the final basis set = -1510.26558909
   14   -1510.2690509864      3.74E-09 Convergence criterion met
 Total energy in the final basis set = -1510.26905099
   12   -1510.2697297268      6.29E-09 Convergence criterion met
 Total energy in the final basis set = -1510.26972973
   12   -1510.2699704223      6.39E-09 Convergence criterion met
 Total energy in the final basis set = -1510.26997042
   11   -1510.2700671302      9.77E-09 Convergence criterion met
   10   -1510.2703817788      8.79E-09 Convergence criterion met
 Total energy in the final basis set = -1510.27038178
   10   -1510.2703879754      8.40E-09 Convergence criterion met
 Total energy in the final basis set = -1510.27038798
   11   -1510.2703965901      2.45E-09 Convergence criterion met
 Total energy in the final basis set = -1510.27039659
   11   -1510.2704055698      3.40E-09 Convergence criterion met
 Total energy in the final basis set = -1510.27040557
   11   -1510.2704131341      4.89E-09 Convergence criterion met
 Total energy in the final basis set = -1510.27041313
   11   -1510.2704202210      3.18E-09 Convergence criterion met
 Total energy in the final basis set = -1510.27042022

             Standard Nuclear Orientation (Angstroms)
    I     Atom           X                Y                Z
 ----------------------------------------------------------------
    1      O      -4.8289555165    -1.9860538157     0.7256367901
    2      C      -4.6790648724    -1.2551455391    -0.2768706384
    3      C      -4.7932537708     0.3144698137    -0.3453822916
    4      C      -3.9382995049     1.1148790059     0.7401312923
    5      C      -3.1504787718     0.2148426569     1.7593078506
    6      O      -1.7401697100     0.3982045680     1.5684055934
    7      C      -0.9766765939    -0.6923167431     2.2181303704
    8      C       0.0804186338    -1.2163120895     1.1934396255
    9      O       0.9681135902    -0.0670964877     0.8863854092
   10      C       2.2038161643    -0.5158142331     0.3175920284
   11      C       3.3166567184     0.5209826834     0.6900198489
   12      C       4.7817949911     0.0582647897     0.3091966387
   13      C       4.8356615417    -1.2632343823    -0.5439626712
   14      O       4.7962078224    -1.3685942139    -1.7876792528
   15      O      -4.3925472837    -1.7718705984    -1.5834597954
   16      O       5.0246916501    -2.3634268529     0.3597249519
   17      O       2.3527225103    -1.6176443764    -0.2567427347
   18      C       4.9954442345    -3.6360800431    -0.3947935231
   19      C       3.2049953209     1.8925419291    -0.1119307335
   20      C       4.0201747129     2.9839038460     0.6871113618
   21      C       5.4978757567     2.5321249134     0.3859891407
   22      C       5.2545425169     1.2942465587    -0.5664327887
   23      O       4.0297678492     1.6602532253    -1.3161463429
   24      H       3.2281904475     0.7057049036     1.7760086534
   25      H       5.3990865178    -0.0825435194     1.2138543494
   26      H       2.1715939720     2.1778685650    -0.3898268981
   27      H       3.8146895394     3.9882525010     0.2837504322
   28      H       3.7815316932     2.9781423473     1.7625399862
   29      H       6.0633030824     3.3186372574    -0.1383233537
   30      H       6.0486968085     2.2474023346     1.2966872953
   31      H       6.0788793782     1.0652706742    -1.2689725366
   32      O      -3.6336001111    -0.5533274772     2.6192080073
   33      C      -4.3064553730    -3.2492740394    -1.5343248099
   34      C      -4.1952952032     0.9170590679    -1.6872152920
   35      C      -4.7298427672     2.3925615239    -1.8661354214
   36      C      -3.8596726836     3.1624257911    -0.8050965324
   37      C      -3.0011892802     1.9827755104    -0.2025658067
   38      O      -2.7611179221     1.0968206542    -1.3643150604
   39      H      -5.8645543441     0.5665450876    -0.2343356986
   40      H      -4.6146563498     1.7607694959     1.3305163349
   41      H      -5.2638668211    -3.7045419137    -1.2079424276
   42      H      -4.3156831816     0.2539723660    -2.5642891868
   43      H      -4.5320338164     2.7506344393    -2.8888513944
   44      H      -5.8109650843     2.4696011946    -1.6680780545
   45      H      -3.2047714884     3.9071490175    -1.2845570892
   46      H      -4.4692270003     3.6684921368    -0.0395849355
   47      H      -2.0427144655     2.2784132987     0.2636369618
   48      H      -3.5046092327    -3.5892086746    -0.8475339610
   49      H      -4.0733688819    -3.5744366586    -2.5649747131
   50      H       5.1649482716    -4.4382100667     0.3470224712
   51      H       5.7885264011    -3.6730378474    -1.1696434392
   52      H       4.0131583825    -3.7863132116    -0.8880924668
   53      H       0.6567367398    -2.0590511973     1.6338751005
   54      H      -0.4280108070    -1.5841440918     0.2743017631
   55      H      -1.6694966692    -1.5015200103     2.5375366857
   56      H      -0.4593317247    -0.2942676424     3.1180945696
 ----------------------------------------------------------------

   11   -1510.2704193289      2.52E-09 Convergence criterion met
 Total energy in the final basis set = -1510.27041933
 Final energy is   -1510.27041932887
 **  OPTIMIZATION CONVERGED  **

                    Orbital Energies (a.u.)
 --------------------------------------------------------------

 Alpha MOs
 -- Occupied --
-18.936 -18.932 -18.931 -18.917 -18.886 -18.886 -18.884 -18.879
-18.876 -18.858 -10.104 -10.100 -10.099 -10.086 -10.079 -10.075
-10.065 -10.059 -10.056 -10.055 -10.055 -10.052 -10.040 -10.038
-10.038 -10.031 -10.019 -10.019 -10.018 -10.018  -1.017  -1.013
 -1.009  -0.994  -0.968  -0.967  -0.944  -0.937  -0.932  -0.921
 -0.762  -0.760  -0.728  -0.720  -0.716  -0.704  -0.696  -0.661
 -0.652  -0.614  -0.597  -0.577  -0.544  -0.542  -0.536  -0.535
 -0.518  -0.509  -0.485  -0.472  -0.464  -0.454  -0.450  -0.445
 -0.436  -0.432  -0.429  -0.415  -0.412  -0.407  -0.402  -0.399
 -0.392  -0.381  -0.374  -0.371  -0.360  -0.352  -0.348  -0.346
 -0.343  -0.334  -0.333  -0.330  -0.328  -0.326  -0.321  -0.311
 -0.311  -0.305  -0.304  -0.297  -0.290  -0.285  -0.278  -0.275
 -0.273  -0.258  -0.251  -0.246  -0.242  -0.231  -0.231  -0.181
 -0.178  -0.173  -0.164  -0.162  -0.157  -0.143  -0.142  -0.142
 -0.137

          Ground-State Mulliken Net Atomic Charges

     Atom                 Charge (a.u.)
  ----------------------------------------
      1 O                    -0.207718
      2 C                     0.204278
      3 C                    -0.077803
      4 C                    -0.078429
      5 C                     0.207332
      6 O                    -0.172176
      7 C                    -0.049110
      8 C                    -0.044286
      9 O                    -0.174923
     10 C                     0.214615
     11 C                    -0.078408
     12 C                    -0.081466
     13 C                     0.214289
     14 O                    -0.214324
     15 O                    -0.169746
     16 O                    -0.175853
     17 O                    -0.202800
     18 C                    -0.128615
     19 C                     0.026024
     20 C                    -0.143155
     21 C                    -0.144828
     22 C                     0.026108
     23 O                    -0.185956
     24 H                     0.084928
     25 H                     0.083405
     26 H                     0.087483
     27 H                     0.077923
     28 H                     0.072897
     29 H                     0.077730
     30 H                     0.072755
     31 H                     0.086243
     32 O                    -0.202992
     33 C                    -0.127751
     34 C                     0.022250
     35 C                    -0.144750
     36 C                    -0.144441
     37 C                     0.023583
     38 O                    -0.190320
     39 H                     0.085214
     40 H                     0.084064
     41 H                     0.089219
     42 H                     0.093742
     43 H                     0.077995
     44 H                     0.072240
     45 H                     0.077761
     46 H                     0.072283
     47 H                     0.093161
     48 H                     0.089012
     49 H                     0.091582
     50 H                     0.085047
     51 H                     0.086044
     52 H                     0.092595
     53 H                     0.088613
     54 H                     0.091848
     55 H                     0.101492
     56 H                     0.086095
  ----------------------------------------
  Sum of atomic charges =    -0.000000

                    Cartesian Multipole Moments
 -----------------------------------------------------------------
    Charge (ESU x 10^10)
                -0.0000
    Dipole Moment (Debye)
         X      -0.6888      Y       0.9547      Z       1.6643
       Tot       2.0386
    Quadrupole Moments (Debye-Ang)
        XX    -150.6291     XY      -3.1396     YY    -148.0241
        XZ      19.8045     YZ       4.6867     ZZ    -166.6832

 Total job time:  54.49s(wall), 2587.72s(cpu)
        *  Thank you very much for using Q-Chem.  Have a nice day.  *
