 Q-Chem 5.0, Q-Chem, Inc., Pleasanton, CA (2017)
 Q-Chem 5.0.1 for Intel X86 EM64T Linux

User input:
--------------------------------------------------------------
$molecule
0  1
O -4.8289555165 -1.9860538157 0.7256367901
C -4.6790648724 -1.2551455391 -0.2768706384
C -4.7932537708 0.3144698137 -0.3453822916
C -3.9382995049 1.1148790059 0.7401312923
C -3.1504787718 0.2148426569 1.7593078506
O -1.74016971 0.398204568 1.5684055934
C -0.9766765939 -0.6923167431 2.2181303704
C 0.0804186338 -1.2163120895 1.1934396255
O 0.9681135902 -0.0670964877 0.8863854092
C 2.2038161643 -0.5158142331 0.3175920284
C 3.3166567184 0.5209826834 0.6900198489
C 4.7817949911 0.0582647897 0.3091966387
C 4.8356615417 -1.2632343823 -0.5439626712
O 4.7962078224 -1.3685942139 -1.7876792528
O -4.3925472837 -1.7718705984 -1.5834597954
O 5.0246916501 -2.3634268529 0.3597249519
O 2.3527225103 -1.6176443764 -0.2567427347
C 4.9954442345 -3.6360800431 -0.3947935231
C 3.2049953209 1.8925419291 -0.1119307335
C 4.0201747129 2.983903846 0.6871113618
C 5.4978757567 2.5321249134 0.3859891407
C 5.2545425169 1.2942465587 -0.5664327887
O 4.0297678492 1.6602532253 -1.3161463429
H 3.2281904475 0.7057049036 1.7760086534
H 5.3990865178 -0.0825435194 1.2138543494
H 2.171593972 2.177868565 -0.3898268981
H 3.8146895394 3.988252501 0.2837504322
H 3.7815316932 2.9781423473 1.7625399862
H 6.0633030824 3.3186372574 -0.1383233537
H 6.0486968085 2.2474023346 1.2966872953
H 6.0788793782 1.0652706742 -1.2689725366
O -3.6336001111 -0.5533274772 2.6192080073
C -4.306455373 -3.2492740394 -1.5343248099
C -4.1952952032 0.9170590679 -1.687215292
C -4.7298427672 2.3925615239 -1.8661354214
C -3.8596726836 3.1624257911 -0.8050965324
C -3.0011892802 1.9827755104 -0.2025658067
O -2.7611179221 1.0968206542 -1.3643150604
H -5.8645543441 0.5665450876 -0.2343356986
H -4.6146563498 1.7607694959 1.3305163349
H -5.2638668211 -3.7045419137 -1.2079424276
H -4.3156831816 0.253972366 -2.5642891868
H -4.5320338164 2.7506344393 -2.8888513944
H -5.8109650843 2.4696011946 -1.6680780545
H -3.2047714884 3.9071490175 -1.2845570892
H -4.4692270003 3.6684921368 -0.0395849355
H -2.0427144655 2.2784132987 0.2636369618
H -3.5046092327 -3.5892086746 -0.847533961
H -4.0733688819 -3.5744366586 -2.5649747131
H 5.1649482716 -4.4382100667 0.3470224712
H 5.7885264011 -3.6730378474 -1.1696434392
H 4.0131583825 -3.7863132116 -0.8880924668
H 0.6567367398 -2.0590511973 1.6338751005
H -0.428010807 -1.5841440918 0.2743017631
H -1.6694966692 -1.5015200103 2.5375366857
H -0.4593317247 -0.2942676424 3.1180945696
$end

$rem
JOBTYPE                   OPT
METHOD                    B3LYP
DFT_D                     d3_op
BASIS                     STO-3G
GEOM_OPT_MAX_CYCLES       100
GEOM_OPT_TOL_GRADIENT     300
GEOM_OPT_TOL_DISPLACEMENT 1200
GEOM_OPT_TOL_ENERGY       100
SYMMETRY                  False
THRESH                    12
SCF_CONVERGENCE           8
MAX_SUB_FILE_NUM          128
MEM_STATIC                400
MEM_TOTAL                 4000
$end
--------------------------------------------------------------

   16   -1510.2703901675      6.34E-09 Convergence criterion met
 Total energy in the final basis set = -1510.27039017
   15   -1510.2747964035      3.53E-09 Convergence criterion met
 Total energy in the final basis set = -1510.27479640
   15   -1510.2777559777      4.52E-09 Convergence criterion met
 Total energy in the final basis set = -1510.27775598
   14   -1510.2798290370      8.93E-09 Convergence criterion met
 Total energy in the final basis set = -1510.27982904
   14   -1510.2813255516      3.90E-09 Convergence criterion met
 Total energy in the final basis set = -1510.28132555
   14   -1510.2832504822      4.90E-09 Convergence criterion met
 Total energy in the final basis set = -1510.28325048
   14   -1510.2864079365      8.84E-09 Convergence criterion met
 Total energy in the final basis set = -1510.28640794
   15   -1510.2797586718      8.41E-09 Convergence criterion met
   11   -1510.3094813269      6.54E-09 Convergence criterion met
 Total energy in the final basis set = -1510.30948133
   11   -1510.3094950077      3.56E-09 Convergence criterion met
 Total energy in the final basis set = -1510.30949501
   10   -1510.3094987813      6.87E-09 Convergence criterion met
 Total energy in the final basis set = -1510.30949878
    9   -1510.3094998603      6.10E-09 Convergence criterion met
 Total energy in the final basis set = -1510.30949986
    9   -1510.3095004522      6.22E-09 Convergence criterion met
 Total energy in the final basis set = -1510.30950045
    9   -1510.3094988755      5.40E-09 Convergence criterion met
 Total energy in the final basis set = -1510.30949888

             Standard Nuclear Orientation (Angstroms)
    I     Atom           X                Y                Z
 ----------------------------------------------------------------
    1      O      -1.5919202980    -1.6232913131     0.2229823992
    2      C      -1.7792825779    -0.8650465649    -0.7586895197
    3      C      -2.7084270823     0.3932771338    -0.7864559632
    4      C      -3.4136397943     0.6680744546     0.6044054353
    5      C      -2.9845412824    -0.3221305446     1.7534468671
    6      O      -1.7509926831     0.1423321807     2.3321419594
    7      C      -1.3033745608    -0.7931031791     3.3884644148
    8      C      -0.0695398630    -1.6062106155     2.8717169911
    9      O       0.9623066921    -0.6176262148     2.4596655471
   10      C       1.4671187539    -0.9144195250     1.1649679792
   11      C       2.2470263787     0.3344412514     0.6412687802
   12      C       3.1360149951     0.0296650770    -0.6325879301
   13      C       3.2455645631    -1.4929665896    -1.0048955743
   14      O       2.8551234541    -2.0442525156    -2.0559866393
   15      O      -1.1828801996    -1.0232728013    -2.0340683103
   16      O       3.9825393879    -2.1562245103     0.0311953899
   17      O       1.2484825613    -1.9834530173     0.5435823940
   18      C       4.0328534644    -3.6091375281    -0.2455259832
   19      C       1.1985987885     1.3613321191     0.0318239303
   20      C       1.9323533305     2.7255091433    -0.2725582209
   21      C       2.7294873837     2.3728141479    -1.5839173180
   22      C       2.3641074682     0.8481651518    -1.7515168224
   23      O       0.9493186229     0.7910996444    -1.3145364994
   24      H       2.8266056739     0.7777116259     1.4697288200
   25      H       4.1599244567     0.4179494475    -0.4837122311
   26      H       0.2318316582     1.4664163232     0.5777550655
   27      H       1.1912651756     3.5211921337    -0.4487495557
   28      H       2.5903099294     3.0344664186     0.5551124973
   29      H       2.3653407438     2.9532168951    -2.4466853900
   30      H       3.8144828065     2.5334948008    -1.4815521213
   31      H       2.4726679163     0.4279049593    -2.7703322359
   32      O      -3.6645727610    -1.2658311605     2.2147756893
   33      C      -0.2349860031    -2.1670596556    -2.0218447085
   34      C      -1.8889010915     1.7399018259    -1.0005393256
   35      C      -2.9003655864     2.8592451277    -1.4547421898
   36      C      -3.6746068211     3.1306177367    -0.1096471381
   37      C      -2.9300077643     2.1520668379     0.8843911790
   38      O      -1.5381710464     2.1526069331     0.3790963910
   39      H      -3.4492073394     0.2595112961    -1.5953147762
   40      H      -4.5116820054     0.6014976110     0.5087738720
   41      H      -0.7844504778    -3.1273426049    -2.1003382229
   42      H      -0.9623751758     1.6091144586    -1.6013174486
   43      H      -2.3563572375     3.7554965185    -1.7933753751
   44      H      -3.5620907373     2.5191897765    -2.2671665603
   45      H      -3.5580587088     4.1751345432     0.2202185548
   46      H      -4.7498881720     2.9030751116    -0.1852761806
   47      H      -2.9553843212     2.4519609392     1.9495580426
   48      H       0.3808561747    -2.1629462323    -1.0931750362
   49      H       0.4166998747    -2.0371074847    -2.9045616978
   50      H       4.6261705159    -4.0578350033     0.5722661539
   51      H       4.5177551898    -3.8259706867    -1.2193784797
   52      H       3.0149626409    -4.0504484015    -0.2512031115
   53      H       0.3374851810    -2.2532197664     3.6785400068
   54      H      -0.3510693821    -2.2261383963     1.9932192156
   55      H      -2.1400412077    -1.4831468835     3.6384547021
   56      H      -1.0231539724    -0.1880904092     4.2753838724
 ----------------------------------------------------------------

    9   -1510.3094995982      1.95E-09 Convergence criterion met
 Total energy in the final basis set = -1510.30949960
 Final energy is   -1510.30949959822
 **  OPTIMIZATION CONVERGED  **

                    Orbital Energies (a.u.)
 --------------------------------------------------------------

 Alpha MOs
 -- Occupied --
-18.937 -18.930 -18.923 -18.916 -18.891 -18.883 -18.882 -18.871
-18.864 -18.859 -10.105 -10.096 -10.092 -10.090 -10.063 -10.060
-10.060 -10.056 -10.054 -10.052 -10.044 -10.036 -10.034 -10.034
-10.032 -10.032 -10.020 -10.018 -10.016 -10.013  -1.017  -1.007
 -1.001  -0.996  -0.972  -0.966  -0.940  -0.930  -0.927  -0.922
 -0.760  -0.759  -0.724  -0.719  -0.708  -0.704  -0.689  -0.655
 -0.646  -0.610  -0.592  -0.572  -0.544  -0.539  -0.536  -0.531
 -0.510  -0.502  -0.482  -0.469  -0.458  -0.454  -0.449  -0.437
 -0.431  -0.430  -0.423  -0.411  -0.406  -0.405  -0.402  -0.393
 -0.393  -0.375  -0.365  -0.362  -0.356  -0.353  -0.347  -0.343
 -0.338  -0.338  -0.334  -0.328  -0.325  -0.321  -0.318  -0.310
 -0.308  -0.302  -0.299  -0.293  -0.289  -0.279  -0.276  -0.273
 -0.266  -0.252  -0.247  -0.241  -0.238  -0.232  -0.223  -0.184
 -0.168  -0.165  -0.159  -0.159  -0.151  -0.146  -0.145  -0.142
 -0.142

          Ground-State Mulliken Net Atomic Charges

     Atom                 Charge (a.u.)
  ----------------------------------------
      1 O                    -0.217544
      2 C                     0.217198
      3 C                    -0.079609
      4 C                    -0.081336
      5 C                     0.215453
      6 O                    -0.176333
      7 C                    -0.052313
      8 C                    -0.055072
      9 O                    -0.168131
     10 C                     0.224549
     11 C                    -0.078187
     12 C                    -0.081521
     13 C                     0.214617
     14 O                    -0.219049
     15 O                    -0.164243
     16 O                    -0.175185
     17 O                    -0.215634
     18 C                    -0.128419
     19 C                     0.010657
     20 C                    -0.144862
     21 C                    -0.144381
     22 C                     0.024150
     23 O                    -0.197271
     24 H                     0.088363
     25 H                     0.083747
     26 H                     0.113574
     27 H                     0.078300
     28 H                     0.072645
     29 H                     0.075726
     30 H                     0.072213
     31 H                     0.087891
     32 O                    -0.222760
     33 C                    -0.141032
     34 C                     0.018198
     35 C                    -0.143576
     36 C                    -0.144430
     37 C                     0.028096
     38 O                    -0.192290
     39 H                     0.086036
     40 H                     0.083668
     41 H                     0.077261
     42 H                     0.105817
     43 H                     0.076840
     44 H                     0.074500
     45 H                     0.077027
     46 H                     0.073881
     47 H                     0.085768
     48 H                     0.114931
     49 H                     0.093197
     50 H                     0.087418
     51 H                     0.086838
     52 H                     0.091976
     53 H                     0.083010
     54 H                     0.114318
     55 H                     0.101668
     56 H                     0.083649
  ----------------------------------------
  Sum of atomic charges =     0.000000

                    Cartesian Multipole Moments
 -----------------------------------------------------------------
    Charge (ESU x 10^10)
                 0.0000
    Dipole Moment (Debye)
         X       0.8523      Y       1.9544      Z       0.2159
       Tot       2.1431
    Quadrupole Moments (Debye-Ang)
        XX    -152.1252     XY      -7.0813     YY    -154.8272
        XZ       4.2159     YZ      -2.6427     ZZ    -158.2475

 Total job time:  147.70s(wall), 7030.42s(cpu)
        *  Thank you very much for using Q-Chem.  Have a nice day.  *
