 Q-Chem 5.0, Q-Chem, Inc., Pleasanton, CA (2017)
 Q-Chem 5.0.1 for Intel X86 EM64T Linux

User input:
--------------------------------------------------------------
$molecule
0  1
O -3.94934 -3.66094 2.70899
C -3.26408 -4.56952 2.26188
C -3.36658 -6.02376 2.66595
C -2.60956 -7.0475 1.80413
C -1.6912 -6.48643 0.74117
O -2.42273 -5.81556 -0.19704
C -1.68704 -5.54071 -1.3939
C -2.14335 -6.46755 -2.5159
O -1.23223 -7.57084 -2.64033
C -0.16902 -7.36 -3.45536
C -0.35165 -7.96193 -4.8283
C -0.79573 -6.97213 -5.91521
C -0.64747 -5.50349 -5.57195
O -0.64779 -4.5838 -6.37739
O -2.07819 -4.15721 1.73411
O -0.27731 -5.08333 -4.33153
O 0.94094 -7.19025 -2.9713
C -0.02347 -3.77589 -3.95679
C 0.95304 -8.5008 -5.45884
C 0.62048 -9.55345 -6.51541
C 0.0215 -8.6837 -7.59997
C 0.25543 -7.29442 -6.99579
O 1.43393 -7.43837 -6.24189
H -1.05485 -8.82058 -4.72705
H -1.83915 -7.12918 -6.26501
H 1.66403 -8.92524 -4.71684
H 1.59049 -9.96018 -6.882
H -0.02048 -10.39428 -6.17336
H 0.61956 -8.81975 -8.52834
H -1.05611 -8.85846 -7.80957
H 0.28721 -6.52907 -7.80243
O -0.47657 -6.65384 0.70541
C -1.75112 -2.8532 1.4195
C -2.70507 -6.27266 4.03538
C -3.29423 -7.5276 4.67663
C -2.68279 -8.60265 3.80357
C -1.78416 -7.74972 2.90089
O -1.39459 -6.67807 3.72401
H -4.45339 -6.25507 2.73387
H -3.29844 -7.75449 1.29025
H -1.77682 -2.21813 2.33046
H -2.79759 -5.4085 4.72968
H -2.85787 -7.61055 5.69793
H -4.40296 -7.54682 4.74893
H -2.06628 -9.26865 4.44755
H -3.40687 -9.20689 3.21525
H -0.963 -8.3749 2.48655
H -2.45978 -2.45629 0.66151
H -0.7262 -2.82903 0.99593
H 0.26711 -3.7505 -2.88739
H -0.93429 -3.15535 -4.09552
H 0.8133 -3.36012 -4.5576
H -3.17484 -6.83106 -2.32109
H -2.2459 -5.93092 -3.47584
H -0.58123 -5.44974 -1.31162
H -2.0194 -4.51928 -1.67697
$end

$opt
CONSTRAINT
tors           1           2           3           4    +168.664
tors           3           4           5           6     -64.894
tors           4           5           6           7    -165.490
tors           5           6           7           8    +105.561
tors           6           7           8           9     -98.702
tors           7           8           9          10     -87.743
tors           8           9          10          11     -99.742
tors           9          10          11          12     +99.277
tors          11          12          13          14    +162.283
ENDCONSTRAINT
$end

$rem
JOBTYPE                   OPT
METHOD                    B3LYP
DFT_D                     d3_op
BASIS                     STO-3G
GEOM_OPT_MAX_CYCLES       100
GEOM_OPT_TOL_GRADIENT     300
GEOM_OPT_TOL_DISPLACEMENT 1200
GEOM_OPT_TOL_ENERGY       100
SYMMETRY                  False
THRESH                    12
SCF_CONVERGENCE           8
MAX_SUB_FILE_NUM          128
MEM_STATIC                400
MEM_TOTAL                 4000
$end
--------------------------------------------------------------

   15   -1510.1051581455      6.22E-09 Convergence criterion met
 Total energy in the final basis set = -1510.10515815
   13   -1510.1815714628      9.00E-09 Convergence criterion met
 Total energy in the final basis set = -1510.18157146
   14   -1510.2233717130      4.80E-09 Convergence criterion met
 Total energy in the final basis set = -1510.22337171
   14   -1510.2429428788      6.54E-09 Convergence criterion met
 Total energy in the final basis set = -1510.24294288
   14   -1510.2490017419      5.28E-09 Convergence criterion met
 Total energy in the final basis set = -1510.24900174
   14   -1510.2528684680      3.11E-09 Convergence criterion met
 Total energy in the final basis set = -1510.25286847
   13   -1510.2547096381      2.70E-09 Convergence criterion met
 Total energy in the final basis set = -1510.25470964
   13   -1510.2562025464      7.17E-09 Convergence criterion met
   11   -1510.2575653327      7.06E-09 Convergence criterion met
 Total energy in the final basis set = -1510.25756533
   11   -1510.2575964299      3.18E-09 Convergence criterion met
 Total energy in the final basis set = -1510.25759643
   11   -1510.2576178339      4.13E-09 Convergence criterion met
 Total energy in the final basis set = -1510.25761783
   11   -1510.2576280703      2.85E-09 Convergence criterion met
 Total energy in the final basis set = -1510.25762807
    9   -1510.2576325597      8.80E-09 Convergence criterion met
 Total energy in the final basis set = -1510.25763256
    9   -1510.2576341967      4.58E-09 Convergence criterion met
 Total energy in the final basis set = -1510.25763420

             Standard Nuclear Orientation (Angstroms)
    I     Atom           X                Y                Z
 ----------------------------------------------------------------
    1      O       5.3508404065    -2.5168397252    -0.5598577850
    2      C       4.6526508280    -1.5349503792    -0.2252360782
    3      C       4.7597590204    -0.0795335610    -0.8018539257
    4      C       3.5890280544     0.9194990884    -0.4222958583
    5      C       2.3239795989     0.2823797889     0.2562854838
    6      O       1.7002201152    -0.5985437426    -0.6981834691
    7      C       0.3359465008    -0.9511136023    -0.2493397853
    8      C      -0.7582965423    -0.1841369985    -1.0995289491
    9      O      -1.2653249283     1.0135108079    -0.4053755926
   10      C      -2.3928708987     0.6920649075     0.4688696663
   11      C      -3.7749890019     1.0503718382    -0.2144578989
   12      C      -4.6265644237    -0.0979628582    -0.9089742255
   13      C      -4.2644909478    -1.6007196503    -0.6209535348
   14      O      -5.0142772515    -2.5782042723    -0.8327950335
   15      O       3.7311156019    -1.5565861234     0.8675472205
   16      O      -2.9474732069    -1.7270157590    -0.0834137891
   17      O      -2.2361966604     0.3958769537     1.6706228700
   18      C      -2.6499658425    -3.1409095492     0.2415380894
   19      C      -4.8383830198     1.6186401795     0.8290428870
   20      C      -5.8137239161     2.5823098448     0.0491186528
   21      C      -6.6317493142     1.5428781951    -0.8039374839
   22      C      -6.0540906046     0.1756415503    -0.2637775754
   23      O      -5.7019244886     0.4582684565     1.1461877738
   24      H      -3.5407920522     1.8169868982    -0.9749381850
   25      H      -4.6398971967     0.0366348318    -2.0070277970
   26      H      -4.3917286787     2.0305011576     1.7547714275
   27      H      -6.4639027502     3.1208883111     0.7569850338
   28      H      -5.2768511603     3.3187758854    -0.5697986052
   29      H      -7.7126087406     1.6115511188    -0.6037070304
   30      H      -6.4657980007     1.6578378615    -1.8871346766
   31      H      -6.7381971199    -0.6928320863    -0.3330733778
   32      O       1.8364770834     0.5799240796     1.3674362511
   33      C       3.6240276263    -2.9165711386     1.4385264538
   34      C       5.9869533293     0.6479207022    -0.0900612709
   35      C       6.3163461785     1.9862489413    -0.8645555478
   36      C       5.1657179719     2.9307347068    -0.3525963674
   37      C       4.3390074241     1.9303969474     0.5434021591
   38      O       5.3901000426     1.1052952073     1.1841789654
   39      H       4.9053618218    -0.1521173203    -1.8942256235
   40      H       3.2368355527     1.4367483112    -1.3336778410
   41      H       4.6111398918    -3.2933966056     1.7753071507
   42      H       6.8564346266    -0.0117834208     0.0988813221
   43      H       7.3109462978     2.3628439169    -0.5776014947
   44      H       6.2942661722     1.8441997372    -1.9569271351
   45      H       5.5642814886     3.7559196442     0.2589609129
   46      H       4.5637919065     3.3550765855    -1.1717284347
   47      H       3.6816345532     2.3851419725     1.3097835992
   48      H       3.2031564905    -3.6328410868     0.7032369455
   49      H       2.9419688546    -2.8286608604     2.3041750821
   50      H      -1.6693654587    -3.1340194296     0.7512666242
   51      H      -2.5915776802    -3.7633448428    -0.6749475017
   52      H      -3.4192741673    -3.5696118942     0.9143461392
   53      H      -0.2942822426     0.1711672481    -2.0443744887
   54      H      -1.5859030369    -0.8894644913    -1.3255214034
   55      H       0.2227589512    -0.6952494881     0.8271576156
   56      H       0.2211443789    -2.0457464618    -0.3908179151
 ----------------------------------------------------------------

    9   -1510.2576350812      6.04E-09 Convergence criterion met
 Total energy in the final basis set = -1510.25763508
 Final energy is   -1510.25763508122
 **  OPTIMIZATION CONVERGED  **

                    Orbital Energies (a.u.)
 --------------------------------------------------------------

 Alpha MOs
 -- Occupied --
-18.954 -18.941 -18.915 -18.896 -18.890 -18.890 -18.887 -18.885
-18.873 -18.864 -10.112 -10.105 -10.100 -10.093 -10.077 -10.066
-10.063 -10.061 -10.060 -10.059 -10.055 -10.054 -10.047 -10.037
-10.036 -10.032 -10.023 -10.021 -10.019 -10.017  -1.027  -1.014
 -1.000  -0.996  -0.973  -0.968  -0.950  -0.936  -0.932  -0.923
 -0.765  -0.760  -0.726  -0.722  -0.708  -0.703  -0.690  -0.674
 -0.662  -0.612  -0.601  -0.580  -0.548  -0.542  -0.540  -0.534
 -0.515  -0.508  -0.492  -0.481  -0.461  -0.458  -0.451  -0.441
 -0.433  -0.429  -0.427  -0.419  -0.415  -0.412  -0.410  -0.403
 -0.392  -0.388  -0.376  -0.372  -0.360  -0.358  -0.356  -0.348
 -0.340  -0.339  -0.334  -0.332  -0.329  -0.327  -0.319  -0.315
 -0.310  -0.307  -0.303  -0.302  -0.297  -0.295  -0.291  -0.279
 -0.268  -0.265  -0.246  -0.238  -0.236  -0.232  -0.227  -0.192
 -0.179  -0.173  -0.167  -0.154  -0.151  -0.148  -0.145  -0.142
 -0.139

          Ground-State Mulliken Net Atomic Charges

     Atom                 Charge (a.u.)
  ----------------------------------------
      1 O                    -0.215455
      2 C                     0.212819
      3 C                    -0.077548
      4 C                    -0.079490
      5 C                     0.222722
      6 O                    -0.184432
      7 C                    -0.059723
      8 C                    -0.053823
      9 O                    -0.203632
     10 C                     0.226908
     11 C                    -0.085981
     12 C                    -0.078949
     13 C                     0.212503
     14 O                    -0.210419
     15 O                    -0.162991
     16 O                    -0.170287
     17 O                    -0.179884
     18 C                    -0.126575
     19 C                     0.024568
     20 C                    -0.143025
     21 C                    -0.144955
     22 C                     0.024857
     23 O                    -0.189722
     24 H                     0.084180
     25 H                     0.085556
     26 H                     0.088271
     27 H                     0.079008
     28 H                     0.074233
     29 H                     0.079326
     30 H                     0.073407
     31 H                     0.089137
     32 O                    -0.214067
     33 C                    -0.125380
     34 C                     0.025022
     35 C                    -0.144417
     36 C                    -0.143367
     37 C                     0.024365
     38 O                    -0.189443
     39 H                     0.085779
     40 H                     0.082849
     41 H                     0.093022
     42 H                     0.083624
     43 H                     0.078063
     44 H                     0.073375
     45 H                     0.077940
     46 H                     0.072988
     47 H                     0.092021
     48 H                     0.087588
     49 H                     0.094858
     50 H                     0.095194
     51 H                     0.089925
     52 H                     0.098048
     53 H                     0.083616
     54 H                     0.088194
     55 H                     0.105688
     56 H                     0.073910
  ----------------------------------------
  Sum of atomic charges =    -0.000000

                    Cartesian Multipole Moments
 -----------------------------------------------------------------
    Charge (ESU x 10^10)
                -0.0000
    Dipole Moment (Debye)
         X      -0.9029      Y       0.4077      Z      -3.3352
       Tot       3.4792
    Quadrupole Moments (Debye-Ang)
        XX    -162.2158     XY      -1.3673     YY    -152.2985
        XZ       3.0722     YZ      -7.9876     ZZ    -163.6862

 Total job time:  55.87s(wall), 2656.21s(cpu)
        *  Thank you very much for using Q-Chem.  Have a nice day.  *
