 Q-Chem 5.0, Q-Chem, Inc., Pleasanton, CA (2017)
 Q-Chem 5.0.1 for Intel X86 EM64T Linux

User input:
--------------------------------------------------------------
$molecule
0  1
O 5.3508404065 -2.5168397252 -0.559857785
C 4.652650828 -1.5349503792 -0.2252360782
C 4.7597590204 -0.079533561 -0.8018539257
C 3.5890280544 0.9194990884 -0.4222958583
C 2.3239795989 0.2823797889 0.2562854838
O 1.7002201152 -0.5985437426 -0.6981834691
C 0.3359465008 -0.9511136023 -0.2493397853
C -0.7582965423 -0.1841369985 -1.0995289491
O -1.2653249283 1.0135108079 -0.4053755926
C -2.3928708987 0.6920649075 0.4688696663
C -3.7749890019 1.0503718382 -0.2144578989
C -4.6265644237 -0.0979628582 -0.9089742255
C -4.2644909478 -1.6007196503 -0.6209535348
O -5.0142772515 -2.5782042723 -0.8327950335
O 3.7311156019 -1.5565861234 0.8675472205
O -2.9474732069 -1.727015759 -0.0834137891
O -2.2361966604 0.3958769537 1.67062287
C -2.6499658425 -3.1409095492 0.2415380894
C -4.8383830198 1.6186401795 0.829042887
C -5.8137239161 2.5823098448 0.0491186528
C -6.6317493142 1.5428781951 -0.8039374839
C -6.0540906046 0.1756415503 -0.2637775754
O -5.7019244886 0.4582684565 1.1461877738
H -3.5407920522 1.8169868982 -0.974938185
H -4.6398971967 0.0366348318 -2.007027797
H -4.3917286787 2.0305011576 1.7547714275
H -6.4639027502 3.1208883111 0.7569850338
H -5.2768511603 3.3187758854 -0.5697986052
H -7.7126087406 1.6115511188 -0.6037070304
H -6.4657980007 1.6578378615 -1.8871346766
H -6.7381971199 -0.6928320863 -0.3330733778
O 1.8364770834 0.5799240796 1.3674362511
C 3.6240276263 -2.9165711386 1.4385264538
C 5.9869533293 0.6479207022 -0.0900612709
C 6.3163461785 1.9862489413 -0.8645555478
C 5.1657179719 2.9307347068 -0.3525963674
C 4.3390074241 1.9303969474 0.5434021591
O 5.3901000426 1.1052952073 1.1841789654
H 4.9053618218 -0.1521173203 -1.8942256235
H 3.2368355527 1.4367483112 -1.333677841
H 4.6111398918 -3.2933966056 1.7753071507
H 6.8564346266 -0.0117834208 0.0988813221
H 7.3109462978 2.3628439169 -0.5776014947
H 6.2942661722 1.8441997372 -1.9569271351
H 5.5642814886 3.7559196442 0.2589609129
H 4.5637919065 3.3550765855 -1.1717284347
H 3.6816345532 2.3851419725 1.3097835992
H 3.2031564905 -3.6328410868 0.7032369455
H 2.9419688546 -2.8286608604 2.3041750821
H -1.6693654587 -3.1340194296 0.7512666242
H -2.5915776802 -3.7633448428 -0.6749475017
H -3.4192741673 -3.5696118942 0.9143461392
H -0.2942822426 0.1711672481 -2.0443744887
H -1.5859030369 -0.8894644913 -1.3255214034
H 0.2227589512 -0.6952494881 0.8271576156
H 0.2211443789 -2.0457464618 -0.3908179151
$end

$rem
JOBTYPE                   OPT
METHOD                    B3LYP
DFT_D                     d3_op
BASIS                     STO-3G
GEOM_OPT_MAX_CYCLES       100
GEOM_OPT_TOL_GRADIENT     300
GEOM_OPT_TOL_DISPLACEMENT 1200
GEOM_OPT_TOL_ENERGY       100
SYMMETRY                  False
THRESH                    12
SCF_CONVERGENCE           8
MAX_SUB_FILE_NUM          128
MEM_STATIC                400
MEM_TOTAL                 4000
$end
--------------------------------------------------------------

   16   -1510.2576325806      5.84E-09 Convergence criterion met
 Total energy in the final basis set = -1510.25763258
   14   -1510.2595090464      5.28E-09 Convergence criterion met
 Total energy in the final basis set = -1510.25950905
   15   -1510.2617919209      1.98E-09 Convergence criterion met
 Total energy in the final basis set = -1510.26179192
   14   -1510.2645549292      8.79E-09 Convergence criterion met
 Total energy in the final basis set = -1510.26455493
   14   -1510.2676773973      6.65E-09 Convergence criterion met
 Total energy in the final basis set = -1510.26767740
   14   -1510.2708602848      3.28E-09 Convergence criterion met
 Total energy in the final basis set = -1510.27086028
   14   -1510.2739739815      2.10E-09 Convergence criterion met
 Total energy in the final basis set = -1510.27397398
   15   -1510.2416071837      1.96E-09 Convergence criterion met
   13   -1510.2958233875      2.43E-09 Convergence criterion met
 Total energy in the final basis set = -1510.29582339
   12   -1510.2958698311      6.37E-09 Convergence criterion met
 Total energy in the final basis set = -1510.29586983
   10   -1510.2958859446      8.01E-09 Convergence criterion met
 Total energy in the final basis set = -1510.29588594
   10   -1510.2958836718      7.38E-09 Convergence criterion met
 Total energy in the final basis set = -1510.29588367
   10   -1510.2958780278      5.91E-09 Convergence criterion met
 Total energy in the final basis set = -1510.29587803
   10   -1510.2958769643      3.63E-09 Convergence criterion met
 Total energy in the final basis set = -1510.29587696

             Standard Nuclear Orientation (Angstroms)
    I     Atom           X                Y                Z
 ----------------------------------------------------------------
    1      O       5.1855675161    -1.5157645309     0.2869047656
    2      C       4.3143984326    -0.6814389024     0.6119405736
    3      C       3.9963923114     0.6868422892    -0.0778439581
    4      C       2.4507728145     0.9044614944    -0.3615925880
    5      C       1.5517406427    -0.3028163425     0.0756902543
    6      O       1.9993793193    -1.4795859390    -0.6092641881
    7      C       1.0726609531    -2.6061220845    -0.3418770308
    8      C      -0.0202032479    -2.6742750724    -1.4704395075
    9      O      -0.6384786688    -1.3391836237    -1.6460146695
   10      C      -1.8994417774    -1.2686638590    -0.9626581835
   11      C      -2.4239638916     0.1965456186    -1.0786746767
   12      C      -3.9933793867     0.3397831309    -0.9260507294
   13      C      -4.7314080670    -1.0184454655    -0.6420010278
   14      O      -5.2628820065    -1.3871549427     0.4258818329
   15      O       3.4287369236    -0.8302894213     1.7303521005
   16      O      -4.7773652346    -1.7626828399    -1.8693307029
   17      O      -2.4340859593    -2.2370232802    -0.3783559978
   18      C      -5.3905828616    -3.0870020261    -1.6260378185
   19      C      -1.9172696801     1.0682359789     0.1597436054
   20      C      -2.0878789357     2.5899152269    -0.2230471561
   21      C      -3.6504487111     2.7563106842    -0.1174039942
   22      C      -4.0842971770     1.3036383806     0.3282685215
   23      O      -2.9624187040     0.8483986081     1.1807315276
   24      H      -2.0636242384     0.6155301651    -2.0343813582
   25      H      -4.4312438720     0.7914561340    -1.8345148352
   26      H      -0.9180383783     0.7558674412     0.5445175811
   27      H      -1.5645078058     3.2303695486     0.5049313797
   28      H      -1.7017656834     2.8123190491    -1.2306017487
   29      H      -3.9273331717     3.4950582214     0.6514142782
   30      H      -4.1126891022     3.0511085315    -1.0730246477
   31      H      -5.0412130651     1.2351292113     0.8809575305
   32      O       0.5765588390    -0.2753281940     0.8606039678
   33      C       3.6378658217    -2.1426615598     2.3808357823
   34      C       4.2830246981     1.9142543448     0.8948002798
   35      C       4.2855829592     3.2423861446     0.0380378369
   36      C       2.7452996740     3.4465613843    -0.2156578694
   37      C       2.1489620150     2.1851621320     0.5205421114
   38      O       3.0404065482     2.0125833905     1.6912211831
   39      H       4.5956137043     0.7469248406    -1.0030050261
   40      H       2.2720138378     1.0919607268    -1.4365806146
   41      H       4.6541616503    -2.2243208517     2.8174887259
   42      H       5.1597560929     1.7784746032     1.5573644285
   43      H       4.7120339893     4.0734734280     0.6219422554
   44      H       4.8611993784     3.1349963875    -0.8952626259
   45      H       2.3789442802     4.3739809954     0.2523461248
   46      H       2.4869967202     3.4649046099    -1.2864857593
   47      H       1.0941047532     2.2669931396     0.8468648359
   48      H       3.4931713195    -2.9781763460     1.6660644012
   49      H       2.8827682802    -2.2066204019     3.1857858786
   50      H      -5.4440824827    -3.5874845700    -2.6104330304
   51      H      -6.4099266179    -2.9956256133    -1.1984522408
   52      H      -4.7708658293    -3.6931870680    -0.9335662466
   53      H       0.4447025111    -2.9433120757    -2.4404482228
   54      H      -0.7989233896    -3.4178976160    -1.1933802669
   55      H       0.5842551587    -2.4627659318     0.6452674882
   56      H       1.6785557141    -3.5347188485    -0.3413505979
 ----------------------------------------------------------------

    9   -1510.2958766674      2.15E-09 Convergence criterion met
 Total energy in the final basis set = -1510.29587667
 Final energy is   -1510.29587666744
 **  OPTIMIZATION CONVERGED  **

                    Orbital Energies (a.u.)
 --------------------------------------------------------------

 Alpha MOs
 -- Occupied --
-18.941 -18.937 -18.935 -18.918 -18.891 -18.886 -18.881 -18.878
-18.877 -18.862 -10.111 -10.102 -10.101 -10.087 -10.077 -10.075
-10.066 -10.064 -10.061 -10.053 -10.050 -10.043 -10.041 -10.041
-10.032 -10.029 -10.024 -10.023 -10.014 -10.013  -1.025  -1.014
 -1.009  -0.996  -0.973  -0.961  -0.947  -0.938  -0.938  -0.923
 -0.768  -0.756  -0.731  -0.720  -0.713  -0.706  -0.694  -0.663
 -0.653  -0.621  -0.599  -0.580  -0.550  -0.541  -0.536  -0.530
 -0.516  -0.504  -0.490  -0.475  -0.470  -0.453  -0.450  -0.445
 -0.437  -0.426  -0.424  -0.423  -0.412  -0.411  -0.404  -0.400
 -0.398  -0.381  -0.376  -0.369  -0.364  -0.360  -0.350  -0.349
 -0.346  -0.341  -0.338  -0.336  -0.330  -0.323  -0.316  -0.313
 -0.310  -0.306  -0.299  -0.298  -0.296  -0.290  -0.278  -0.273
 -0.265  -0.256  -0.253  -0.250  -0.243  -0.237  -0.224  -0.193
 -0.179  -0.173  -0.165  -0.163  -0.158  -0.154  -0.147  -0.140
 -0.135

          Ground-State Mulliken Net Atomic Charges

     Atom                 Charge (a.u.)
  ----------------------------------------
      1 O                    -0.211366
      2 C                     0.212036
      3 C                    -0.078832
      4 C                    -0.077916
      5 C                     0.227577
      6 O                    -0.173486
      7 C                    -0.053964
      8 C                    -0.054436
      9 O                    -0.176136
     10 C                     0.216182
     11 C                    -0.080073
     12 C                    -0.080319
     13 C                     0.214526
     14 O                    -0.211571
     15 O                    -0.167250
     16 O                    -0.177185
     17 O                    -0.210320
     18 C                    -0.128854
     19 C                     0.010843
     20 C                    -0.145126
     21 C                    -0.144650
     22 C                     0.025313
     23 O                    -0.188114
     24 H                     0.083713
     25 H                     0.082330
     26 H                     0.104047
     27 H                     0.074839
     28 H                     0.069354
     29 H                     0.076667
     30 H                     0.071029
     31 H                     0.087143
     32 O                    -0.214142
     33 C                    -0.127755
     34 C                     0.026185
     35 C                    -0.143801
     36 C                    -0.144002
     37 C                     0.024834
     38 O                    -0.184734
     39 H                     0.086298
     40 H                     0.086963
     41 H                     0.089440
     42 H                     0.083551
     43 H                     0.078881
     44 H                     0.074281
     45 H                     0.078797
     46 H                     0.073187
     47 H                     0.089768
     48 H                     0.086935
     49 H                     0.094249
     50 H                     0.085475
     51 H                     0.087172
     52 H                     0.091482
     53 H                     0.088685
     54 H                     0.101106
     55 H                     0.101848
     56 H                     0.089296
  ----------------------------------------
  Sum of atomic charges =    -0.000000

                    Cartesian Multipole Moments
 -----------------------------------------------------------------
    Charge (ESU x 10^10)
                -0.0000
    Dipole Moment (Debye)
         X       1.6797      Y       0.7907      Z      -3.0259
       Tot       3.5501
    Quadrupole Moments (Debye-Ang)
        XX    -165.1971     XY       0.7226     YY    -146.1226
        XZ       9.3490     YZ      -2.6806     ZZ    -162.1693

 Total job time:  134.39s(wall), 6411.51s(cpu)
        *  Thank you very much for using Q-Chem.  Have a nice day.  *
