 Q-Chem 5.0, Q-Chem, Inc., Pleasanton, CA (2017)
 Q-Chem 5.0.1 for Intel X86 EM64T Linux

User input:
--------------------------------------------------------------
$molecule
0  1
O -0.9548565333 -1.2425560793 -0.713880154
C -2.1653043058 -1.4379122441 -0.4797168971
C -3.0707185656 -0.6140665237 0.5123228468
C -3.3155242041 0.8708544604 0.007503339
C -2.377558987 1.353879824 -1.1622640273
O -1.8906374137 2.7161397342 -1.0499038074
C -1.0935396306 3.0244472102 0.1428994992
C 0.3840982966 2.4594806254 0.1717366269
O 0.3888797618 1.1646051876 0.8705812513
C 1.5591913777 0.3443143041 0.5843683209
C 2.9950434054 0.8323138096 1.0968229031
C 4.0763789543 -0.2436452187 0.6904893937
C 3.6649981047 -1.7571472081 0.7598878934
O 4.29777648 -2.707705666 0.2477919564
O -2.9308272342 -2.4806489606 -1.09310464
O 2.7007939657 -1.928408431 1.8144396657
O 1.4110669508 -0.7441504561 -0.0062948954
C 2.352512562 -3.3577653691 1.9645691992
C 3.5045289106 2.0018330292 0.1374771542
C 5.0056484418 2.3983974697 0.4546443373
C 5.8039980794 1.2869043952 -0.3236155501
C 4.6181393455 0.3184560433 -0.6940150229
O 3.5778920127 1.2709169169 -1.1533031005
H 2.9853533 1.0817874603 2.1725555522
H 4.9019503741 -0.1743343404 1.4256384305
H 2.8359511993 2.8728918372 0.0492330902
H 5.2244288975 3.4066376709 0.0698089305
H 5.2104440966 2.3845491184 1.5373731959
H 6.2721234606 1.6918676646 -1.2354278876
H 6.5775049102 0.8000507874 0.2912904597
H 4.8265603861 -0.4487210341 -1.4646519024
O -2.2310616979 0.754065996 -2.2481414772
C -2.0875852514 -3.2051649571 -2.0706087219
C -4.557927767 -1.1564254423 0.5154619358
C -5.3984076038 -0.4055356262 1.6250736906
C -5.6955439887 0.9683406201 0.9182466155
C -4.8569113716 0.7999539303 -0.4091902869
O -5.0838875995 -0.6162565993 -0.7631520824
H -2.5968972085 -0.6189991704 1.5106409545
H -3.2063249223 1.5692866994 0.8527614366
H -1.2144675764 -3.685803851 -1.5830615939
H -4.6395332062 -2.259529396 0.5291912221
H -6.3254024428 -0.956835247 1.8484982766
H -4.827807453 -0.2855862644 2.5603079788
H -6.7662788461 1.0748503244 0.6805101987
H -5.3765656905 1.8379233155 1.5146258396
H -5.1472317393 1.4638156347 -1.2466248251
H -1.716558496 -2.5264336651 -2.8653752094
H -2.7373255492 -3.980563376 -2.5164804236
H 1.3658828938 -3.5533014956 1.4972135671
H 2.2976790246 -3.5839007357 3.0464641135
H 3.1239400395 -3.985657472 1.4746678389
H 0.7624022907 2.3774624544 -0.8713089314
H 0.9998338884 3.2126647835 0.7146484105
H -1.5910797045 2.7084202572 1.087717408
H -1.0293225657 4.1328260046 0.1477931165
$end

$rem
JOBTYPE                   OPT
METHOD                    B3LYP
DFT_D                     d3_op
BASIS                     STO-3G
GEOM_OPT_MAX_CYCLES       100
GEOM_OPT_TOL_GRADIENT     300
GEOM_OPT_TOL_DISPLACEMENT 1200
GEOM_OPT_TOL_ENERGY       100
SYMMETRY                  False
THRESH                    12
SCF_CONVERGENCE           8
MAX_SUB_FILE_NUM          128
MEM_STATIC                400
MEM_TOTAL                 4000
$end
--------------------------------------------------------------

   16   -1510.2245348039      4.93E-09 Convergence criterion met
 Total energy in the final basis set = -1510.22453480
   14   -1510.2293626990      9.01E-09 Convergence criterion met
 Total energy in the final basis set = -1510.22936270
   14   -1510.2344193964      8.75E-09 Convergence criterion met
 Total energy in the final basis set = -1510.23441940
   15   -1510.2401154276      3.96E-09 Convergence criterion met
 Total energy in the final basis set = -1510.24011543
   14   -1510.2454552010      8.79E-09 Convergence criterion met
 Total energy in the final basis set = -1510.24545520
   14   -1510.2494972939      3.00E-09 Convergence criterion met
 Total energy in the final basis set = -1510.24949729
   14   -1510.2520924468      5.04E-09 Convergence criterion met
 Total energy in the final basis set = -1510.25209245
   14   -1510.2551711350      7.79E-09 Convergence criterion met
   12   -1510.2763120908      4.14E-09 Convergence criterion met
 Total energy in the final basis set = -1510.27631209
   11   -1510.2763250000      6.42E-09 Convergence criterion met
 Total energy in the final basis set = -1510.27632500
   11   -1510.2763303761      4.25E-09 Convergence criterion met
 Total energy in the final basis set = -1510.27633038
   10   -1510.2763350830      5.16E-09 Convergence criterion met
 Total energy in the final basis set = -1510.27633508
   10   -1510.2763359136      8.48E-09 Convergence criterion met
 Total energy in the final basis set = -1510.27633591
    9   -1510.2763417234      7.40E-09 Convergence criterion met
 Total energy in the final basis set = -1510.27634172

             Standard Nuclear Orientation (Angstroms)
    I     Atom           X                Y                Z
 ----------------------------------------------------------------
    1      O       0.3585637006     0.3365319869     2.4956859993
    2      C       1.4322723107    -0.2398962626     2.1841288057
    3      C       1.8870243441    -0.5572475048     0.7167023284
    4      C       2.2767956486     0.7514568385    -0.0934142420
    5      C       2.3085351768     2.0172061950     0.8388707285
    6      O       1.9289376668     3.3135226638     0.3311210324
    7      C       1.2951742045     3.3383715077    -1.0019138777
    8      C      -0.1131358812     2.6182562764    -1.0568875210
    9      O       0.0947667486     1.3519151454    -1.7975006302
   10      C      -0.9044107144     0.3221556313    -1.6208019458
   11      C      -2.1823339880     0.6110712690    -0.7586876268
   12      C      -3.3799339262    -0.3465273488    -1.1693963720
   13      C      -3.0998207889    -1.2620766737    -2.4158073773
   14      O      -3.0752523348    -2.5109846708    -2.4453436392
   15      O       2.3634037492    -0.7422366164     3.1320848808
   16      O      -3.0135677053    -0.4145856739    -3.5735036241
   17      O      -0.6553830105    -0.7740851307    -2.1702688770
   18      C      -2.7069669971    -1.2207005424    -4.7762683078
   19      C      -1.9573414314     0.1577923861     0.7605048901
   20      C      -3.1787769943     0.6922802683     1.6094091773
   21      C      -4.3130179296    -0.3231403017     1.2133943000
   22      C      -3.5587552149    -1.2077434244     0.1483461943
   23      O      -2.1840412504    -1.3014583564     0.6902036668
   24      H      -2.4788333126     1.6697927008    -0.8392549721
   25      H      -4.2820496049     0.2540059207    -1.3870872721
   26      H      -0.9588797164     0.3618773933     1.2306362556
   27      H      -2.9420150255     0.6390737702     2.6838123842
   28      H      -3.4351794757     1.7342026473     1.3586739838
   29      H      -4.6233585499    -0.9373589750     2.0735997975
   30      H      -5.2028799457     0.1708772814     0.7915314606
   31      H      -3.9744287923    -2.2181742844    -0.0320155980
   32      O       2.6768799457     1.9849462852     2.0357937909
   33      C       1.9375024687    -0.3705414909     4.5019285139
   34      C       3.2178339590    -1.4084332933     0.5884073572
   35      C       3.2640366461    -2.0044905965    -0.8738424869
   36      C       3.6101130909    -0.7196750120    -1.7130236921
   37      C       3.7417177922     0.3666896638    -0.5722396830
   38      O       4.2916343848    -0.3864952178     0.5764254643
   39      H       1.0397729436    -1.0663322132     0.2194159099
   40      H       1.5787453794     0.8911903702    -0.9416946076
   41      H       0.9313101116    -0.7728768071     4.7382439380
   42      H       3.3807294101    -2.1330041223     1.4085026156
   43      H       4.0564247600    -2.7655547363    -0.9542911816
   44      H       2.3042251854    -2.4575043090    -1.1693996886
   45      H       4.5642998081    -0.8317601054    -2.2521259596
   46      H       2.8199722074    -0.4634703843    -2.4369882495
   47      H       4.3912143265     1.2296453785    -0.8171801911
   48      H       1.9212450352     0.7312683824     4.6259742197
   49      H       2.6875682991    -0.8121910778     5.1830984811
   50      H      -1.6662606114    -1.0192079361    -5.1010789026
   51      H      -3.4063160485    -0.9267101817    -5.5826107172
   52      H      -2.8188722954    -2.2983576800    -4.5406699803
   53      H      -0.4769880020     2.4473593809    -0.0218294786
   54      H      -0.8476915469     3.2569850489    -1.5937703897
   55      H       1.9465333418     2.9086615150    -1.7946185863
   56      H       1.1591690068     4.4182300000    -1.2148973728
 ----------------------------------------------------------------

    9   -1510.2763415670      2.61E-09 Convergence criterion met
 Total energy in the final basis set = -1510.27634157
 Final energy is   -1510.27634156696
 **  OPTIMIZATION CONVERGED  **

                    Orbital Energies (a.u.)
 --------------------------------------------------------------

 Alpha MOs
 -- Occupied --
-18.957 -18.940 -18.937 -18.922 -18.897 -18.883 -18.883 -18.878
-18.871 -18.869 -10.118 -10.103 -10.101 -10.096 -10.096 -10.091
-10.061 -10.057 -10.055 -10.053 -10.052 -10.046 -10.045 -10.037
-10.032 -10.022 -10.017 -10.016 -10.015 -10.013  -1.028  -1.015
 -1.007  -1.002  -0.967  -0.965  -0.957  -0.941  -0.935  -0.929
 -0.763  -0.758  -0.726  -0.721  -0.716  -0.703  -0.702  -0.658
 -0.655  -0.618  -0.604  -0.594  -0.546  -0.543  -0.537  -0.533
 -0.522  -0.509  -0.495  -0.481  -0.469  -0.462  -0.456  -0.454
 -0.437  -0.429  -0.427  -0.418  -0.412  -0.409  -0.409  -0.405
 -0.394  -0.392  -0.389  -0.374  -0.367  -0.362  -0.356  -0.351
 -0.346  -0.335  -0.331  -0.328  -0.327  -0.321  -0.315  -0.312
 -0.307  -0.303  -0.302  -0.301  -0.295  -0.285  -0.284  -0.277
 -0.276  -0.258  -0.255  -0.245  -0.243  -0.231  -0.229  -0.192
 -0.180  -0.174  -0.168  -0.165  -0.156  -0.151  -0.148  -0.142
 -0.139

          Ground-State Mulliken Net Atomic Charges

     Atom                 Charge (a.u.)
  ----------------------------------------
      1 O                    -0.228016
      2 C                     0.222049
      3 C                    -0.082133
      4 C                    -0.106647
      5 C                     0.203737
      6 O                    -0.170570
      7 C                    -0.046978
      8 C                    -0.051811
      9 O                    -0.173079
     10 C                     0.216302
     11 C                    -0.086150
     12 C                    -0.079076
     13 C                     0.217045
     14 O                    -0.213904
     15 O                    -0.158423
     16 O                    -0.180282
     17 O                    -0.192412
     18 C                    -0.135567
     19 C                     0.004564
     20 C                    -0.145116
     21 C                    -0.144286
     22 C                     0.024754
     23 O                    -0.192114
     24 H                     0.079237
     25 H                     0.083336
     26 H                     0.106619
     27 H                     0.080629
     28 H                     0.068225
     29 H                     0.077743
     30 H                     0.071353
     31 H                     0.089935
     32 O                    -0.198573
     33 C                    -0.125752
     34 C                     0.025423
     35 C                    -0.143872
     36 C                    -0.144342
     37 C                     0.023527
     38 O                    -0.187370
     39 H                     0.087981
     40 H                     0.104260
     41 H                     0.089530
     42 H                     0.090661
     43 H                     0.076925
     44 H                     0.078908
     45 H                     0.076170
     46 H                     0.077430
     47 H                     0.078978
     48 H                     0.096860
     49 H                     0.092312
     50 H                     0.084703
     51 H                     0.082635
     52 H                     0.101587
     53 H                     0.096549
     54 H                     0.088327
     55 H                     0.092587
     56 H                     0.095592
  ----------------------------------------
  Sum of atomic charges =    -0.000000

                    Cartesian Multipole Moments
 -----------------------------------------------------------------
    Charge (ESU x 10^10)
                -0.0000
    Dipole Moment (Debye)
         X      -2.1572      Y       2.3928      Z      -1.6555
       Tot       3.6221
    Quadrupole Moments (Debye-Ang)
        XX    -161.9406     XY      -8.9877     YY    -161.6020
        XZ      -6.2218     YZ     -10.1503     ZZ    -154.1864

 Total job time:  125.91s(wall), 6007.86s(cpu)
        *  Thank you very much for using Q-Chem.  Have a nice day.  *
