 Q-Chem 5.0, Q-Chem, Inc., Pleasanton, CA (2017)
 Q-Chem 5.0.1 for Intel X86 EM64T Linux

User input:
--------------------------------------------------------------
$molecule
0  1
O -3.94934 -3.66094 2.70899
C -3.26408 -4.56952 2.26188
C -3.36658 -6.02376 2.66595
C -4.64711 -6.77531 2.26688
C -5.60421 -6.04006 1.35503
O -6.89074 -6.26378 1.75529
C -7.14876 -5.82446 3.09308
C -7.23855 -4.30261 3.13845
O -5.95778 -3.7466 3.47514
C -5.78702 -2.43986 3.15511
C -6.66366 -1.51595 3.96663
C -6.48313 -0.02117 3.66445
C -5.74331 0.30945 2.3838
O -5.7087 1.40807 1.84864
O -2.30949 -4.27457 1.33946
O -4.51827 -0.29675 2.29296
O -5.79955 -2.25573 1.93944
C -3.41116 0.14503 1.57795
C -8.23655 -1.52205 3.73488
C -8.93864 -1.00187 4.99217
C -8.60496 0.4668 4.91595
C -7.90872 0.50598 3.55469
O -8.51146 -0.50408 2.80767
H -6.47661 -1.75508 5.03771
H -5.90948 0.48702 4.47146
H -8.76464 -2.44058 3.4755
H -10.03522 -1.11121 4.82216
H -8.67398 -1.50922 5.94459
H -9.55411 1.04743 4.90041
H -7.93879 0.84487 5.7218
H -7.95762 1.52897 3.1208
O -5.32185 -5.61096 0.24631
C -2.09317 -3.03643 0.78874
C -2.29451 -6.91002 1.99042
C -2.12146 -8.22434 2.75765
C -3.35595 -8.96886 2.30947
C -4.01206 -7.91015 1.42106
O -2.91122 -7.30161 0.79329
H -3.20734 -6.03173 3.76696
H -5.10822 -7.31438 3.11167
H -1.83709 -2.30831 1.58651
H -1.30448 -6.41282 1.89828
H -1.2265 -8.76572 2.37681
H -2.02891 -8.07287 3.85483
H -3.03935 -9.81212 1.65462
H -4.00193 -9.36001 3.12466
H -4.74423 -8.40246 0.74184
H -2.99846 -2.72221 0.22911
H -1.24382 -3.09903 0.07823
H -3.19997 -0.55625 0.7549
H -2.53647 0.19741 2.2581
H -3.5437 1.14484 1.11509
H -7.70502 -3.90569 2.20726
H -7.86052 -4.15673 4.04609
H -6.57478 -6.23657 3.94309
H -8.18411 -6.1855 3.28099
$end

$opt
CONSTRAINT
tors           1           2           3           4     +67.886
tors           3           4           5           6    -139.177
tors           4           5           6           7     +59.891
tors           5           6           7           8     +74.211
tors           6           7           8           9     -93.880
tors           7           8           9          10    +160.580
tors           8           9          10          11     +67.191
tors           9          10          11          12    +178.621
tors          11          12          13          14    +165.978
ENDCONSTRAINT
$end

$rem
JOBTYPE                   OPT
METHOD                    B3LYP
DFT_D                     d3_op
BASIS                     STO-3G
GEOM_OPT_MAX_CYCLES       100
GEOM_OPT_TOL_GRADIENT     300
GEOM_OPT_TOL_DISPLACEMENT 1200
GEOM_OPT_TOL_ENERGY       100
SYMMETRY                  False
THRESH                    12
SCF_CONVERGENCE           8
MAX_SUB_FILE_NUM          128
MEM_STATIC                400
MEM_TOTAL                 4000
$end
--------------------------------------------------------------

   16   -1509.9958473787      3.81E-09 Convergence criterion met
 Total energy in the final basis set = -1509.99584738
   15   -1510.0677010299      4.79E-09 Convergence criterion met
 Total energy in the final basis set = -1510.06770103
   14   -1510.1284065395      4.86E-09 Convergence criterion met
 Total energy in the final basis set = -1510.12840654
   14   -1510.1613421272      5.77E-09 Convergence criterion met
 Total energy in the final basis set = -1510.16134213
   14   -1510.1799683588      4.53E-09 Convergence criterion met
 Total energy in the final basis set = -1510.17996836
   14   -1510.1914968963      6.07E-09 Convergence criterion met
 Total energy in the final basis set = -1510.19149690
   14   -1510.1990608944      7.34E-09 Convergence criterion met
 Total energy in the final basis set = -1510.19906089
   13   -1510.2045347416      5.80E-09 Convergence criterion met
   10   -1510.2244778492      8.71E-09 Convergence criterion met
 Total energy in the final basis set = -1510.22447785
   10   -1510.2244818439      9.70E-09 Convergence criterion met
 Total energy in the final basis set = -1510.22448184
   10   -1510.2244853529      9.46E-09 Convergence criterion met
 Total energy in the final basis set = -1510.22448535
   10   -1510.2244823157      9.77E-09 Convergence criterion met
 Total energy in the final basis set = -1510.22448232
    9   -1510.2244877545      7.83E-09 Convergence criterion met
 Total energy in the final basis set = -1510.22448775
    9   -1510.2244889304      7.59E-09 Convergence criterion met
 Total energy in the final basis set = -1510.22448893

             Standard Nuclear Orientation (Angstroms)
    I     Atom           X                Y                Z
 ----------------------------------------------------------------
    1      O      -0.9548565333    -1.2425560793    -0.7138801540
    2      C      -2.1653043058    -1.4379122441    -0.4797168971
    3      C      -3.0707185656    -0.6140665237     0.5123228468
    4      C      -3.3155242041     0.8708544604     0.0075033390
    5      C      -2.3775589870     1.3538798240    -1.1622640273
    6      O      -1.8906374137     2.7161397342    -1.0499038074
    7      C      -1.0935396306     3.0244472102     0.1428994992
    8      C       0.3840982966     2.4594806254     0.1717366269
    9      O       0.3888797618     1.1646051876     0.8705812513
   10      C       1.5591913777     0.3443143041     0.5843683209
   11      C       2.9950434054     0.8323138096     1.0968229031
   12      C       4.0763789543    -0.2436452187     0.6904893937
   13      C       3.6649981047    -1.7571472081     0.7598878934
   14      O       4.2977764800    -2.7077056660     0.2477919564
   15      O      -2.9308272342    -2.4806489606    -1.0931046400
   16      O       2.7007939657    -1.9284084310     1.8144396657
   17      O       1.4110669508    -0.7441504561    -0.0062948954
   18      C       2.3525125620    -3.3577653691     1.9645691992
   19      C       3.5045289106     2.0018330292     0.1374771542
   20      C       5.0056484418     2.3983974697     0.4546443373
   21      C       5.8039980794     1.2869043952    -0.3236155501
   22      C       4.6181393455     0.3184560433    -0.6940150229
   23      O       3.5778920127     1.2709169169    -1.1533031005
   24      H       2.9853533000     1.0817874603     2.1725555522
   25      H       4.9019503741    -0.1743343404     1.4256384305
   26      H       2.8359511993     2.8728918372     0.0492330902
   27      H       5.2244288975     3.4066376709     0.0698089305
   28      H       5.2104440966     2.3845491184     1.5373731959
   29      H       6.2721234606     1.6918676646    -1.2354278876
   30      H       6.5775049102     0.8000507874     0.2912904597
   31      H       4.8265603861    -0.4487210341    -1.4646519024
   32      O      -2.2310616979     0.7540659960    -2.2481414772
   33      C      -2.0875852514    -3.2051649571    -2.0706087219
   34      C      -4.5579277670    -1.1564254423     0.5154619358
   35      C      -5.3984076038    -0.4055356262     1.6250736906
   36      C      -5.6955439887     0.9683406201     0.9182466155
   37      C      -4.8569113716     0.7999539303    -0.4091902869
   38      O      -5.0838875995    -0.6162565993    -0.7631520824
   39      H      -2.5968972085    -0.6189991704     1.5106409545
   40      H      -3.2063249223     1.5692866994     0.8527614366
   41      H      -1.2144675764    -3.6858038510    -1.5830615939
   42      H      -4.6395332062    -2.2595293960     0.5291912221
   43      H      -6.3254024428    -0.9568352470     1.8484982766
   44      H      -4.8278074530    -0.2855862644     2.5603079788
   45      H      -6.7662788461     1.0748503244     0.6805101987
   46      H      -5.3765656905     1.8379233155     1.5146258396
   47      H      -5.1472317393     1.4638156347    -1.2466248251
   48      H      -1.7165584960    -2.5264336651    -2.8653752094
   49      H      -2.7373255492    -3.9805633760    -2.5164804236
   50      H       1.3658828938    -3.5533014956     1.4972135671
   51      H       2.2976790246    -3.5839007357     3.0464641135
   52      H       3.1239400395    -3.9856574720     1.4746678389
   53      H       0.7624022907     2.3774624544    -0.8713089314
   54      H       0.9998338884     3.2126647835     0.7146484105
   55      H      -1.5910797045     2.7084202572     1.0877174080
   56      H      -1.0293225657     4.1328260046     0.1477931165
 ----------------------------------------------------------------

   10   -1510.2244883141      7.26E-09 Convergence criterion met
 Total energy in the final basis set = -1510.22448831
 Final energy is   -1510.22448831407
 **  OPTIMIZATION CONVERGED  **

                    Orbital Energies (a.u.)
 --------------------------------------------------------------

 Alpha MOs
 -- Occupied --
-18.921 -18.920 -18.914 -18.905 -18.900 -18.888 -18.887 -18.885
-18.865 -18.861 -10.103 -10.100 -10.095 -10.084 -10.078 -10.075
-10.063 -10.060 -10.059 -10.054 -10.051 -10.050 -10.039 -10.035
-10.033 -10.032 -10.024 -10.021 -10.019 -10.018  -1.007  -1.002
 -0.996  -0.996  -0.972  -0.966  -0.941  -0.932  -0.925  -0.921
 -0.764  -0.758  -0.723  -0.719  -0.710  -0.704  -0.700  -0.653
 -0.649  -0.606  -0.596  -0.589  -0.546  -0.544  -0.539  -0.535
 -0.515  -0.507  -0.486  -0.472  -0.459  -0.458  -0.452  -0.441
 -0.434  -0.432  -0.425  -0.409  -0.407  -0.403  -0.400  -0.397
 -0.392  -0.385  -0.373  -0.367  -0.363  -0.357  -0.349  -0.346
 -0.340  -0.333  -0.329  -0.328  -0.326  -0.323  -0.316  -0.312
 -0.307  -0.305  -0.303  -0.296  -0.293  -0.286  -0.280  -0.274
 -0.270  -0.244  -0.241  -0.238  -0.233  -0.231  -0.229  -0.175
 -0.167  -0.163  -0.155  -0.150  -0.149  -0.147  -0.146  -0.140
 -0.132

          Ground-State Mulliken Net Atomic Charges

     Atom                 Charge (a.u.)
  ----------------------------------------
      1 O                    -0.202169
      2 C                     0.208573
      3 C                    -0.077375
      4 C                    -0.083466
      5 C                     0.217799
      6 O                    -0.187461
      7 C                    -0.041568
      8 C                    -0.046973
      9 O                    -0.195826
     10 C                     0.226861
     11 C                    -0.079281
     12 C                    -0.078818
     13 C                     0.217687
     14 O                    -0.219516
     15 O                    -0.168810
     16 O                    -0.174740
     17 O                    -0.159619
     18 C                    -0.134684
     19 C                     0.018141
     20 C                    -0.146191
     21 C                    -0.140411
     22 C                     0.024497
     23 O                    -0.192599
     24 H                     0.085350
     25 H                     0.082323
     26 H                     0.078958
     27 H                     0.077582
     28 H                     0.072968
     29 H                     0.078536
     30 H                     0.074821
     31 H                     0.092064
     32 O                    -0.182034
     33 C                    -0.127043
     34 C                     0.025142
     35 C                    -0.145950
     36 C                    -0.142321
     37 C                     0.025512
     38 O                    -0.184949
     39 H                     0.084542
     40 H                     0.075093
     41 H                     0.086709
     42 H                     0.090813
     43 H                     0.077371
     44 H                     0.071906
     45 H                     0.077920
     46 H                     0.071561
     47 H                     0.084257
     48 H                     0.094720
     49 H                     0.087922
     50 H                     0.086378
     51 H                     0.082916
     52 H                     0.099398
     53 H                     0.093237
     54 H                     0.072055
     55 H                     0.080134
     56 H                     0.088055
  ----------------------------------------
  Sum of atomic charges =     0.000000

                    Cartesian Multipole Moments
 -----------------------------------------------------------------
    Charge (ESU x 10^10)
                 0.0000
    Dipole Moment (Debye)
         X       0.6683      Y       2.4374      Z       4.5140
       Tot       5.1734
    Quadrupole Moments (Debye-Ang)
        XX    -153.1187     XY       6.3594     YY    -149.5512
        XZ      -3.2541     YZ       3.0439     ZZ    -161.5936

 Total job time:  93.56s(wall), 4462.62s(cpu)
        *  Thank you very much for using Q-Chem.  Have a nice day.  *
