 Q-Chem 5.0, Q-Chem, Inc., Pleasanton, CA (2017)
 Q-Chem 5.0.1 for Intel X86 EM64T Linux

User input:
--------------------------------------------------------------
$molecule
0  1
O -3.94934 -3.66094 2.70899
C -3.26408 -4.56952 2.26188
C -3.36658 -6.02376 2.66595
C -4.71828 -6.50621 3.21732
C -5.8678 -5.52628 3.13726
O -6.05205 -4.92703 4.35067
C -7.33029 -4.29534 4.47847
C -7.48036 -3.68937 5.87002
O -7.46817 -4.72932 6.86059
C -6.38032 -4.75083 7.67008
C -6.43727 -5.851 8.70306
C -5.20266 -5.95117 9.6108
C -4.27619 -4.7519 9.60092
O -3.95603 -4.09546 10.58131
O -2.20044 -4.24522 1.47935
O -3.44087 -4.68701 8.52437
O -5.48298 -3.9387 7.52637
C -2.4023 -3.78833 8.38805
C -7.5581 -5.67571 9.74351
C -7.92445 -7.03806 10.32755
C -6.68479 -7.33567 11.14695
C -5.91918 -6.01666 10.97734
O -6.93064 -5.04831 10.83427
H -6.59236 -6.7992 8.13924
H -4.58479 -6.85426 9.40976
H -8.46287 -5.17019 9.34106
H -8.77882 -6.87059 11.02223
H -8.20302 -7.82015 9.58885
H -6.99324 -7.48564 12.20539
H -6.08021 -8.20074 10.79795
H -5.22186 -5.87168 11.83153
O -6.4105 -5.1663 2.09852
C -1.90275 -2.9654 1.06009
C -3.26722 -6.95941 1.43229
C -2.81127 -8.35211 1.86807
C -4.06038 -8.85419 2.55931
C -5.01378 -7.68751 2.28324
O -4.59687 -7.19072 1.03728
H -2.4984 -6.24015 3.32782
H -4.61476 -6.82843 4.27901
H -1.71784 -2.30784 1.93626
H -2.58728 -6.58267 0.63768
H -2.65766 -8.95081 0.94144
H -1.88345 -8.38116 2.47885
H -4.40689 -9.77366 2.0371
H -3.95439 -9.05199 3.64802
H -6.07256 -8.02333 2.349
H -2.74002 -2.55782 0.45401
H -0.98775 -2.99154 0.43355
H -1.89989 -3.95893 7.41388
H -1.66063 -3.93192 9.20257
H -2.79206 -2.74827 8.41283
H -6.71235 -2.8933 5.98157
H -8.46042 -3.17107 5.93522
H -8.14551 -5.03853 4.32441
H -7.4322 -3.47881 3.72811
$end

$opt
CONSTRAINT
tors           1           2           3           4     +25.428
tors           3           4           5           6    -100.129
tors           4           5           6           7    -162.811
tors           5           6           7           8    +178.177
tors           6           7           8           9     -64.284
tors           7           8           9          10    +111.629
tors           8           9          10          11    +179.054
tors           9          10          11          12    +177.780
tors          11          12          13          14    +122.758
ENDCONSTRAINT
$end

$rem
JOBTYPE                   OPT
METHOD                    B3LYP
DFT_D                     d3_op
BASIS                     STO-3G
GEOM_OPT_MAX_CYCLES       100
GEOM_OPT_TOL_GRADIENT     300
GEOM_OPT_TOL_DISPLACEMENT 1200
GEOM_OPT_TOL_ENERGY       100
SYMMETRY                  False
THRESH                    12
SCF_CONVERGENCE           8
MAX_SUB_FILE_NUM          128
MEM_STATIC                400
MEM_TOTAL                 4000
$end
--------------------------------------------------------------

   15   -1510.1431784528      6.13E-09 Convergence criterion met
 Total energy in the final basis set = -1510.14317845
   14   -1510.2136752835      7.13E-09 Convergence criterion met
 Total energy in the final basis set = -1510.21367528
   14   -1510.2502397795      7.56E-09 Convergence criterion met
 Total energy in the final basis set = -1510.25023978
   14   -1510.2668555505      7.47E-09 Convergence criterion met
 Total energy in the final basis set = -1510.26685555
   13   -1510.2744905255      7.28E-09 Convergence criterion met
 Total energy in the final basis set = -1510.27449053
   13   -1510.2779172894      3.93E-09 Convergence criterion met
 Total energy in the final basis set = -1510.27791729
   13   -1510.2800713710      3.06E-09 Convergence criterion met
 Total energy in the final basis set = -1510.28007137
   13   -1510.2815642561      4.64E-09 Convergence criterion met
   12   -1510.2849516593      2.23E-09 Convergence criterion met
 Total energy in the final basis set = -1510.28495166
   11   -1510.2850535806      5.28E-09 Convergence criterion met
 Total energy in the final basis set = -1510.28505358
   11   -1510.2851175647      5.25E-09 Convergence criterion met
 Total energy in the final basis set = -1510.28511756
   11   -1510.2851479832      4.87E-09 Convergence criterion met
 Total energy in the final basis set = -1510.28514798
   10   -1510.2851602426      7.23E-09 Convergence criterion met
 Total energy in the final basis set = -1510.28516024
   10   -1510.2851615742      5.42E-09 Convergence criterion met
 Total energy in the final basis set = -1510.28516157

             Standard Nuclear Orientation (Angstroms)
    I     Atom           X                Y                Z
 ----------------------------------------------------------------
    1      O      -3.1041086614     1.4221345509     1.5761936559
    2      C      -3.6268219676     1.4322687142     0.4384192386
    3      C      -3.1687000279     0.5883387951    -0.8017475733
    4      C      -2.4108507583    -0.7352819576    -0.3722051834
    5      C      -2.2498898688    -0.9197918920     1.1846321231
    6      O      -0.9152691967    -0.5181103751     1.5203438678
    7      C      -0.5192117727    -1.0240902240     2.8558240935
    8      C       0.9550356136    -0.5350083380     3.0225855312
    9      O       1.7780740520    -1.2077357676     1.9849386772
   10      C       2.2287755889    -0.2558122592     1.0222193333
   11      C       3.1118002177    -0.9889944833    -0.0428610559
   12      C       3.5986768176     0.0007648956    -1.1733580294
   13      C       2.8136652259     1.3644636117    -1.2178321393
   14      O       3.2803712254     2.5184782279    -1.1243817561
   15      O      -4.7194782252     2.2714421354     0.0663001786
   16      O       1.4571534005     1.0569296090    -1.5899288000
   17      O       1.9978914214     0.9744921414     1.0796379380
   18      C       0.6384151156     2.2871669849    -1.5684276183
   19      C       4.5051384056    -1.3582715585     0.6279711732
   20      C       5.3618669363    -2.2179723419    -0.3856272569
   21      C       5.8898435784    -1.1062111290    -1.3673462054
   22      C       5.1334524305     0.1610485478    -0.8111512997
   23      O       5.1873738802    -0.0437699662     0.6568673021
   24      H       2.5767153196    -1.8722932673    -0.4345207328
   25      H       3.4782128980    -0.4743070170    -2.1644386976
   26      H       4.4172563956    -1.7786361111     1.6488099798
   27      H       6.1870083654    -2.7262554254     0.1380740176
   28      H       4.7482355456    -2.9770241863    -0.8967800929
   29      H       6.9797257878    -0.9737891817    -1.2742818768
   30      H       5.6469761853    -1.3150646431    -2.4213730840
   31      H       5.5617759092     1.1459210844    -1.0811946106
   32      O      -3.0401567872    -1.4755943324     1.9768196925
   33      C      -5.1545286087     3.0842889024     1.2264368414
   34      C      -4.3923373867    -0.0101650664    -1.6147656538
   35      C      -3.8572239640    -0.5462340271    -3.0006117946
   36      C      -3.1353999451    -1.8725656329    -2.5564666990
   37      C      -3.3690492904    -1.8371464256    -0.9947259228
   38      O      -4.7196888543    -1.2426047105    -0.8619152705
   39      H      -2.5319940233     1.2293228819    -1.4396835917
   40      H      -1.4000254474    -0.7681291219    -0.8154540528
   41      H      -4.3462165904     3.7574005277     1.5784698806
   42      H      -5.2692304615     0.6635538999    -1.6663353708
   43      H      -4.6953932155    -0.7511656964    -3.6853527359
   44      H      -3.1730825285     0.1695385212    -3.4839886729
   45      H      -3.6169832714    -2.7604623320    -2.9963565262
   46      H      -2.0654443260    -1.8842052877    -2.8191943960
   47      H      -3.3295276874    -2.8188969580    -0.4844434016
   48      H      -5.4750930492     2.4436326436     2.0730298780
   49      H      -6.0105644462     3.6869318165     0.8713684699
   50      H      -0.3609966205     1.9988057351    -1.9440248129
   51      H       1.0649431923     3.0798028096    -2.2167509356
   52      H       0.5434517243     2.6851185010    -0.5369695264
   53      H       1.0189092992     0.5647411745     2.8766651503
   54      H       1.3547113299    -0.8210793688     4.0178333217
   55      H      -0.5755403402    -2.1340087558     2.8952328106
   56      H      -1.1654028316    -0.6092727604     3.6613197844
 ----------------------------------------------------------------

    9   -1510.2851615670      4.05E-09 Convergence criterion met
 Total energy in the final basis set = -1510.28516157
 Final energy is   -1510.28516156697
 **  OPTIMIZATION CONVERGED  **

                    Orbital Energies (a.u.)
 --------------------------------------------------------------

 Alpha MOs
 -- Occupied --
-18.943 -18.939 -18.920 -18.917 -18.886 -18.885 -18.885 -18.883
-18.862 -18.861 -10.105 -10.105 -10.091 -10.090 -10.072 -10.070
-10.069 -10.061 -10.059 -10.058 -10.056 -10.055 -10.040 -10.040
-10.032 -10.032 -10.021 -10.020 -10.019 -10.019  -1.019  -1.018
 -1.000  -0.996  -0.969  -0.969  -0.943  -0.942  -0.925  -0.924
 -0.763  -0.762  -0.728  -0.722  -0.714  -0.705  -0.696  -0.665
 -0.655  -0.615  -0.597  -0.576  -0.546  -0.543  -0.537  -0.536
 -0.513  -0.509  -0.485  -0.479  -0.464  -0.456  -0.454  -0.451
 -0.432  -0.431  -0.418  -0.416  -0.415  -0.407  -0.403  -0.403
 -0.394  -0.379  -0.375  -0.368  -0.361  -0.355  -0.353  -0.347
 -0.341  -0.340  -0.334  -0.332  -0.329  -0.324  -0.324  -0.312
 -0.311  -0.306  -0.304  -0.301  -0.296  -0.278  -0.276  -0.275
 -0.271  -0.259  -0.251  -0.244  -0.243  -0.234  -0.233  -0.184
 -0.179  -0.167  -0.163  -0.160  -0.159  -0.144  -0.143  -0.142
 -0.141

          Ground-State Mulliken Net Atomic Charges

     Atom                 Charge (a.u.)
  ----------------------------------------
      1 O                    -0.207040
      2 C                     0.214493
      3 C                    -0.077271
      4 C                    -0.081720
      5 C                     0.214054
      6 O                    -0.177475
      7 C                    -0.045306
      8 C                    -0.052361
      9 O                    -0.172181
     10 C                     0.221883
     11 C                    -0.076309
     12 C                    -0.081245
     13 C                     0.217691
     14 O                    -0.216744
     15 O                    -0.168153
     16 O                    -0.180093
     17 O                    -0.205573
     18 C                    -0.127879
     19 C                     0.024343
     20 C                    -0.144533
     21 C                    -0.142807
     22 C                     0.023590
     23 O                    -0.190984
     24 H                     0.087274
     25 H                     0.082250
     26 H                     0.084865
     27 H                     0.078088
     28 H                     0.073209
     29 H                     0.078049
     30 H                     0.073010
     31 H                     0.090914
     32 O                    -0.217513
     33 C                    -0.127695
     34 C                     0.023443
     35 C                    -0.144098
     36 C                    -0.143998
     37 C                     0.025209
     38 O                    -0.188720
     39 H                     0.083313
     40 H                     0.086927
     41 H                     0.090297
     42 H                     0.090213
     43 H                     0.077943
     44 H                     0.072576
     45 H                     0.077688
     46 H                     0.073739
     47 H                     0.085543
     48 H                     0.093637
     49 H                     0.092281
     50 H                     0.079168
     51 H                     0.087280
     52 H                     0.092795
     53 H                     0.108429
     54 H                     0.087103
     55 H                     0.086350
     56 H                     0.092047
  ----------------------------------------
  Sum of atomic charges =    -0.000000

                    Cartesian Multipole Moments
 -----------------------------------------------------------------
    Charge (ESU x 10^10)
                -0.0000
    Dipole Moment (Debye)
         X      -0.1383      Y      -1.0875      Z      -1.7887
       Tot       2.0979
    Quadrupole Moments (Debye-Ang)
        XX    -166.3238     XY     -21.5324     YY    -157.5846
        XZ       0.7778     YZ       2.1892     ZZ    -151.6288

 Total job time:  56.39s(wall), 2686.31s(cpu)
        *  Thank you very much for using Q-Chem.  Have a nice day.  *
