 Q-Chem 5.0, Q-Chem, Inc., Pleasanton, CA (2017)
 Q-Chem 5.0.1 for Intel X86 EM64T Linux

User input:
--------------------------------------------------------------
$molecule
0  1
O -3.1041086614 1.4221345509 1.5761936559
C -3.6268219676 1.4322687142 0.4384192386
C -3.1687000279 0.5883387951 -0.8017475733
C -2.4108507583 -0.7352819576 -0.3722051834
C -2.2498898688 -0.919791892 1.1846321231
O -0.9152691967 -0.5181103751 1.5203438678
C -0.5192117727 -1.024090224 2.8558240935
C 0.9550356136 -0.535008338 3.0225855312
O 1.778074052 -1.2077357676 1.9849386772
C 2.2287755889 -0.2558122592 1.0222193333
C 3.1118002177 -0.9889944833 -0.0428610559
C 3.5986768176 0.0007648956 -1.1733580294
C 2.8136652259 1.3644636117 -1.2178321393
O 3.2803712254 2.5184782279 -1.1243817561
O -4.7194782252 2.2714421354 0.0663001786
O 1.4571534005 1.056929609 -1.5899288
O 1.9978914214 0.9744921414 1.079637938
C 0.6384151156 2.2871669849 -1.5684276183
C 4.5051384056 -1.3582715585 0.6279711732
C 5.3618669363 -2.2179723419 -0.3856272569
C 5.8898435784 -1.106211129 -1.3673462054
C 5.1334524305 0.1610485478 -0.8111512997
O 5.1873738802 -0.0437699662 0.6568673021
H 2.5767153196 -1.8722932673 -0.4345207328
H 3.478212898 -0.474307017 -2.1644386976
H 4.4172563956 -1.7786361111 1.6488099798
H 6.1870083654 -2.7262554254 0.1380740176
H 4.7482355456 -2.9770241863 -0.8967800929
H 6.9797257878 -0.9737891817 -1.2742818768
H 5.6469761853 -1.3150646431 -2.421373084
H 5.5617759092 1.1459210844 -1.0811946106
O -3.0401567872 -1.4755943324 1.9768196925
C -5.1545286087 3.0842889024 1.2264368414
C -4.3923373867 -0.0101650664 -1.6147656538
C -3.857223964 -0.5462340271 -3.0006117946
C -3.1353999451 -1.8725656329 -2.556466699
C -3.3690492904 -1.8371464256 -0.9947259228
O -4.7196888543 -1.2426047105 -0.8619152705
H -2.5319940233 1.2293228819 -1.4396835917
H -1.4000254474 -0.7681291219 -0.8154540528
H -4.3462165904 3.7574005277 1.5784698806
H -5.2692304615 0.6635538999 -1.6663353708
H -4.6953932155 -0.7511656964 -3.6853527359
H -3.1730825285 0.1695385212 -3.4839886729
H -3.6169832714 -2.760462332 -2.9963565262
H -2.065444326 -1.8842052877 -2.819194396
H -3.3295276874 -2.818896958 -0.4844434016
H -5.4750930492 2.4436326436 2.073029878
H -6.0105644462 3.6869318165 0.8713684699
H -0.3609966205 1.9988057351 -1.9440248129
H 1.0649431923 3.0798028096 -2.2167509356
H 0.5434517243 2.685118501 -0.5369695264
H 1.0189092992 0.5647411745 2.8766651503
H 1.3547113299 -0.8210793688 4.0178333217
H -0.5755403402 -2.1340087558 2.8952328106
H -1.1654028316 -0.6092727604 3.6613197844
$end

$rem
JOBTYPE                   OPT
METHOD                    B3LYP
DFT_D                     d3_op
BASIS                     STO-3G
GEOM_OPT_MAX_CYCLES       100
GEOM_OPT_TOL_GRADIENT     300
GEOM_OPT_TOL_DISPLACEMENT 1200
GEOM_OPT_TOL_ENERGY       100
SYMMETRY                  False
THRESH                    12
SCF_CONVERGENCE           8
MAX_SUB_FILE_NUM          128
MEM_STATIC                400
MEM_TOTAL                 4000
$end
--------------------------------------------------------------

   16   -1510.2851324444      5.19E-09 Convergence criterion met
 Total energy in the final basis set = -1510.28513244
   14   -1510.2870404873      4.13E-09 Convergence criterion met
 Total energy in the final basis set = -1510.28704049
   14   -1510.2883652685      4.88E-09 Convergence criterion met
 Total energy in the final basis set = -1510.28836527
   13   -1510.2893149156      3.77E-09 Convergence criterion met
 Total energy in the final basis set = -1510.28931492
   13   -1510.2900913464      2.75E-09 Convergence criterion met
 Total energy in the final basis set = -1510.29009135
   13   -1510.2908981890      7.63E-09 Convergence criterion met
 Total energy in the final basis set = -1510.29089819
   13   -1510.2916697308      7.56E-09 Convergence criterion met
 Total energy in the final basis set = -1510.29166973
   14   -1510.2925957669      1.76E-09 Convergence criterion met
   12   -1510.3028682742      3.27E-09 Convergence criterion met
 Total energy in the final basis set = -1510.30286827
   11   -1510.3029124407      9.71E-09 Convergence criterion met
 Total energy in the final basis set = -1510.30291244
   12   -1510.3028916149      4.64E-09 Convergence criterion met
 Total energy in the final basis set = -1510.30289161
   12   -1510.3029355098      3.47E-09 Convergence criterion met
 Total energy in the final basis set = -1510.30293551
   11   -1510.3029446353      8.32E-09 Convergence criterion met
 Total energy in the final basis set = -1510.30294464
   11   -1510.3029406592      3.28E-09 Convergence criterion met
 Total energy in the final basis set = -1510.30294066

             Standard Nuclear Orientation (Angstroms)
    I     Atom           X                Y                Z
 ----------------------------------------------------------------
    1      O       3.4690992855    -1.7650077529     0.0159132275
    2      C       3.6858719072    -0.6025235322    -0.3955321144
    3      C       2.7459898463     0.6372062506    -0.2391059056
    4      C       1.3012361058     0.2328122090     0.2570171504
    5      C       1.0303637793    -1.3087150014     0.3119938024
    6      O       0.9319841354    -1.7796837786    -1.0506968859
    7      C       0.4678837714    -3.1819055413    -1.0792065654
    8      C      -1.0839523367    -3.2112794620    -1.3496906893
    9      O      -1.7773504134    -2.4812389243    -0.2605711683
   10      C      -1.9022957836    -1.0968070577    -0.5835278858
   11      C      -2.3727600025    -0.3309034308     0.6958302136
   12      C      -2.5489500407     1.2188865883     0.4386374158
   13      C      -2.1591646276     1.6924235704    -1.0102017691
   14      O      -2.9260164428     2.0116730448    -1.9403638595
   15      O       4.8794441317    -0.2025257659    -1.0720859790
   16      O      -0.7268058216     1.9054555158    -1.0488846308
   17      O      -1.6887983432    -0.5991205530    -1.7137683966
   18      C      -0.3109268506     2.3109698227    -2.4092567210
   19      C      -3.8517906202    -0.7410386984     1.1044260194
   20      C      -4.1421939397    -0.1861523455     2.5545831559
   21      C      -4.3493097548     1.3457795019     2.2591447077
   22      C      -4.1053428105     1.3897282485     0.6997396718
   23      O      -4.6834039535     0.1103731595     0.2247216393
   24      H      -1.6522237629    -0.5410460478     1.5071176100
   25      H      -1.9479825536     1.7999109652     1.1601286764
   26      H      -4.0816617110    -1.8132187527     0.9505653661
   27      H      -5.0536405854    -0.6462019512     2.9682199474
   28      H      -3.3048916426    -0.3782290360     3.2442791903
   29      H      -5.3758837543     1.6676849582     2.4961181066
   30      H      -3.6418535787     1.9858242511     2.8102025160
   31      H      -4.5648398889     2.2415679285     0.1619737497
   32      O       0.7859073377    -2.0085750993     1.3176914970
   33      C       5.7992808170    -1.3573987895    -1.1986442675
   34      C       3.2323099140     1.5442817741     0.9757592838
   35      C       2.4250932839     2.9023283102     0.9413190693
   36      C       1.0208790289     2.4411200642     1.4798123220
   37      C       1.2776434785     0.8976800837     1.6937560227
   38      O       2.6859240843     0.8355879035     2.1531153735
   39      H       2.7288418967     1.2021479031    -1.1879132720
   40      H       0.5163767800     0.7015343540    -0.3794096589
   41      H       5.3333091591    -2.1890459636    -1.7656138388
   42      H       4.3321167161     1.6491879872     1.0538176815
   43      H       2.8944137281     3.6453243594     1.6055288299
   44      H       2.3694949787     3.3220756360    -0.0759397247
   45      H       0.7664141994     2.9371269238     2.4295240369
   46      H       0.2189781406     2.6114242010     0.7412027010
   47      H       0.6146910464     0.3895880710     2.4205056173
   48      H       6.1117223007    -1.7403237318    -0.2055485545
   49      H       6.6838066065    -0.9842149028    -1.7467411660
   50      H       0.7653517662     2.5539099461    -2.3423963895
   51      H      -0.8767453934     3.1981340910    -2.7578670785
   52      H      -0.4623671763     1.4834284664    -3.1321896390
   53      H      -1.3114700376    -2.7391748794    -2.3289346313
   54      H      -1.4605986707    -4.2539665211    -1.3287127238
   55      H       0.6861785098    -3.6700858149    -0.1053017491
   56      H       1.0028935505    -3.7008836420    -1.9009372031
 ----------------------------------------------------------------

    9   -1510.3029403275      3.47E-09 Convergence criterion met
 Total energy in the final basis set = -1510.30294033
 Final energy is   -1510.30294032747
 **  OPTIMIZATION CONVERGED  **

                    Orbital Energies (a.u.)
 --------------------------------------------------------------

 Alpha MOs
 -- Occupied --
-18.943 -18.938 -18.937 -18.917 -18.889 -18.889 -18.880 -18.880
-18.875 -18.862 -10.109 -10.102 -10.100 -10.089 -10.074 -10.067
-10.065 -10.065 -10.062 -10.060 -10.056 -10.049 -10.042 -10.038
-10.034 -10.021 -10.020 -10.015 -10.015 -10.008  -1.024  -1.015
 -1.009  -0.996  -0.972  -0.964  -0.947  -0.938  -0.937  -0.925
 -0.766  -0.757  -0.727  -0.719  -0.713  -0.703  -0.694  -0.663
 -0.663  -0.617  -0.597  -0.576  -0.548  -0.541  -0.538  -0.531
 -0.514  -0.506  -0.489  -0.472  -0.469  -0.459  -0.452  -0.446
 -0.433  -0.427  -0.425  -0.417  -0.414  -0.413  -0.410  -0.402
 -0.398  -0.379  -0.374  -0.368  -0.359  -0.358  -0.352  -0.350
 -0.343  -0.340  -0.337  -0.334  -0.328  -0.327  -0.319  -0.314
 -0.309  -0.306  -0.302  -0.299  -0.295  -0.285  -0.280  -0.274
 -0.269  -0.255  -0.253  -0.249  -0.237  -0.236  -0.226  -0.194
 -0.181  -0.179  -0.165  -0.157  -0.154  -0.152  -0.146  -0.143
 -0.138

          Ground-State Mulliken Net Atomic Charges

     Atom                 Charge (a.u.)
  ----------------------------------------
      1 O                    -0.207481
      2 C                     0.214352
      3 C                    -0.077817
      4 C                    -0.098542
      5 C                     0.211603
      6 O                    -0.181064
      7 C                    -0.053599
      8 C                    -0.051955
      9 O                    -0.168979
     10 C                     0.215413
     11 C                    -0.079460
     12 C                    -0.083114
     13 C                     0.221318
     14 O                    -0.208595
     15 O                    -0.169604
     16 O                    -0.177192
     17 O                    -0.206030
     18 C                    -0.127452
     19 C                     0.025640
     20 C                    -0.143734
     21 C                    -0.143903
     22 C                     0.025260
     23 O                    -0.188700
     24 H                     0.092384
     25 H                     0.084963
     26 H                     0.088090
     27 H                     0.079032
     28 H                     0.075861
     29 H                     0.078652
     30 H                     0.073522
     31 H                     0.088758
     32 O                    -0.219185
     33 C                    -0.128228
     34 C                     0.024946
     35 C                    -0.143427
     36 C                    -0.151472
     37 C                     0.022333
     38 O                    -0.192010
     39 H                     0.083310
     40 H                     0.107983
     41 H                     0.090045
     42 H                     0.081977
     43 H                     0.075839
     44 H                     0.070622
     45 H                     0.071070
     46 H                     0.083715
     47 H                     0.081246
     48 H                     0.090572
     49 H                     0.090980
     50 H                     0.086080
     51 H                     0.091720
     52 H                     0.096739
     53 H                     0.098309
     54 H                     0.090607
     55 H                     0.102119
     56 H                     0.086484
  ----------------------------------------
  Sum of atomic charges =    -0.000000

                    Cartesian Multipole Moments
 -----------------------------------------------------------------
    Charge (ESU x 10^10)
                -0.0000
    Dipole Moment (Debye)
         X       1.2542      Y       0.6304      Z      -0.5951
       Tot       1.5247
    Quadrupole Moments (Debye-Ang)
        XX    -158.9725     XY       2.0408     YY    -150.7154
        XZ     -16.1264     YZ       8.0810     ZZ    -162.2259

 Total job time:  106.64s(wall), 5086.06s(cpu)
        *  Thank you very much for using Q-Chem.  Have a nice day.  *
