 Q-Chem 5.0, Q-Chem, Inc., Pleasanton, CA (2017)
 Q-Chem 5.0.1 for Intel X86 EM64T Linux

User input:
--------------------------------------------------------------
$molecule
0  1
O 4.011576699 -1.8737648517 -0.4203390714
C 4.5160646595 -0.727458742 -0.4734633407
C 3.7176792247 0.6200314819 -0.4138252678
C 2.3427008423 0.4290764232 0.3452930696
C 2.0379591572 -1.0499188879 0.8108626861
O 1.1219987873 -1.6546871478 -0.136148452
C 0.071489503 -2.4089814298 0.5885034577
C -1.0490772255 -2.7129614008 -0.4747577168
O -2.35265685 -2.8501273212 0.2067339711
C -3.3359373277 -1.8244458759 -0.0362690975
C -3.0120121555 -0.6468447812 -1.0467303703
C -4.1786234188 0.4018041 -1.2301340675
C -4.9630116115 0.8510094526 0.0669090621
O -5.8710477255 1.7125181596 0.0828841841
O 5.9059421024 -0.4690890036 -0.6502426006
O -4.3108379808 0.380568885 1.2466683329
O -4.4580205796 -2.0199185753 0.4779687492
C -4.9656033477 0.9485397011 2.4462987019
C -1.7574225422 0.3350749335 -0.8369452727
C -1.2105357327 0.6356650585 -2.2865326771
C -2.4153856212 1.467963587 -2.8670078221
C -3.3026975803 1.6873514294 -1.5759059306
O -2.3317534189 1.6417948521 -0.4527541706
H -2.8837531766 -1.1477042278 -2.0251294132
H -4.8903928002 0.1174303567 -2.0250199622
H -1.0038030461 0.0204363475 -0.0917300123
H -0.2928416238 1.2433022545 -2.2298626738
H -0.9965075287 -0.2761216209 -2.8673704735
H -2.0840978817 2.4342576477 -3.2786535066
H -2.9656227664 0.9235433983 -3.6514084428
H -3.8771109284 2.6339251168 -1.5565523541
O 2.3168606556 -1.5454596966 1.923051362
C 6.6538860021 -1.7472769807 -0.7235270781
C 4.4259514659 1.7001445099 0.5066563718
C 3.7131402218 3.0934260786 0.291480913
C 2.3742147997 2.8792501027 1.0916463718
C 2.5552394846 1.391870969 1.5904008229
O 4.0066594517 1.2938161926 1.867401158
H 3.5714636962 0.9886992396 -1.4461007329
H 1.4981734954 0.7575542138 -0.2853287514
H 6.3372395623 -2.3537516317 -1.5965705719
H 5.5297642128 1.7070320428 0.4221587485
H 4.3175191678 3.9061421539 0.724377215
H 3.541577785 3.3096258334 -0.7750662209
H 2.3028995105 3.5665360317 1.9494843687
H 1.4762919671 3.0011955677 0.4648116834
H 1.9723678403 1.1127246809 2.4893460045
H 6.5143289048 -2.3510555848 0.1961898225
H 7.7187139175 -1.470267771 -0.8300080112
H -4.380538815 0.5845614738 3.3106639368
H -6.0154342484 0.603005987 2.5383054048
H -4.9581118543 2.0575781359 2.4274044774
H -1.0260307864 -1.9373147626 -1.259967622
H -0.8438924062 -3.6897118662 -0.9621080862
H -0.3582256107 -1.8011725767 1.4157736261
H 0.4613223843 -3.3521656795 1.0294938117
$end

$rem
JOBTYPE                   OPT
METHOD                    B3LYP
DFT_D                     d3_op
BASIS                     STO-3G
GEOM_OPT_MAX_CYCLES       100
GEOM_OPT_TOL_GRADIENT     300
GEOM_OPT_TOL_DISPLACEMENT 1200
GEOM_OPT_TOL_ENERGY       100
SYMMETRY                  False
THRESH                    12
SCF_CONVERGENCE           8
MAX_SUB_FILE_NUM          128
MEM_STATIC                400
MEM_TOTAL                 4000
$end
--------------------------------------------------------------

   15   -1510.2472221241      9.80E-09 Convergence criterion met
 Total energy in the final basis set = -1510.24722212
   14   -1510.2520343471      4.70E-09 Convergence criterion met
 Total energy in the final basis set = -1510.25203435
   14   -1510.2563564118      3.07E-09 Convergence criterion met
 Total energy in the final basis set = -1510.25635641
   14   -1510.2594276056      2.16E-09 Convergence criterion met
 Total energy in the final basis set = -1510.25942761
   13   -1510.2616744360      8.77E-09 Convergence criterion met
 Total energy in the final basis set = -1510.26167444
   13   -1510.2638264032      5.71E-09 Convergence criterion met
 Total energy in the final basis set = -1510.26382640
   13   -1510.2657273354      6.06E-09 Convergence criterion met
 Total energy in the final basis set = -1510.26572734
   13   -1510.2674793496      4.93E-09 Convergence criterion met
   12   -1510.2925438045      9.93E-09 Convergence criterion met
 Total energy in the final basis set = -1510.29254380
   12   -1510.2926196744      3.22E-09 Convergence criterion met
 Total energy in the final basis set = -1510.29261967
   11   -1510.2926448704      8.73E-09 Convergence criterion met
 Total energy in the final basis set = -1510.29264487
   11   -1510.2926605827      6.07E-09 Convergence criterion met
 Total energy in the final basis set = -1510.29266058
   11   -1510.2926617499      7.12E-09 Convergence criterion met
 Total energy in the final basis set = -1510.29266175
   11   -1510.2926638942      5.51E-09 Convergence criterion met
 Total energy in the final basis set = -1510.29266389

             Standard Nuclear Orientation (Angstroms)
    I     Atom           X                Y                Z
 ----------------------------------------------------------------
    1      O       3.5685821788    -1.5440456695     0.1959353659
    2      C       3.6550653917    -0.3773374993    -0.2532367885
    3      C       2.5668176527     0.7396300966    -0.1525977495
    4      C       1.2585564688     0.2222554703     0.5594348671
    5      C       1.2014188473    -1.3200771202     0.8181689890
    6      O       0.9116735131    -1.9965923627    -0.4476202686
    7      C       0.4440541927    -3.3717522202    -0.1928317879
    8      C      -1.1356705733    -3.4166675710    -0.1632619338
    9      O      -1.6464321009    -2.5683116577     0.9350879676
   10      C      -1.9218654735    -1.1978216011     0.6145935511
   11      C      -2.3315646631    -0.7827565990    -0.8534032245
   12      C      -3.0417972894     0.6394716280    -0.8691816117
   13      C      -3.3076575064     1.2690626932     0.5534492776
   14      O      -4.3264731911     1.0673015367     1.2502410842
   15      O       4.7987110497     0.1321019169    -0.9391402565
   16      O      -2.3162290952     2.2696093323     0.8537467499
   17      O      -1.9314679735    -0.3904513290     1.5751143587
   18      C      -2.6037741287     2.8480667639     2.1863179648
   19      C      -1.0777305927    -0.5028203158    -1.7922534378
   20      C      -1.5788925011    -0.3883229157    -3.2807792177
   21      C      -2.2439563519     1.0406137106    -3.2748574828
   22      C      -2.0389829762     1.4713646009    -1.7693203207
   23      O      -0.7146039686     0.8898079195    -1.4456881094
   24      H      -2.9936572309    -1.5563269615    -1.2811895284
   25      H      -4.0283647807     0.5509407966    -1.3583058405
   26      H      -0.2059809748    -1.1643285985    -1.5669431321
   27      H      -0.7286550345    -0.4345093859    -3.9797269956
   28      H      -2.2930755453    -1.1856738563    -3.5416646964
   29      H      -1.7138728236     1.7337479448    -3.9474196064
   30      H      -3.3082622380     1.0174409990    -3.5585851169
   31      H      -2.0431092561     2.5610990126    -1.5774532979
   32      O       1.2184941280    -1.9184617437     1.9116148310
   33      C       5.8446429256    -0.9142063393    -1.0268328933
   34      C       3.0114273456     1.8818829607     0.8596638488
   35      C       1.9677498951     3.0677234323     0.7589098566
   36      C       0.7594716934     2.4894178939     1.5857176375
   37      C       1.2935917712     1.0448818232     1.9129219259
   38      O       2.7375377474     1.2644964063     2.1756896843
   39      H       2.3618109636     1.1411871653    -1.1616673075
   40      H       0.3759237811     0.5155367281    -0.0552611751
   41      H       5.4821871559    -1.8067306026    -1.5765284768
   42      H       4.0759778494     2.1752836433     0.7745423811
   43      H       2.3765793225     3.9827153899     1.2162701651
   44      H       1.6984283404     3.2845230359    -0.2872510162
   45      H       0.6047758103     3.0595349530     2.5155740854
   46      H      -0.1904042819     2.4550410240     1.0229383758
   47      H       0.8160650146     0.5293436609     2.7686113681
   48      H       6.1853241642    -1.2343880124    -0.0209526564
   49      H       6.6880213603    -0.4569598922    -1.5761411079
   50      H      -1.9821918267     3.7572957034     2.2751217665
   51      H      -2.3331602526     2.1336890970     2.9906462155
   52      H      -3.6758678146     3.1091509280     2.2907855390
   53      H      -1.5535885742    -3.1436599627    -1.1524613123
   54      H      -1.4585762332    -4.4508594369     0.0798322663
   55      H       0.8370879775    -3.7143726551     0.7882184528
   56      H       0.8204341412    -4.0199263802    -1.0106607693
 ----------------------------------------------------------------

    9   -1510.2926639166      6.36E-09 Convergence criterion met
 Total energy in the final basis set = -1510.29266392
 Final energy is   -1510.29266391656
 **  OPTIMIZATION CONVERGED  **

                    Orbital Energies (a.u.)
 --------------------------------------------------------------

 Alpha MOs
 -- Occupied --
-18.942 -18.940 -18.925 -18.923 -18.902 -18.890 -18.881 -18.873
-18.872 -18.857 -10.110 -10.100 -10.093 -10.093 -10.084 -10.072
-10.067 -10.066 -10.053 -10.053 -10.050 -10.044 -10.040 -10.038
-10.030 -10.027 -10.026 -10.010 -10.007  -9.998  -1.019  -1.015
 -1.002  -0.997  -0.981  -0.957  -0.947  -0.939  -0.931  -0.924
 -0.767  -0.752  -0.726  -0.718  -0.711  -0.708  -0.691  -0.662
 -0.652  -0.612  -0.602  -0.580  -0.550  -0.545  -0.535  -0.525
 -0.521  -0.503  -0.489  -0.475  -0.466  -0.458  -0.452  -0.448
 -0.434  -0.429  -0.421  -0.415  -0.411  -0.406  -0.404  -0.402
 -0.397  -0.393  -0.373  -0.368  -0.361  -0.355  -0.352  -0.346
 -0.342  -0.336  -0.333  -0.332  -0.325  -0.321  -0.315  -0.312
 -0.310  -0.304  -0.300  -0.295  -0.290  -0.289  -0.277  -0.275
 -0.265  -0.255  -0.250  -0.242  -0.241  -0.237  -0.219  -0.192
 -0.181  -0.166  -0.161  -0.160  -0.155  -0.155  -0.147  -0.140
 -0.132

          Ground-State Mulliken Net Atomic Charges

     Atom                 Charge (a.u.)
  ----------------------------------------
      1 O                    -0.207036
      2 C                     0.214245
      3 C                    -0.077982
      4 C                    -0.099523
      5 C                     0.218098
      6 O                    -0.186948
      7 C                    -0.055101
      8 C                    -0.049749
      9 O                    -0.166458
     10 C                     0.211876
     11 C                    -0.086443
     12 C                    -0.081191
     13 C                     0.215665
     14 O                    -0.222386
     15 O                    -0.168153
     16 O                    -0.174611
     17 O                    -0.190577
     18 C                    -0.128582
     19 C                     0.002633
     20 C                    -0.145837
     21 C                    -0.143283
     22 C                     0.026299
     23 O                    -0.193004
     24 H                     0.080181
     25 H                     0.083836
     26 H                     0.110434
     27 H                     0.078538
     28 H                     0.071532
     29 H                     0.078386
     30 H                     0.074681
     31 H                     0.091058
     32 O                    -0.204430
     33 C                    -0.128053
     34 C                     0.024585
     35 C                    -0.144540
     36 C                    -0.149836
     37 C                     0.023864
     38 O                    -0.194275
     39 H                     0.087472
     40 H                     0.112896
     41 H                     0.089338
     42 H                     0.081562
     43 H                     0.073619
     44 H                     0.072667
     45 H                     0.069705
     46 H                     0.090846
     47 H                     0.090094
     48 H                     0.091850
     49 H                     0.091338
     50 H                     0.086811
     51 H                     0.092653
     52 H                     0.090568
     53 H                     0.083136
     54 H                     0.093363
     55 H                     0.107621
     56 H                     0.086548
  ----------------------------------------
  Sum of atomic charges =    -0.000000

                    Cartesian Multipole Moments
 -----------------------------------------------------------------
    Charge (ESU x 10^10)
                 0.0000
    Dipole Moment (Debye)
         X      -0.0805      Y      -0.3714      Z      -5.3086
       Tot       5.3221
    Quadrupole Moments (Debye-Ang)
        XX    -157.9432     XY       0.5454     YY    -148.1973
        XZ       1.9828     YZ       8.3872     ZZ    -163.4422

 Total job time:  145.00s(wall), 6916.61s(cpu)
        *  Thank you very much for using Q-Chem.  Have a nice day.  *
