 Q-Chem 5.0, Q-Chem, Inc., Pleasanton, CA (2017)
 Q-Chem 5.0.1 for Intel X86 EM64T Linux

User input:
--------------------------------------------------------------
$molecule
0  1
O -3.94934 -3.66094 2.70899
C -3.26408 -4.56952 2.26188
C -3.36658 -6.02376 2.66595
C -4.71828 -6.50621 3.21732
C -5.8678 -5.52628 3.13726
O -6.05205 -4.92703 4.35067
C -7.42986 -4.82747 4.72614
C -7.54738 -4.47238 6.20473
O -8.78726 -4.97122 6.73081
C -8.67555 -5.98418 7.62556
C -7.24099 -6.34452 7.93027
C -7.06102 -7.47997 8.94843
C -8.29456 -8.31255 9.23462
O -8.33642 -9.28767 9.97079
O -2.19188 -4.24279 1.49181
O -9.21005 -8.40976 8.22534
O -9.56492 -6.05204 8.46259
C -10.28802 -9.27373 8.18469
C -6.33683 -7.05324 6.83003
C -4.85749 -6.77846 7.13913
C -4.64781 -7.66938 8.33584
C -5.99727 -8.38557 8.35859
O -6.4163 -8.4392 7.03503
H -6.73888 -5.4821 8.42898
H -6.76104 -7.09033 9.94826
H -6.52885 -6.81672 5.79412
H -4.25129 -7.21338 6.31936
H -4.5624 -5.71617 7.27161
H -3.81586 -8.37689 8.12064
H -4.45721 -7.13867 9.29418
H -5.92088 -9.36174 8.88678
O -6.73656 -5.56794 2.27152
C -1.8833 -2.96055 1.08801
C -3.24359 -6.95225 1.43196
C -2.78591 -8.34347 1.86843
C -4.04235 -8.85382 2.53572
C -4.99262 -7.68414 2.25907
O -4.5663 -7.18067 1.02026
H -2.50573 -6.22977 3.34043
H -4.65223 -6.892 4.24614
H -1.70203 -2.31321 1.97258
H -2.55461 -6.56949 0.64812
H -2.61082 -8.93934 0.94384
H -1.86966 -8.36473 2.49683
H -4.3828 -9.76468 1.99453
H -3.95112 -9.07001 3.62233
H -6.04713 -8.03603 2.30844
H -2.71279 -2.5417 0.47904
H -0.96279 -2.98567 0.46955
H -10.85217 -9.10513 7.24479
H -10.96165 -9.08265 9.04662
H -9.93851 -10.32783 8.20437
H -6.56271 -4.53952 6.68438
H -7.59996 -3.36428 6.25638
H -7.92083 -5.81777 4.58044
H -7.99772 -4.1129 4.08931
$end

$opt
CONSTRAINT
tors           1           2           3           4     +25.428
tors           3           4           5           6    -100.129
tors           4           5           6           7    -136.667
tors           5           6           7           8    +166.235
tors           6           7           8           9    -152.855
tors           7           8           9          10    +111.629
tors           8           9          10          11      +2.411
tors           9          10          11          12    +179.515
tors          11          12          13          14    +176.933
ENDCONSTRAINT
$end

$rem
JOBTYPE                   OPT
METHOD                    B3LYP
DFT_D                     d3_op
BASIS                     STO-3G
GEOM_OPT_MAX_CYCLES       100
GEOM_OPT_TOL_GRADIENT     300
GEOM_OPT_TOL_DISPLACEMENT 1200
GEOM_OPT_TOL_ENERGY       100
SYMMETRY                  False
THRESH                    12
SCF_CONVERGENCE           8
MAX_SUB_FILE_NUM          128
MEM_STATIC                400
MEM_TOTAL                 4000
$end
--------------------------------------------------------------

   16   -1510.0649725144      2.83E-09 Convergence criterion met
 Total energy in the final basis set = -1510.06497251
   14   -1510.1441711464      9.32E-09 Convergence criterion met
 Total energy in the final basis set = -1510.14417115
   14   -1510.1904852676      9.49E-09 Convergence criterion met
 Total energy in the final basis set = -1510.19048527
   14   -1510.2178835640      1.88E-09 Convergence criterion met
 Total energy in the final basis set = -1510.21788356
   13   -1510.2315894798      6.37E-09 Convergence criterion met
 Total energy in the final basis set = -1510.23158948
   13   -1510.2386945920      6.37E-09 Convergence criterion met
 Total energy in the final basis set = -1510.23869459
   13   -1510.2429093276      4.74E-09 Convergence criterion met
 Total energy in the final basis set = -1510.24290933
   13   -1510.2449325906      3.39E-09 Convergence criterion met
   10   -1510.2471026495      6.47E-09 Convergence criterion met
 Total energy in the final basis set = -1510.24710265
   10   -1510.2471193031      6.43E-09 Convergence criterion met
 Total energy in the final basis set = -1510.24711930
   11   -1510.2471363232      2.87E-09 Convergence criterion met
 Total energy in the final basis set = -1510.24713632
    9   -1510.2471457831      9.30E-09 Convergence criterion met
 Total energy in the final basis set = -1510.24714578
    9   -1510.2471496632      5.90E-09 Convergence criterion met
 Total energy in the final basis set = -1510.24714966
    9   -1510.2471509882      3.18E-09 Convergence criterion met
 Total energy in the final basis set = -1510.24715099

             Standard Nuclear Orientation (Angstroms)
    I     Atom           X                Y                Z
 ----------------------------------------------------------------
    1      O       4.0115766990    -1.8737648517    -0.4203390714
    2      C       4.5160646595    -0.7274587420    -0.4734633407
    3      C       3.7176792247     0.6200314819    -0.4138252678
    4      C       2.3427008423     0.4290764232     0.3452930696
    5      C       2.0379591572    -1.0499188879     0.8108626861
    6      O       1.1219987873    -1.6546871478    -0.1361484520
    7      C       0.0714895030    -2.4089814298     0.5885034577
    8      C      -1.0490772255    -2.7129614008    -0.4747577168
    9      O      -2.3526568500    -2.8501273212     0.2067339711
   10      C      -3.3359373277    -1.8244458759    -0.0362690975
   11      C      -3.0120121555    -0.6468447812    -1.0467303703
   12      C      -4.1786234188     0.4018041000    -1.2301340675
   13      C      -4.9630116115     0.8510094526     0.0669090621
   14      O      -5.8710477255     1.7125181596     0.0828841841
   15      O       5.9059421024    -0.4690890036    -0.6502426006
   16      O      -4.3108379808     0.3805688850     1.2466683329
   17      O      -4.4580205796    -2.0199185753     0.4779687492
   18      C      -4.9656033477     0.9485397011     2.4462987019
   19      C      -1.7574225422     0.3350749335    -0.8369452727
   20      C      -1.2105357327     0.6356650585    -2.2865326771
   21      C      -2.4153856212     1.4679635870    -2.8670078221
   22      C      -3.3026975803     1.6873514294    -1.5759059306
   23      O      -2.3317534189     1.6417948521    -0.4527541706
   24      H      -2.8837531766    -1.1477042278    -2.0251294132
   25      H      -4.8903928002     0.1174303567    -2.0250199622
   26      H      -1.0038030461     0.0204363475    -0.0917300123
   27      H      -0.2928416238     1.2433022545    -2.2298626738
   28      H      -0.9965075287    -0.2761216209    -2.8673704735
   29      H      -2.0840978817     2.4342576477    -3.2786535066
   30      H      -2.9656227664     0.9235433983    -3.6514084428
   31      H      -3.8771109284     2.6339251168    -1.5565523541
   32      O       2.3168606556    -1.5454596966     1.9230513620
   33      C       6.6538860021    -1.7472769807    -0.7235270781
   34      C       4.4259514659     1.7001445099     0.5066563718
   35      C       3.7131402218     3.0934260786     0.2914809130
   36      C       2.3742147997     2.8792501027     1.0916463718
   37      C       2.5552394846     1.3918709690     1.5904008229
   38      O       4.0066594517     1.2938161926     1.8674011580
   39      H       3.5714636962     0.9886992396    -1.4461007329
   40      H       1.4981734954     0.7575542138    -0.2853287514
   41      H       6.3372395623    -2.3537516317    -1.5965705719
   42      H       5.5297642128     1.7070320428     0.4221587485
   43      H       4.3175191678     3.9061421539     0.7243772150
   44      H       3.5415777850     3.3096258334    -0.7750662209
   45      H       2.3028995105     3.5665360317     1.9494843687
   46      H       1.4762919671     3.0011955677     0.4648116834
   47      H       1.9723678403     1.1127246809     2.4893460045
   48      H       6.5143289048    -2.3510555848     0.1961898225
   49      H       7.7187139175    -1.4702677710    -0.8300080112
   50      H      -4.3805388150     0.5845614738     3.3106639368
   51      H      -6.0154342484     0.6030059870     2.5383054048
   52      H      -4.9581118543     2.0575781359     2.4274044774
   53      H      -1.0260307864    -1.9373147626    -1.2599676220
   54      H      -0.8438924062    -3.6897118662    -0.9621080862
   55      H      -0.3582256107    -1.8011725767     1.4157736261
   56      H       0.4613223843    -3.3521656795     1.0294938117
 ----------------------------------------------------------------

    9   -1510.2471519036      2.67E-09 Convergence criterion met
 Total energy in the final basis set = -1510.24715190
 Final energy is   -1510.24715190357
 **  OPTIMIZATION CONVERGED  **

                    Orbital Energies (a.u.)
 --------------------------------------------------------------

 Alpha MOs
 -- Occupied --
-18.949 -18.931 -18.931 -18.912 -18.894 -18.890 -18.889 -18.874
-18.872 -18.864 -10.110 -10.101 -10.096 -10.095 -10.076 -10.073
-10.070 -10.069 -10.065 -10.062 -10.061 -10.058 -10.044 -10.042
-10.041 -10.036 -10.030 -10.028 -10.023 -10.021  -1.023  -1.009
 -1.003  -0.999  -0.978  -0.972  -0.947  -0.938  -0.929  -0.927
 -0.768  -0.766  -0.729  -0.726  -0.714  -0.709  -0.702  -0.669
 -0.657  -0.610  -0.604  -0.588  -0.553  -0.548  -0.545  -0.540
 -0.521  -0.515  -0.488  -0.481  -0.471  -0.457  -0.451  -0.448
 -0.442  -0.439  -0.434  -0.419  -0.416  -0.415  -0.406  -0.402
 -0.395  -0.383  -0.379  -0.370  -0.366  -0.364  -0.358  -0.350
 -0.338  -0.338  -0.337  -0.334  -0.329  -0.325  -0.322  -0.316
 -0.315  -0.312  -0.309  -0.304  -0.299  -0.292  -0.282  -0.278
 -0.275  -0.262  -0.248  -0.245  -0.242  -0.240  -0.237  -0.188
 -0.177  -0.168  -0.164  -0.162  -0.155  -0.147  -0.146  -0.145
 -0.142

          Ground-State Mulliken Net Atomic Charges

     Atom                 Charge (a.u.)
  ----------------------------------------
      1 O                    -0.203555
      2 C                     0.215778
      3 C                    -0.078111
      4 C                    -0.081820
      5 C                     0.214979
      6 O                    -0.188594
      7 C                    -0.048960
      8 C                    -0.050725
      9 O                    -0.171542
     10 C                     0.212356
     11 C                    -0.086652
     12 C                    -0.073720
     13 C                     0.215369
     14 O                    -0.219991
     15 O                    -0.165999
     16 O                    -0.162477
     17 O                    -0.196305
     18 C                    -0.125520
     19 C                     0.020910
     20 C                    -0.141183
     21 C                    -0.146184
     22 C                     0.022887
     23 O                    -0.191267
     24 H                     0.078903
     25 H                     0.086796
     26 H                     0.084416
     27 H                     0.075760
     28 H                     0.072659
     29 H                     0.079495
     30 H                     0.075426
     31 H                     0.087876
     32 O                    -0.207506
     33 C                    -0.127445
     34 C                     0.023807
     35 C                    -0.144320
     36 C                    -0.143967
     37 C                     0.025284
     38 O                    -0.188355
     39 H                     0.085588
     40 H                     0.081013
     41 H                     0.090811
     42 H                     0.090193
     43 H                     0.078807
     44 H                     0.072662
     45 H                     0.079219
     46 H                     0.074868
     47 H                     0.087133
     48 H                     0.095214
     49 H                     0.093383
     50 H                     0.090655
     51 H                     0.090389
     52 H                     0.089302
     53 H                     0.090318
     54 H                     0.088960
     55 H                     0.082730
     56 H                     0.090252
  ----------------------------------------
  Sum of atomic charges =    -0.000000

                    Cartesian Multipole Moments
 -----------------------------------------------------------------
    Charge (ESU x 10^10)
                -0.0000
    Dipole Moment (Debye)
         X       2.7182      Y       1.6131      Z      -3.7144
       Tot       4.8773
    Quadrupole Moments (Debye-Ang)
        XX    -168.3743     XY      -1.1150     YY    -163.1561
        XZ      -5.0662     YZ       4.5404     ZZ    -155.6599

 Total job time:  59.62s(wall), 2839.71s(cpu)
        *  Thank you very much for using Q-Chem.  Have a nice day.  *
