 Q-Chem 5.0, Q-Chem, Inc., Pleasanton, CA (2017)
 Q-Chem 5.0.1 for Intel X86 EM64T Linux

User input:
--------------------------------------------------------------
$molecule
0  1
O -3.94934 -3.66094 2.70899
C -3.26408 -4.56952 2.26188
C -3.36658 -6.02376 2.66595
C -3.31492 -7.07082 1.54129
C -2.98832 -6.55748 0.15641
O -3.44374 -5.27745 0.01667
C -4.8575 -5.20273 -0.19535
C -5.56359 -4.81647 1.10017
O -5.99752 -3.449 1.03211
C -7.19932 -3.18943 1.60433
C -7.37249 -1.7359 1.97569
C -8.7392 -1.3803 2.57896
C -9.57939 -2.55121 3.04775
O -9.3598 -3.72712 2.7956
O -2.08462 -4.20373 1.67251
O -10.70916 -2.23572 3.73537
O -8.09278 -3.66962 0.91401
C -11.60941 -3.16153 4.21962
C -6.42603 -1.24583 3.08499
C -6.26769 0.27084 2.99236
C -7.6346 0.72654 3.45864
C -8.2605 -0.62146 3.83392
O -7.1692 -1.39707 4.26785
H -7.19436 -1.14949 1.0447
H -9.37359 -0.7569 1.91118
H -5.4305 -1.72833 3.06726
H -5.51486 0.56755 3.75772
H -5.95125 0.65722 1.99963
H -7.50219 1.36296 4.36177
H -8.24287 1.26334 2.69874
H -9.07137 -0.46854 4.57954
O -2.74697 -7.27482 -0.80313
C -1.72986 -2.90521 1.3691
C -2.1135 -6.43676 3.47305
C -2.40808 -7.67086 4.326
C -2.48329 -8.73705 3.25623
C -2.11439 -7.91134 2.01939
O -1.22529 -6.9403 2.50865
H -4.2207 -6.16108 3.3647
H -4.23774 -7.6866 1.46084
H -1.68594 -2.29298 2.295
H -1.72054 -5.61845 4.11671
H -1.50601 -7.86024 4.95119
H -3.29928 -7.59362 4.98521
H -1.6988 -9.49851 3.46396
H -3.47276 -9.2311 3.1448
H -1.71439 -8.57896 1.22441
H -2.46508 -2.46508 0.66181
H -0.72847 -2.90408 0.89222
H -12.43314 -2.63058 4.73926
H -11.10823 -3.83971 4.94302
H -12.03715 -3.75413 3.38285
H -6.49464 -5.39011 0.87862
H -5.57938 -5.26411 2.09684
H -5.24091 -6.1953 -0.55314
H -5.08924 -4.49946 -1.02395
$end

$opt
CONSTRAINT
tors           1           2           3           4    +136.699
tors           3           4           5           6     -30.405
tors           4           5           6           7     -77.064
tors           5           6           7           8    +101.309
tors           6           7           8           9    +105.621
tors           7           8           9          10    +142.195
tors           8           9          10          11    +158.165
tors           9          10          11          12    +177.780
tors          11          12          13          14     -12.303
ENDCONSTRAINT
$end

$rem
JOBTYPE                   OPT
METHOD                    B3LYP
DFT_D                     d3_op
BASIS                     STO-3G
GEOM_OPT_MAX_CYCLES       100
GEOM_OPT_TOL_GRADIENT     300
GEOM_OPT_TOL_DISPLACEMENT 1200
GEOM_OPT_TOL_ENERGY       100
SYMMETRY                  False
THRESH                    12
SCF_CONVERGENCE           8
MAX_SUB_FILE_NUM          128
MEM_STATIC                400
MEM_TOTAL                 4000
$end
--------------------------------------------------------------

   16   -1509.9933472946      2.68E-09 Convergence criterion met
 Total energy in the final basis set = -1509.99334729
   14   -1510.0806238159      7.40E-09 Convergence criterion met
 Total energy in the final basis set = -1510.08062382
   14   -1510.1331175920      6.74E-09 Convergence criterion met
 Total energy in the final basis set = -1510.13311759
   14   -1510.1677324142      6.80E-09 Convergence criterion met
 Total energy in the final basis set = -1510.16773241
   14   -1510.1894289264      4.62E-09 Convergence criterion met
 Total energy in the final basis set = -1510.18942893
   14   -1510.2044829853      3.68E-09 Convergence criterion met
 Total energy in the final basis set = -1510.20448299
   14   -1510.2157589189      2.61E-09 Convergence criterion met
 Total energy in the final basis set = -1510.21575892
   13   -1510.2246200889      6.15E-09 Convergence criterion met
   12   -1510.2517385097      5.70E-09 Convergence criterion met
 Total energy in the final basis set = -1510.25173851
   11   -1510.2517787176      3.65E-09 Convergence criterion met
 Total energy in the final basis set = -1510.25177872
   11   -1510.2518046599      5.90E-09 Convergence criterion met
 Total energy in the final basis set = -1510.25180466
   10   -1510.2518148618      8.99E-09 Convergence criterion met
 Total energy in the final basis set = -1510.25181486
    9   -1510.2518248898      8.64E-09 Convergence criterion met
 Total energy in the final basis set = -1510.25182489
   10   -1510.2518275503      8.51E-09 Convergence criterion met
 Total energy in the final basis set = -1510.25182755

             Standard Nuclear Orientation (Angstroms)
    I     Atom           X                Y                Z
 ----------------------------------------------------------------
    1      O      -1.4724542361    -1.9186050465     0.7101465866
    2      C      -2.5807849262    -1.3773660432     0.4973768433
    3      C      -3.0629780567     0.0156749396     1.0338830619
    4      C      -3.8077994512     0.8781858539    -0.0599093425
    5      C      -3.6947992689     0.3554058315    -1.5488139158
    6      O      -2.4816504150    -0.3674303355    -1.9267335547
    7      C      -1.3439199656     0.5635298554    -2.1431454346
    8      C      -0.3240408990     0.6355780447    -0.9387592884
    9      O       0.9045967587    -0.0989016991    -1.3255985624
   10      C       2.0744928358     0.5718922344    -0.8220413964
   11      C       3.2041647250    -0.5211304967    -0.7750399314
   12      C       4.6346838473    -0.0482314222    -0.3053124799
   13      C       5.0081239828     1.4619211658    -0.5162034340
   14      O       4.4285215287     2.3379357405    -1.1900188647
   15      O      -3.6717694538    -1.9970574154    -0.1890275720
   16      O       6.2174202721     1.6994138026     0.2214313276
   17      O       2.0628496373     1.7300742062    -0.3562837553
   18      C       6.6373202726     3.1093595014     0.0583410114
   19      C       2.8137700321    -1.4556005800     0.4577857827
   20      C       3.7688287856    -2.7136755582     0.5169894711
   21      C       5.0652002582    -2.0912978089     1.1575624230
   22      C       4.6618381468    -0.5667456611     1.2037532507
   23      O       3.2387748678    -0.6200578835     1.6065875743
   24      H       3.2302030999    -1.0710868731    -1.7322209777
   25      H       5.3928429719    -0.6139979829    -0.8801631099
   26      H       1.7308483393    -1.6827404248     0.5151785280
   27      H       3.3337019728    -3.4979586872     1.1561957939
   28      H       3.9507576884    -3.1361170206    -0.4843110897
   29      H       5.2329457544    -2.4744631285     2.1770039264
   30      H       5.9712322405    -2.2699434447     0.5565979365
   31      H       5.2487337609     0.0681091164     1.8951460592
   32      O      -4.6405353202     0.4251883112    -2.3605579083
   33      C      -3.2353541455    -3.2824465134    -0.7788310031
   34      C      -4.2515571808    -0.1931074939     2.0748257332
   35      C      -4.5724883550     1.1878779965     2.7748462549
   36      C      -5.3937071448     1.9218631936     1.6493567990
   37      C      -5.3004118744     0.8668929289     0.4803167303
   38      O      -5.4172627995    -0.4261155453     1.1930056684
   39      H      -2.2050807878     0.5431048961     1.4840323582
   40      H      -3.4116051108     1.9122420795    -0.0506478651
   41      H      -2.7871145897    -3.9512521044    -0.0163128194
   42      H      -4.1081718783    -1.0479008747     2.7640440882
   43      H      -5.1769721984     1.0296119287     3.6820284809
   44      H      -3.6551988345     1.7313106195     3.0530762946
   45      H      -6.4438349223     2.0682774452     1.9488934631
   46      H      -4.9657760613     2.8984726768     1.3725713965
   47      H      -6.0656323204     0.9482300188    -0.3164611251
   48      H      -2.4948233078    -3.1134143921    -1.5873652187
   49      H      -4.1442790065    -3.7495549231    -1.2001064953
   50      H       7.5663984526     3.2220229629     0.6469776360
   51      H       5.8682441440     3.8114944404     0.4405392134
   52      H       6.8395705223     3.3566101662    -1.0040025243
   53      H      -0.0564595456     1.6848928466    -0.6893885617
   54      H      -0.7429032212     0.1369050944    -0.0426777401
   55      H      -1.6981803846     1.5840453364    -2.4000393401
   56      H      -0.7899340314     0.1656827569    -3.0211730875
 ----------------------------------------------------------------

    9   -1510.2518266434      8.29E-09 Convergence criterion met
 Total energy in the final basis set = -1510.25182664
 Final energy is   -1510.25182664344
 **  OPTIMIZATION CONVERGED  **

                    Orbital Energies (a.u.)
 --------------------------------------------------------------

 Alpha MOs
 -- Occupied --
-18.932 -18.928 -18.920 -18.909 -18.903 -18.891 -18.885 -18.876
-18.874 -18.870 -10.110 -10.099 -10.096 -10.095 -10.073 -10.063
-10.061 -10.061 -10.060 -10.058 -10.057 -10.056 -10.041 -10.040
-10.037 -10.035 -10.023 -10.022 -10.019 -10.017  -1.013  -1.009
 -1.004  -1.003  -0.972  -0.969  -0.940  -0.934  -0.933  -0.927
 -0.766  -0.761  -0.726  -0.722  -0.711  -0.706  -0.695  -0.658
 -0.656  -0.610  -0.601  -0.582  -0.548  -0.541  -0.540  -0.534
 -0.514  -0.513  -0.485  -0.474  -0.469  -0.458  -0.450  -0.438
 -0.435  -0.432  -0.417  -0.414  -0.410  -0.408  -0.406  -0.399
 -0.396  -0.381  -0.372  -0.369  -0.367  -0.356  -0.352  -0.347
 -0.342  -0.341  -0.338  -0.332  -0.327  -0.323  -0.316  -0.314
 -0.310  -0.307  -0.303  -0.299  -0.295  -0.293  -0.288  -0.279
 -0.268  -0.252  -0.250  -0.243  -0.237  -0.236  -0.232  -0.177
 -0.174  -0.169  -0.166  -0.161  -0.157  -0.149  -0.145  -0.143
 -0.137

          Ground-State Mulliken Net Atomic Charges

     Atom                 Charge (a.u.)
  ----------------------------------------
      1 O                    -0.219692
      2 C                     0.212389
      3 C                    -0.082719
      4 C                    -0.083596
      5 C                     0.222453
      6 O                    -0.190818
      7 C                    -0.051824
      8 C                    -0.064380
      9 O                    -0.180355
     10 C                     0.213629
     11 C                    -0.076300
     12 C                    -0.080845
     13 C                     0.210534
     14 O                    -0.204626
     15 O                    -0.164656
     16 O                    -0.175115
     17 O                    -0.203637
     18 C                    -0.128663
     19 C                     0.023700
     20 C                    -0.145205
     21 C                    -0.141986
     22 C                     0.025304
     23 O                    -0.191947
     24 H                     0.086457
     25 H                     0.083059
     26 H                     0.092434
     27 H                     0.079237
     28 H                     0.073666
     29 H                     0.077555
     30 H                     0.073268
     31 H                     0.089321
     32 O                    -0.178776
     33 C                    -0.126887
     34 C                     0.026429
     35 C                    -0.144698
     36 C                    -0.143008
     37 C                     0.025278
     38 O                    -0.184321
     39 H                     0.083466
     40 H                     0.080127
     41 H                     0.088750
     42 H                     0.083642
     43 H                     0.079062
     44 H                     0.074243
     45 H                     0.079231
     46 H                     0.073291
     47 H                     0.092261
     48 H                     0.092983
     49 H                     0.092077
     50 H                     0.088733
     51 H                     0.090218
     52 H                     0.087347
     53 H                     0.094897
     54 H                     0.092356
     55 H                     0.080734
     56 H                     0.095924
  ----------------------------------------
  Sum of atomic charges =    -0.000000

                    Cartesian Multipole Moments
 -----------------------------------------------------------------
    Charge (ESU x 10^10)
                -0.0000
    Dipole Moment (Debye)
         X       1.6907      Y       0.2615      Z       0.8114
       Tot       1.8935
    Quadrupole Moments (Debye-Ang)
        XX    -154.7293     XY      -8.1876     YY    -152.9801
        XZ      -8.8972     YZ       3.4093     ZZ    -161.7839

 Total job time:  102.09s(wall), 4867.39s(cpu)
        *  Thank you very much for using Q-Chem.  Have a nice day.  *
