 Q-Chem 5.0, Q-Chem, Inc., Pleasanton, CA (2017)
 Q-Chem 5.0.1 for Intel X86 EM64T Linux

User input:
--------------------------------------------------------------
$molecule
0  1
O -1.4724542361 -1.9186050465 0.7101465866
C -2.5807849262 -1.3773660432 0.4973768433
C -3.0629780567 0.0156749396 1.0338830619
C -3.8077994512 0.8781858539 -0.0599093425
C -3.6947992689 0.3554058315 -1.5488139158
O -2.481650415 -0.3674303355 -1.9267335547
C -1.3439199656 0.5635298554 -2.1431454346
C -0.324040899 0.6355780447 -0.9387592884
O 0.9045967587 -0.0989016991 -1.3255985624
C 2.0744928358 0.5718922344 -0.8220413964
C 3.204164725 -0.5211304967 -0.7750399314
C 4.6346838473 -0.0482314222 -0.3053124799
C 5.0081239828 1.4619211658 -0.516203434
O 4.4285215287 2.3379357405 -1.1900188647
O -3.6717694538 -1.9970574154 -0.189027572
O 6.2174202721 1.6994138026 0.2214313276
O 2.0628496373 1.7300742062 -0.3562837553
C 6.6373202726 3.1093595014 0.0583410114
C 2.8137700321 -1.45560058 0.4577857827
C 3.7688287856 -2.7136755582 0.5169894711
C 5.0652002582 -2.0912978089 1.157562423
C 4.6618381468 -0.5667456611 1.2037532507
O 3.2387748678 -0.6200578835 1.6065875743
H 3.2302030999 -1.0710868731 -1.7322209777
H 5.3928429719 -0.6139979829 -0.8801631099
H 1.7308483393 -1.6827404248 0.515178528
H 3.3337019728 -3.4979586872 1.1561957939
H 3.9507576884 -3.1361170206 -0.4843110897
H 5.2329457544 -2.4744631285 2.1770039264
H 5.9712322405 -2.2699434447 0.5565979365
H 5.2487337609 0.0681091164 1.8951460592
O -4.6405353202 0.4251883112 -2.3605579083
C -3.2353541455 -3.2824465134 -0.7788310031
C -4.2515571808 -0.1931074939 2.0748257332
C -4.572488355 1.1878779965 2.7748462549
C -5.3937071448 1.9218631936 1.649356799
C -5.3004118744 0.8668929289 0.4803167303
O -5.4172627995 -0.4261155453 1.1930056684
H -2.2050807878 0.5431048961 1.4840323582
H -3.4116051108 1.9122420795 -0.0506478651
H -2.7871145897 -3.9512521044 -0.0163128194
H -4.1081718783 -1.0479008747 2.7640440882
H -5.1769721984 1.0296119287 3.6820284809
H -3.6551988345 1.7313106195 3.0530762946
H -6.4438349223 2.0682774452 1.9488934631
H -4.9657760613 2.8984726768 1.3725713965
H -6.0656323204 0.9482300188 -0.3164611251
H -2.4948233078 -3.1134143921 -1.5873652187
H -4.1442790065 -3.7495549231 -1.2001064953
H 7.5663984526 3.2220229629 0.646977636
H 5.868244144 3.8114944404 0.4405392134
H 6.8395705223 3.3566101662 -1.0040025243
H -0.0564595456 1.6848928466 -0.6893885617
H -0.7429032212 0.1369050944 -0.0426777401
H -1.6981803846 1.5840453364 -2.4000393401
H -0.7899340314 0.1656827569 -3.0211730875
$end

$rem
JOBTYPE                   OPT
METHOD                    B3LYP
DFT_D                     d3_op
BASIS                     STO-3G
GEOM_OPT_MAX_CYCLES       100
GEOM_OPT_TOL_GRADIENT     300
GEOM_OPT_TOL_DISPLACEMENT 1200
GEOM_OPT_TOL_ENERGY       100
SYMMETRY                  False
THRESH                    12
SCF_CONVERGENCE           8
MAX_SUB_FILE_NUM          128
MEM_STATIC                400
MEM_TOTAL                 4000
$end
--------------------------------------------------------------

   16   -1510.2518274220      4.61E-09 Convergence criterion met
 Total energy in the final basis set = -1510.25182742
   14   -1510.2544293484      8.28E-09 Convergence criterion met
 Total energy in the final basis set = -1510.25442935
   14   -1510.2568363241      5.43E-09 Convergence criterion met
 Total energy in the final basis set = -1510.25683632
   14   -1510.2592707635      9.09E-09 Convergence criterion met
 Total energy in the final basis set = -1510.25927076
   14   -1510.2618675152      4.02E-09 Convergence criterion met
 Total energy in the final basis set = -1510.26186752
   14   -1510.2635952467      2.76E-09 Convergence criterion met
 Total energy in the final basis set = -1510.26359525
   13   -1510.2651416574      3.16E-09 Convergence criterion met
 Total energy in the final basis set = -1510.26514166
   13   -1510.2662662545      5.76E-09 Convergence criterion met
   11   -1510.2768111151      5.87E-09 Convergence criterion met
 Total energy in the final basis set = -1510.27681112
   10   -1510.2768166611      9.65E-09 Convergence criterion met
 Total energy in the final basis set = -1510.27681666
   11   -1510.2768300599      6.43E-09 Convergence criterion met
 Total energy in the final basis set = -1510.27683006
   11   -1510.2768352120      5.07E-09 Convergence criterion met
 Total energy in the final basis set = -1510.27683521
   11   -1510.2768390921      4.57E-09 Convergence criterion met
 Total energy in the final basis set = -1510.27683909
   10   -1510.2768344109      5.33E-09 Convergence criterion met
 Total energy in the final basis set = -1510.27683441

             Standard Nuclear Orientation (Angstroms)
    I     Atom           X                Y                Z
 ----------------------------------------------------------------
    1      O      -1.7693409461    -1.2076567770     1.5036617288
    2      C      -2.9845829561    -0.9474536947     1.3131804693
    3      C      -3.6307401624     0.4808606160     1.2503195805
    4      C      -3.4708834293     1.1595519154    -0.1806901391
    5      C      -2.6543149837     0.2919185114    -1.2205788894
    6      O      -1.3473907183     0.7159540081    -1.6471301306
    7      C      -0.5675762692     1.5351960007    -0.6952942751
    8      C       0.1356653870     0.6494903883     0.3980688929
    9      O       1.1045922714    -0.2848976196    -0.2257371853
   10      C       2.3672370424     0.3467017480    -0.4202399386
   11      C       3.3447558760    -0.6720190892    -1.1011422957
   12      C       4.8687269969    -0.2655224313    -0.9491851091
   13      C       5.1083956372     1.0686638335    -0.1509569277
   14      O       5.4972036935     2.1594865765    -0.6219042082
   15      O      -3.9715051456    -1.9460066124     1.1090467357
   16      O       4.9247537565     0.8112554017     1.2484549766
   17      O       2.6228626325     1.5292401067    -0.0943733802
   18      C       5.0856033733     2.0684134345     2.0099448853
   19      C       3.3311483331    -2.0955836231    -0.3974024975
   20      C       4.0166205124    -3.1351992919    -1.3677780452
   21      C       5.5317528643    -2.7355851348    -1.2183998511
   22      C       5.4323460756    -1.5417676048    -0.1866403518
   23      O       4.3143890804    -1.9417491640     0.6981430668
   24      H       3.0568478252    -0.7557383901    -2.1657884626
   25      H       5.3408447717    -0.1403463418    -1.9394666830
   26      H       2.3397647670    -2.3886816971    -0.0008734146
   27      H       3.8343508620    -4.1641898290    -1.0193102758
   28      H       3.6503093895    -3.0421066127    -2.4025246582
   29      H       6.1274103387    -3.5606683239    -0.7963681711
   30      H       5.9869932550    -2.4240745779    -2.1719462243
   31      H       6.3472427301    -1.3544657084     0.4077577612
   32      O      -3.1387612986    -0.7106259228    -1.7926388881
   33      C      -3.3433131822    -3.2894017634     1.0745475625
   34      C      -5.2100877213     0.4339382510     1.3811867772
   35      C      -5.7437812541     1.9063689068     1.6011693686
   36      C      -5.6327247806     2.4937034065     0.1457678983
   37      C      -4.9977953806     1.2699455710    -0.6236231887
   38      O      -5.6447413548     0.0990151633     0.0062035455
   39      H      -3.1589213314     1.1011976016     2.0338501879
   40      H      -3.0370864877     2.1666045267    -0.0802651970
   41      H      -2.8281925241    -3.5220123465     2.0287706281
   42      H      -5.5848266192    -0.3183595494     2.1011629620
   43      H      -6.7870982816     1.8886178004     1.9537753145
   44      H      -5.1339146320     2.4621364752     2.3313326240
   45      H      -6.6249881924     2.7315705205    -0.2693569114
   46      H      -5.0023052551     3.3956372791     0.0949743295
   47      H      -5.1581907863     1.2575279665    -1.7188686772
   48      H      -2.6124266273    -3.3669389862     0.2443629359
   49      H      -4.1713296515    -4.0030052913     0.9112005640
   50      H       4.9760202150     1.7973236957     3.0761483738
   51      H       4.3058993212     2.8071810770     1.7319903873
   52      H       6.0816654106     2.5273898172     1.8429152744
   53      H       0.6570376480     1.3212421591     1.1127709947
   54      H      -0.6110078635    -0.0018567277     0.9261496821
   55      H      -1.1698475262     2.3216660588    -0.1956066585
   56      H       0.2031289614     2.0392813855    -1.3148399990
 ----------------------------------------------------------------

    9   -1510.2768336483      4.94E-09 Convergence criterion met
 Total energy in the final basis set = -1510.27683365
 Final energy is   -1510.27683364828
 **  OPTIMIZATION CONVERGED  **

                    Orbital Energies (a.u.)
 --------------------------------------------------------------

 Alpha MOs
 -- Occupied --
-18.956 -18.932 -18.931 -18.915 -18.895 -18.894 -18.881 -18.878
-18.874 -18.854 -10.117 -10.103 -10.098 -10.084 -10.075 -10.072
-10.067 -10.066 -10.053 -10.053 -10.052 -10.051 -10.050 -10.045
-10.033 -10.027 -10.027 -10.026 -10.015 -10.014  -1.029  -1.012
 -1.005  -0.992  -0.976  -0.963  -0.951  -0.940  -0.932  -0.918
 -0.772  -0.756  -0.730  -0.719  -0.713  -0.709  -0.694  -0.669
 -0.648  -0.613  -0.607  -0.580  -0.555  -0.545  -0.538  -0.531
 -0.522  -0.507  -0.489  -0.479  -0.464  -0.458  -0.452  -0.442
 -0.436  -0.428  -0.426  -0.423  -0.419  -0.410  -0.402  -0.401
 -0.398  -0.390  -0.381  -0.375  -0.365  -0.360  -0.353  -0.342
 -0.338  -0.337  -0.334  -0.329  -0.324  -0.322  -0.318  -0.314
 -0.311  -0.307  -0.303  -0.299  -0.297  -0.292  -0.283  -0.276
 -0.269  -0.265  -0.252  -0.240  -0.239  -0.235  -0.228  -0.192
 -0.186  -0.170  -0.164  -0.158  -0.153  -0.150  -0.148  -0.138
 -0.134

          Ground-State Mulliken Net Atomic Charges

     Atom                 Charge (a.u.)
  ----------------------------------------
      1 O                    -0.214350
      2 C                     0.216161
      3 C                    -0.079398
      4 C                    -0.084584
      5 C                     0.202245
      6 O                    -0.170794
      7 C                    -0.051091
      8 C                    -0.071980
      9 O                    -0.169012
     10 C                     0.213338
     11 C                    -0.077918
     12 C                    -0.081630
     13 C                     0.212909
     14 O                    -0.220306
     15 O                    -0.153532
     16 O                    -0.171082
     17 O                    -0.217105
     18 C                    -0.127788
     19 C                     0.024325
     20 C                    -0.143954
     21 C                    -0.144463
     22 C                     0.026511
     23 O                    -0.187892
     24 H                     0.086022
     25 H                     0.082166
     26 H                     0.091315
     27 H                     0.077064
     28 H                     0.073396
     29 H                     0.076562
     30 H                     0.072893
     31 H                     0.083777
     32 O                    -0.196965
     33 C                    -0.125980
     34 C                     0.026995
     35 C                    -0.144957
     36 C                    -0.143883
     37 C                     0.027440
     38 O                    -0.181492
     39 H                     0.084134
     40 H                     0.077662
     41 H                     0.091631
     42 H                     0.089135
     43 H                     0.079742
     44 H                     0.072817
     45 H                     0.080063
     46 H                     0.072703
     47 H                     0.088333
     48 H                     0.098226
     49 H                     0.096873
     50 H                     0.086288
     51 H                     0.089803
     52 H                     0.085464
     53 H                     0.087156
     54 H                     0.114885
     55 H                     0.078089
     56 H                     0.094032
  ----------------------------------------
  Sum of atomic charges =    -0.000000

                    Cartesian Multipole Moments
 -----------------------------------------------------------------
    Charge (ESU x 10^10)
                -0.0000
    Dipole Moment (Debye)
         X      -2.0715      Y       0.7100      Z       1.8882
       Tot       2.8915
    Quadrupole Moments (Debye-Ang)
        XX    -162.0890     XY     -15.5072     YY    -152.7729
        XZ     -11.3589     YZ       4.1187     ZZ    -158.5583

 Total job time:  122.58s(wall), 5842.03s(cpu)
        *  Thank you very much for using Q-Chem.  Have a nice day.  *
