 Q-Chem 5.0, Q-Chem, Inc., Pleasanton, CA (2017)
 Q-Chem 5.0.1 for Intel X86 EM64T Linux

User input:
--------------------------------------------------------------
$molecule
0  1
O -3.94934 -3.66094 2.70899
C -3.26408 -4.56952 2.26188
C -3.36658 -6.02376 2.66595
C -4.74346 -6.52967 3.12649
C -5.90306 -5.57224 2.96289
O -7.04367 -6.1357 3.45982
C -7.927 -6.61262 2.43927
C -7.26647 -7.74459 1.65924
O -8.18673 -8.83692 1.50821
C -8.76288 -8.94921 0.28568
C -9.70119 -10.12811 0.1835
C -9.40642 -11.27654 1.15946
C -8.47466 -10.94509 2.30779
O -8.74129 -11.06672 3.49467
O -2.35545 -4.26574 1.29665
O -7.15339 -11.0061 1.96815
O -8.74391 -8.05485 -0.55046
C -6.1379 -11.26806 2.86632
C -11.15851 -9.79314 0.54159
C -12.08983 -10.79515 -0.13635
C -11.77912 -12.04894 0.65641
C -10.83272 -11.47556 1.71966
O -11.27716 -10.15144 1.896
H -9.64165 -10.48172 -0.871
H -9.01743 -12.1905 0.65797
H -11.44863 -8.7518 0.28108
H -13.13095 -10.47509 0.09638
H -11.97483 -10.8906 -1.23752
H -12.72369 -12.41345 1.1178
H -11.29303 -12.86699 0.08185
H -10.84857 -12.12025 2.62579
O -5.98526 -4.87008 1.96112
C -2.14379 -2.99896 0.79368
C -2.8406 -7.038 1.63741
C -2.09958 -8.13329 2.37399
C -3.24138 -8.70139 3.17189
C -4.44864 -7.97864 2.49825
O -3.99365 -7.69079 1.20673
H -2.68397 -6.02843 3.54928
H -4.7313 -6.67992 4.22967
H -1.81694 -2.31448 1.60544
H -2.2033 -6.62499 0.82749
H -1.77943 -8.86741 1.59896
H -1.21794 -7.82557 2.97667
H -3.22097 -9.80636 3.0275
H -3.21623 -8.47228 4.25943
H -5.11493 -8.82517 2.53699
H -3.07506 -2.61199 0.3274
H -1.34899 -3.04263 0.02113
H -5.166 -11.25021 2.33294
H -6.27611 -12.27773 3.30843
H -6.13313 -10.51388 3.6816
H -6.5242 -7.55925 0.85473
H -6.86284 -8.17078 2.55285
H -8.30263 -5.81282 1.76411
H -8.81377 -7.0143 2.97937
$end

$opt
CONSTRAINT
tors           1           2           3           4     +29.498
tors           3           4           5           6    -177.637
tors           4           5           6           7    -103.758
tors           5           6           7           8     +64.088
tors           6           7           8           9    +133.389
tors           7           8           9          10    +103.073
tors           8           9          10          11    +179.054
tors           9          10          11          12     -25.025
tors          11          12          13          14    +122.758
ENDCONSTRAINT
$end

$rem
JOBTYPE                   OPT
METHOD                    B3LYP
DFT_D                     d3_op
BASIS                     STO-3G
GEOM_OPT_MAX_CYCLES       100
GEOM_OPT_TOL_GRADIENT     300
GEOM_OPT_TOL_DISPLACEMENT 1200
GEOM_OPT_TOL_ENERGY       100
SYMMETRY                  False
THRESH                    12
SCF_CONVERGENCE           8
MAX_SUB_FILE_NUM          128
MEM_STATIC                400
MEM_TOTAL                 4000
$end
--------------------------------------------------------------

   16   -1510.0249814560      3.39E-09 Convergence criterion met
 Total energy in the final basis set = -1510.02498146
   14   -1510.1070094417      4.81E-09 Convergence criterion met
 Total energy in the final basis set = -1510.10700944
   14   -1510.1553396686      6.54E-09 Convergence criterion met
 Total energy in the final basis set = -1510.15533967
   14   -1510.1883275653      7.22E-09 Convergence criterion met
 Total energy in the final basis set = -1510.18832757
   14   -1510.2072623725      3.75E-09 Convergence criterion met
 Total energy in the final basis set = -1510.20726237
   14   -1510.2185949406      5.78E-09 Convergence criterion met
 Total energy in the final basis set = -1510.21859494
   14   -1510.2264007625      4.55E-09 Convergence criterion met
 Total energy in the final basis set = -1510.22640076
   13   -1510.2317361507      6.99E-09 Convergence criterion met
   11   -1510.2404956365      8.82E-09 Convergence criterion met
 Total energy in the final basis set = -1510.24049564
   11   -1510.2405533604      9.98E-09 Convergence criterion met
 Total energy in the final basis set = -1510.24055336
   11   -1510.2405858835      5.56E-09 Convergence criterion met
 Total energy in the final basis set = -1510.24058588
   11   -1510.2406062911      3.35E-09 Convergence criterion met
 Total energy in the final basis set = -1510.24060629
   11   -1510.2406147753      2.47E-09 Convergence criterion met
 Total energy in the final basis set = -1510.24061478
   10   -1510.2406179325      9.82E-09 Convergence criterion met
 Total energy in the final basis set = -1510.24061793

             Standard Nuclear Orientation (Angstroms)
    I     Atom           X                Y                Z
 ----------------------------------------------------------------
    1      O       5.3263341088    -1.7451271776    -1.4139754958
    2      C       5.3405989105    -0.8674421778    -0.5250831929
    3      C       4.4762023580     0.4420555582    -0.4367212128
    4      C       3.0377658181     0.4085531645    -1.1033900999
    5      C       2.4104434031    -1.0533437676    -0.9429142751
    6      O       1.1019449690    -1.3668757536    -1.5208889089
    7      C      -0.0232233956    -1.4342130759    -0.5694716889
    8      C      -0.4922834562    -0.1594001772     0.2380735364
    9      O      -1.9699935094    -0.0630450233     0.1587892866
   10      C      -2.5832193873    -0.5003050273     1.3780567190
   11      C      -4.1375272469    -0.3580702869     1.2559417059
   12      C      -4.6573387876     0.7241855832     0.2209785613
   13      C      -3.5682775234     1.6905579501    -0.3718587376
   14      O      -3.2862435154     1.8692405516    -1.5750876157
   15      O       6.2272655396    -0.8863285516     0.6013019880
   16      O      -3.0083098744     2.4498458915     0.7125251996
   17      O      -1.9482673510    -0.9425827452     2.3598837305
   18      C      -1.9970320285     3.3948569292     0.1907056175
   19      C      -4.7230525711    -1.6830902150     0.5877616138
   20      C      -6.2964172480    -1.6863368851     0.7426234581
   21      C      -6.7195683309    -0.6671073558    -0.3795267983
   22      C      -5.3069698326    -0.1945492365    -0.8972946110
   23      O      -4.5017073529    -1.4383194252    -0.8541547855
   24      H      -4.5464976702    -0.1961402127     2.2686841530
   25      H      -5.4249660970     1.3550653804     0.7059711003
   26      H      -4.2182817782    -2.6153239547     0.9085103421
   27      H      -6.7001021151    -2.6932130317     0.5515960086
   28      H      -6.6103799090    -1.3648573963     1.7486715016
   29      H      -7.2776462789    -1.1665986254    -1.1875745367
   30      H      -7.3261515184     0.1673348117     0.0070509816
   31      H      -5.2801032341     0.2486567079    -1.9118761361
   32      O       2.9838643525    -1.9277600660    -0.2543069178
   33      C       7.0736647589    -2.1003408366     0.5542103099
   34      C       4.1594950797     1.0470400531     1.0041721690
   35      C       4.2676001889     2.6086964669     0.8407928639
   36      C       3.0795744157     2.8481246549    -0.1624780425
   37      C       2.3418540160     1.4445406495    -0.1291637837
   38      O       2.6977604910     0.8636830037     1.1895379959
   39      H       5.0709781337     1.1953515795    -0.9887379556
   40      H       3.0410986365     0.7289222718    -2.1613374691
   41      H       7.7150300653    -2.1177680426    -0.3507160771
   42      H       4.7285232723     0.5913522771     1.8367801106
   43      H       4.0859205036     3.1111117173     1.8047902541
   44      H       5.2423499239     2.9346649455     0.4443388437
   45      H       2.4008258360     3.6438029127     0.1824580547
   46      H       3.4276991336     3.1006093851    -1.1771192272
   47      H       1.2537996422     1.5393317567    -0.2473262494
   48      H       6.4599378641    -3.0240168061     0.5673047750
   49      H       7.7099871329    -2.0641854174     1.4575169302
   50      H      -1.5408180106     3.8772465027     1.0748687402
   51      H      -2.4559927929     4.1704660365    -0.4566775299
   52      H      -1.2123595160     2.8744216143    -0.3947162581
   53      H      -0.1521229698    -0.1847823745     1.2932092310
   54      H      -0.1432783551     0.7584374505    -0.2646574032
   55      H       0.1471933428    -2.2561348139     0.1644401268
   56      H      -0.8802127572    -1.7323058889    -1.2113668644
 ----------------------------------------------------------------

    9   -1510.2406184330      5.21E-09 Convergence criterion met
 Total energy in the final basis set = -1510.24061843
 Final energy is   -1510.24061843300
 **  OPTIMIZATION CONVERGED  **

                    Orbital Energies (a.u.)
 --------------------------------------------------------------

 Alpha MOs
 -- Occupied --
-18.942 -18.929 -18.928 -18.902 -18.899 -18.891 -18.888 -18.880
-18.869 -18.867 -10.105 -10.105 -10.099 -10.097 -10.071 -10.069
-10.066 -10.065 -10.062 -10.061 -10.060 -10.058 -10.045 -10.041
-10.037 -10.036 -10.027 -10.023 -10.022 -10.020  -1.020  -1.009
 -1.005  -1.000  -0.975  -0.971  -0.943  -0.932  -0.932  -0.926
 -0.767  -0.765  -0.728  -0.724  -0.709  -0.708  -0.699  -0.663
 -0.658  -0.616  -0.600  -0.587  -0.552  -0.547  -0.543  -0.538
 -0.517  -0.507  -0.491  -0.473  -0.464  -0.462  -0.455  -0.446
 -0.440  -0.432  -0.426  -0.416  -0.409  -0.407  -0.405  -0.400
 -0.392  -0.384  -0.372  -0.370  -0.365  -0.363  -0.360  -0.347
 -0.345  -0.343  -0.338  -0.335  -0.331  -0.324  -0.323  -0.312
 -0.310  -0.306  -0.306  -0.302  -0.295  -0.290  -0.289  -0.280
 -0.273  -0.252  -0.251  -0.247  -0.240  -0.236  -0.231  -0.187
 -0.174  -0.173  -0.161  -0.159  -0.153  -0.149  -0.148  -0.145
 -0.143

          Ground-State Mulliken Net Atomic Charges

     Atom                 Charge (a.u.)
  ----------------------------------------
      1 O                    -0.213819
      2 C                     0.215565
      3 C                    -0.079919
      4 C                    -0.075238
      5 C                     0.218707
      6 O                    -0.193017
      7 C                    -0.048629
      8 C                    -0.055299
      9 O                    -0.166579
     10 C                     0.212484
     11 C                    -0.077694
     12 C                    -0.079674
     13 C                     0.219134
     14 O                    -0.217053
     15 O                    -0.173696
     16 O                    -0.176501
     17 O                    -0.212274
     18 C                    -0.127772
     19 C                     0.025027
     20 C                    -0.144240
     21 C                    -0.143277
     22 C                     0.024419
     23 O                    -0.189169
     24 H                     0.087794
     25 H                     0.083639
     26 H                     0.083327
     27 H                     0.078801
     28 H                     0.074163
     29 H                     0.078573
     30 H                     0.073365
     31 H                     0.091294
     32 O                    -0.175000
     33 C                    -0.128138
     34 C                     0.023618
     35 C                    -0.140551
     36 C                    -0.145325
     37 C                     0.019749
     38 O                    -0.193849
     39 H                     0.081643
     40 H                     0.088057
     41 H                     0.087178
     42 H                     0.094657
     43 H                     0.078306
     44 H                     0.075216
     45 H                     0.077268
     46 H                     0.074792
     47 H                     0.078369
     48 H                     0.092843
     49 H                     0.088852
     50 H                     0.088539
     51 H                     0.086677
     52 H                     0.083486
     53 H                     0.105487
     54 H                     0.083444
     55 H                     0.082922
     56 H                     0.099318
  ----------------------------------------
  Sum of atomic charges =     0.000000

                    Cartesian Multipole Moments
 -----------------------------------------------------------------
    Charge (ESU x 10^10)
                 0.0000
    Dipole Moment (Debye)
         X      -0.4409      Y       3.1240      Z       1.1729
       Tot       3.3659
    Quadrupole Moments (Debye-Ang)
        XX    -134.3630     XY       7.3799     YY    -156.3289
        XZ      -3.1198     YZ      -3.7796     ZZ    -170.1796

 Total job time:  66.13s(wall), 3148.26s(cpu)
        *  Thank you very much for using Q-Chem.  Have a nice day.  *
