 Q-Chem 5.0, Q-Chem, Inc., Pleasanton, CA (2017)
 Q-Chem 5.0.1 for Intel X86 EM64T Linux

User input:
--------------------------------------------------------------
$molecule
0  1
O 5.3263341088 -1.7451271776 -1.4139754958
C 5.3405989105 -0.8674421778 -0.5250831929
C 4.476202358 0.4420555582 -0.4367212128
C 3.0377658181 0.4085531645 -1.1033900999
C 2.4104434031 -1.0533437676 -0.9429142751
O 1.101944969 -1.3668757536 -1.5208889089
C -0.0232233956 -1.4342130759 -0.5694716889
C -0.4922834562 -0.1594001772 0.2380735364
O -1.9699935094 -0.0630450233 0.1587892866
C -2.5832193873 -0.5003050273 1.378056719
C -4.1375272469 -0.3580702869 1.2559417059
C -4.6573387876 0.7241855832 0.2209785613
C -3.5682775234 1.6905579501 -0.3718587376
O -3.2862435154 1.8692405516 -1.5750876157
O 6.2272655396 -0.8863285516 0.601301988
O -3.0083098744 2.4498458915 0.7125251996
O -1.948267351 -0.9425827452 2.3598837305
C -1.9970320285 3.3948569292 0.1907056175
C -4.7230525711 -1.683090215 0.5877616138
C -6.296417248 -1.6863368851 0.7426234581
C -6.7195683309 -0.6671073558 -0.3795267983
C -5.3069698326 -0.1945492365 -0.897294611
O -4.5017073529 -1.4383194252 -0.8541547855
H -4.5464976702 -0.1961402127 2.268684153
H -5.424966097 1.3550653804 0.7059711003
H -4.2182817782 -2.6153239547 0.9085103421
H -6.7001021151 -2.6932130317 0.5515960086
H -6.610379909 -1.3648573963 1.7486715016
H -7.2776462789 -1.1665986254 -1.1875745367
H -7.3261515184 0.1673348117 0.0070509816
H -5.2801032341 0.2486567079 -1.9118761361
O 2.9838643525 -1.927760066 -0.2543069178
C 7.0736647589 -2.1003408366 0.5542103099
C 4.1594950797 1.0470400531 1.004172169
C 4.2676001889 2.6086964669 0.8407928639
C 3.0795744157 2.8481246549 -0.1624780425
C 2.341854016 1.4445406495 -0.1291637837
O 2.697760491 0.8636830037 1.1895379959
H 5.0709781337 1.1953515795 -0.9887379556
H 3.0410986365 0.7289222718 -2.1613374691
H 7.7150300653 -2.1177680426 -0.3507160771
H 4.7285232723 0.5913522771 1.8367801106
H 4.0859205036 3.1111117173 1.8047902541
H 5.2423499239 2.9346649455 0.4443388437
H 2.400825836 3.6438029127 0.1824580547
H 3.4276991336 3.1006093851 -1.1771192272
H 1.2537996422 1.5393317567 -0.2473262494
H 6.4599378641 -3.0240168061 0.567304775
H 7.7099871329 -2.0641854174 1.4575169302
H -1.5408180106 3.8772465027 1.0748687402
H -2.4559927929 4.1704660365 -0.4566775299
H -1.212359516 2.8744216143 -0.3947162581
H -0.1521229698 -0.1847823745 1.293209231
H -0.1432783551 0.7584374505 -0.2646574032
H 0.1471933428 -2.2561348139 0.1644401268
H -0.8802127572 -1.7323058889 -1.2113668644
$end

$rem
JOBTYPE                   OPT
METHOD                    B3LYP
DFT_D                     d3_op
BASIS                     STO-3G
GEOM_OPT_MAX_CYCLES       100
GEOM_OPT_TOL_GRADIENT     300
GEOM_OPT_TOL_DISPLACEMENT 1200
GEOM_OPT_TOL_ENERGY       100
SYMMETRY                  False
THRESH                    12
SCF_CONVERGENCE           8
MAX_SUB_FILE_NUM          128
MEM_STATIC                400
MEM_TOTAL                 4000
$end
--------------------------------------------------------------

   16   -1510.2404926880      5.95E-09 Convergence criterion met
 Total energy in the final basis set = -1510.24049269
   14   -1510.2475081438      3.55E-09 Convergence criterion met
 Total energy in the final basis set = -1510.24750814
   13   -1510.2565001544      9.56E-09 Convergence criterion met
 Total energy in the final basis set = -1510.25650015
   14   -1510.2644000092      5.53E-09 Convergence criterion met
 Total energy in the final basis set = -1510.26440001
   14   -1510.2706347174      5.20E-09 Convergence criterion met
 Total energy in the final basis set = -1510.27063472
   14   -1510.2750336603      5.39E-09 Convergence criterion met
 Total energy in the final basis set = -1510.27503366
   14   -1510.2781218915      2.74E-09 Convergence criterion met
 Total energy in the final basis set = -1510.27812189
   14   -1510.2800180698      2.67E-09 Convergence criterion met
   12   -1510.2936596383      6.55E-09 Convergence criterion met
 Total energy in the final basis set = -1510.29365964
   11   -1510.2936654509      5.75E-09 Convergence criterion met
 Total energy in the final basis set = -1510.29366545
   11   -1510.2936808986      8.63E-09 Convergence criterion met
 Total energy in the final basis set = -1510.29368090
   11   -1510.2936816353      5.07E-09 Convergence criterion met
 Total energy in the final basis set = -1510.29368164
   10   -1510.2936840662      7.40E-09 Convergence criterion met
 Total energy in the final basis set = -1510.29368407
   11   -1510.2936817953      5.07E-09 Convergence criterion met
 Total energy in the final basis set = -1510.29368180

             Standard Nuclear Orientation (Angstroms)
    I     Atom           X                Y                Z
 ----------------------------------------------------------------
    1      O       4.1897250507    -1.3415743844     1.6851676929
    2      C       3.7682405043    -0.4922960762     0.8686210419
    3      C       4.5602625920     0.1074955276    -0.3405228787
    4      C       3.7824461350     0.0770400613    -1.7268806172
    5      C       2.3535202557    -0.5662360407    -1.6061220573
    6      O       1.3609308906     0.3864433845    -2.0122955344
    7      C       0.0032143421    -0.1506372075    -1.7638904018
    8      C      -0.6598924910     0.7275025855    -0.6412711981
    9      O      -2.0160258537     0.2467702631    -0.2827167504
   10      C      -1.9564437156    -0.9158373852     0.5491675202
   11      C      -3.4218104391    -1.3492221937     0.8869686626
   12      C      -4.2883783032    -0.1874134956     1.5305174862
   13      C      -3.4967815398     1.1519462195     1.7398638200
   14      O      -3.8336430785     2.3006456074     1.3862377549
   15      O       2.4701355044     0.1080791947     0.9195614350
   16      O      -2.2952884764     0.8479917961     2.4641059550
   17      O      -0.9045347619    -1.4974303061     0.9004921279
   18      C      -1.4989968611     2.0791967837     2.6671167105
   19      C      -4.2687966907    -1.6428656697    -0.4292905721
   20      C      -5.5923625863    -2.3994931706    -0.0094304145
   21      C      -6.4411765323    -1.2191049917     0.5950523436
   22      C      -5.4312707327    -0.0154674453     0.4475790543
   23      O      -4.7421046450    -0.3012080521    -0.8329251539
   24      H      -3.3679890592    -2.2330363483     1.5459743038
   25      H      -4.6972708867    -0.5037866009     2.5080296934
   26      H      -3.6944886598    -2.1162390173    -1.2492906239
   27      H      -6.0802130148    -2.8400904316    -0.8934804442
   28      H      -5.3962768465    -3.1998660191     0.7218245215
   29      H      -7.3516849434    -1.0324677556     0.0033572207
   30      H      -6.7299016726    -1.3958829200     1.6434282161
   31      H      -5.8792245749     0.9971781051     0.4278733007
   32      O       2.0941096764    -1.7400693737    -1.2591742211
   33      C       1.6680723950    -0.4755307490     2.0245910540
   34      C       4.8011241235     1.6736775140    -0.1759573063
   35      C       5.9559278763     2.1015802077    -1.1651657198
   36      C       5.2027819957     2.0521931377    -2.5462364794
   37      C       3.7538852834     1.6192325935    -2.0906354433
   38      O       3.5898976666     2.2770109954    -0.7733248328
   39      H       5.5165201876    -0.4402312332    -0.4082114059
   40      H       4.3522165822    -0.5077481902    -2.4725601582
   41      H       2.2640909643    -1.2551958905     2.5384650105
   42      H       4.9269221760     2.0109744858     0.8711724713
   43      H       6.3044555503     3.1199934910    -0.9304480908
   44      H       6.8159387754     1.4144383646    -1.1230971226
   45      H       5.1746118041     3.0430318810    -3.0267411676
   46      H       5.6492723439     1.3315942542    -3.2498801231
   47      H       2.9318955161     1.9079387221    -2.7721665679
   48      H       0.7341429396    -0.9094138482     1.5966258480
   49      H       1.4148828466     0.3319630316     2.7391751356
   50      H      -0.5513561833     1.7569105897     3.1361923902
   51      H      -2.0192316278     2.7938748092     3.3372339353
   52      H      -1.2845527437     2.5898847383     1.7067535452
   53      H       0.0120396973     0.7441240721     0.2413005551
   54      H      -0.8037061277     1.7641432737    -1.0059741693
   55      H       0.0957682726    -1.2079186809    -1.4318759422
   56      H      -0.5815534863    -0.0909282515    -2.7047167281
 ----------------------------------------------------------------

    9   -1510.2936812391      6.88E-09 Convergence criterion met
 Total energy in the final basis set = -1510.29368124
 Final energy is   -1510.29368123909
 **  OPTIMIZATION CONVERGED  **

                    Orbital Energies (a.u.)
 --------------------------------------------------------------

 Alpha MOs
 -- Occupied --
-18.942 -18.936 -18.931 -18.924 -18.890 -18.887 -18.885 -18.880
-18.872 -18.869 -10.110 -10.103 -10.099 -10.093 -10.072 -10.067
-10.065 -10.064 -10.060 -10.060 -10.057 -10.042 -10.041 -10.038
-10.035 -10.034 -10.023 -10.022 -10.020 -10.018  -1.022  -1.012
 -1.009  -1.001  -0.973  -0.969  -0.945  -0.940  -0.935  -0.928
 -0.767  -0.762  -0.730  -0.723  -0.713  -0.707  -0.693  -0.665
 -0.647  -0.616  -0.599  -0.583  -0.549  -0.544  -0.540  -0.536
 -0.515  -0.509  -0.486  -0.480  -0.469  -0.466  -0.449  -0.438
 -0.434  -0.433  -0.428  -0.418  -0.413  -0.407  -0.405  -0.397
 -0.388  -0.378  -0.377  -0.371  -0.362  -0.357  -0.354  -0.350
 -0.345  -0.337  -0.335  -0.333  -0.329  -0.329  -0.317  -0.312
 -0.309  -0.308  -0.304  -0.298  -0.295  -0.291  -0.290  -0.278
 -0.273  -0.257  -0.256  -0.245  -0.238  -0.237  -0.232  -0.189
 -0.181  -0.171  -0.165  -0.160  -0.158  -0.154  -0.148  -0.146
 -0.142

          Ground-State Mulliken Net Atomic Charges

     Atom                 Charge (a.u.)
  ----------------------------------------
      1 O                    -0.213304
      2 C                     0.210754
      3 C                    -0.079261
      4 C                    -0.077463
      5 C                     0.216334
      6 O                    -0.172071
      7 C                    -0.057617
      8 C                    -0.050733
      9 O                    -0.167381
     10 C                     0.220153
     11 C                    -0.078369
     12 C                    -0.078319
     13 C                     0.215492
     14 O                    -0.209171
     15 O                    -0.175086
     16 O                    -0.174609
     17 O                    -0.213190
     18 C                    -0.128923
     19 C                     0.026084
     20 C                    -0.143819
     21 C                    -0.143773
     22 C                     0.024690
     23 O                    -0.185787
     24 H                     0.087065
     25 H                     0.085496
     26 H                     0.082670
     27 H                     0.078681
     28 H                     0.074362
     29 H                     0.078803
     30 H                     0.073572
     31 H                     0.091248
     32 O                    -0.215748
     33 C                    -0.153263
     34 C                     0.025928
     35 C                    -0.143729
     36 C                    -0.144640
     37 C                     0.024395
     38 O                    -0.187634
     39 H                     0.085363
     40 H                     0.084614
     41 H                     0.097357
     42 H                     0.082429
     43 H                     0.077643
     44 H                     0.074163
     45 H                     0.077473
     46 H                     0.073005
     47 H                     0.092039
     48 H                     0.110039
     49 H                     0.071913
     50 H                     0.090407
     51 H                     0.088740
     52 H                     0.091738
     53 H                     0.097572
     54 H                     0.093234
     55 H                     0.105168
     56 H                     0.085267
  ----------------------------------------
  Sum of atomic charges =     0.000000

                    Cartesian Multipole Moments
 -----------------------------------------------------------------
    Charge (ESU x 10^10)
                 0.0000
    Dipole Moment (Debye)
         X      -0.6972      Y       0.3258      Z      -0.1996
       Tot       0.7950
    Quadrupole Moments (Debye-Ang)
        XX    -145.8463     XY      16.6352     YY    -165.9773
        XZ     -13.3438     YZ       3.5923     ZZ    -153.5833

 Total job time:  157.32s(wall), 7500.11s(cpu)
        *  Thank you very much for using Q-Chem.  Have a nice day.  *
