 Q-Chem 5.0, Q-Chem, Inc., Pleasanton, CA (2017)
 Q-Chem 5.0.1 for Intel X86 EM64T Linux

User input:
--------------------------------------------------------------
$molecule
0  1
O -4.0504844206 -1.3623757058 2.1529667326
C -4.5255262112 -0.9892962612 1.0588862018
C -4.6473165141 0.4869985963 0.5340689149
C -3.3019491916 1.300365832 0.2829934677
C -1.9378058228 0.5196899492 0.1380301894
O -1.8518985542 -0.5557729164 1.074020689
C -0.4934917704 -1.1490859388 1.0728739258
C 0.4439153125 -0.353557649 2.0649259493
O 1.8813101639 -0.7100065398 1.9598392033
C 2.4494784012 -0.30763727 0.7027023566
C 3.9784596339 -0.0525315751 0.918387073
C 4.8722146315 -0.4862054268 -0.3153902178
C 4.0555386424 -1.1503770704 -1.4819149302
O 3.9828610481 -0.7707920188 -2.6690021397
O -5.0329188966 -1.8945698418 0.0699632338
O 3.4419077271 -2.3423004796 -0.9705366391
O 1.8073627496 -0.1260966366 -0.356161696
C 2.5652123365 -2.9393156284 -2.0028318235
C 4.2704955039 1.5125352245 0.9548473669
C 5.7324080147 1.7304100949 1.5142988538
C 6.6003493647 1.3208636576 0.2664859225
C 5.4772326655 0.9078774543 -0.7622340316
O 4.3821552993 1.8661587517 -0.4764637501
H 4.2899269019 -0.5489872384 1.8537096782
H 5.6596612022 -1.1928923804 0.0046337472
H 3.4829764831 2.1167877048 1.4458420427
H 5.8867532708 2.7866005298 1.7864982613
H 5.9347385707 1.1042362743 2.3980283466
H 7.1773327528 2.1758865507 -0.1200547892
H 7.2950898343 0.4933391326 0.4816181293
H 5.7568077305 0.9520980241 -1.8327630313
O -1.0274580865 0.8238942219 -0.6641199226
C -4.9036954721 -3.2886378597 0.5514342058
C -5.379016396 0.6681734377 -0.8669186949
C -6.0430182183 2.100870881 -0.8758750534
C -4.7686346166 3.0170034817 -0.9959277609
C -3.6241106462 1.9377937915 -1.1338313543
O -4.2743916054 0.8085043313 -1.8414140467
H -5.2164247719 1.0231554943 1.3171998588
H -3.1648651081 2.066989112 1.0684752823
H -5.4900305083 -3.4589090853 1.4777114296
H -6.0417868733 -0.1729053642 -1.1452212264
H -6.7008086497 2.2118424288 -1.7527531658
H -6.6310075062 2.2989600445 0.0346482617
H -4.8093847676 3.6538557585 -1.8935330538
H -4.6235698852 3.6605863084 -0.1133498093
H -2.7144358691 2.2620601983 -1.6762759691
H -3.8455734772 -3.5528614588 0.7531855416
H -5.2980348876 -3.9288778628 -0.2590384248
H 2.2031094476 -3.8962003054 -1.5838368574
H 3.112835935 -3.1282408212 -2.9484264461
H 1.7006704745 -2.278375861 -2.2207315301
H 0.3097973677 0.7331022302 1.8688390169
H 0.1656238571 -0.5632892273 3.117174489
H -0.0367319452 -1.080261202 0.0615748799
H -0.6061736493 -2.2037237884 1.3907703217
$end

$rem
JOBTYPE                   OPT
METHOD                    B3LYP
DFT_D                     d3_op
BASIS                     STO-3G
GEOM_OPT_MAX_CYCLES       100
GEOM_OPT_TOL_GRADIENT     300
GEOM_OPT_TOL_DISPLACEMENT 1200
GEOM_OPT_TOL_ENERGY       100
SYMMETRY                  False
THRESH                    12
SCF_CONVERGENCE           8
MAX_SUB_FILE_NUM          128
MEM_STATIC                400
MEM_TOTAL                 4000
$end
--------------------------------------------------------------

   16   -1510.2714010512      3.43E-09 Convergence criterion met
 Total energy in the final basis set = -1510.27140105
   14   -1510.2745874301      9.32E-09 Convergence criterion met
 Total energy in the final basis set = -1510.27458743
   15   -1510.2773582087      2.78E-09 Convergence criterion met
 Total energy in the final basis set = -1510.27735821
   15   -1510.2804316043      3.37E-09 Convergence criterion met
 Total energy in the final basis set = -1510.28043160
   15   -1510.2820737370      4.41E-09 Convergence criterion met
 Total energy in the final basis set = -1510.28207374
   13   -1510.2837171608      3.17E-09 Convergence criterion met
 Total energy in the final basis set = -1510.28371716
   14   -1510.2850702485      5.84E-09 Convergence criterion met
 Total energy in the final basis set = -1510.28507025
   13   -1510.2863688692      8.39E-09 Convergence criterion met
   11   -1510.2939992202      9.27E-09 Convergence criterion met
 Total energy in the final basis set = -1510.29399922
   11   -1510.2940471352      4.46E-09 Convergence criterion met
 Total energy in the final basis set = -1510.29404714
   11   -1510.2940498118      5.38E-09 Convergence criterion met
 Total energy in the final basis set = -1510.29404981
   10   -1510.2940472869      1.00E-08 Convergence criterion met
 Total energy in the final basis set = -1510.29404729
   10   -1510.2940585043      7.07E-09 Convergence criterion met
 Total energy in the final basis set = -1510.29405850
    9   -1510.2940502750      4.52E-09 Convergence criterion met
 Total energy in the final basis set = -1510.29405028

             Standard Nuclear Orientation (Angstroms)
    I     Atom           X                Y                Z
 ----------------------------------------------------------------
    1      O      -4.3257234083    -2.2893067444     1.3160436598
    2      C      -4.0326345069    -1.3972222706     0.4920403721
    3      C      -4.7071656747     0.0045297306     0.3245367929
    4      C      -3.6742438474     1.2016131658     0.1966300379
    5      C      -2.1747207459     0.7513316576     0.3047721700
    6      O      -2.0039678152     0.0853607549     1.5610059671
    7      C      -0.6139773605    -0.4069471920     1.7224405216
    8      C       0.3729833418     0.7391955236     2.1528672119
    9      O       1.7397338805     0.1716635691     2.2141915196
   10      C       2.5587603461     0.7433665806     1.1782599990
   11      C       3.9381737028     0.0087549977     1.2008060818
   12      C       4.2593888695    -0.7665649281    -0.1480972089
   13      C       3.1786036106    -0.5826591468    -1.2730983364
   14      O       3.3819541586    -0.1880755738    -2.4417471747
   15      O      -3.0098099822    -1.5266649946    -0.5064130417
   16      O       1.9002749940    -0.9622473375    -0.7540226200
   17      O       2.1971201750     1.6832876143     0.4374081832
   18      C       0.8393691730    -0.7421986015    -1.7706429457
   19      C       5.1598455708     1.0276988016     1.2490688387
   20      C       6.4479317376     0.2267558150     1.6896915730
   21      C       6.7707966311    -0.5739500278     0.3731059473
   22      C       5.6154283074    -0.0747985616    -0.5795903993
   23      O       5.4118775748     1.3365668725    -0.1752785654
   24      H       3.9418096829    -0.6776392973     2.0654402338
   25      H       4.3852133157    -1.8480152782     0.0453183773
   26      H       4.9607046106     1.9569324042     1.8175785887
   27      H       7.2620646922     0.9216066202     1.9501753237
   28      H       6.2543520168    -0.4306246504     2.5523439411
   29      H       7.7552427231    -0.2974492574    -0.0363780034
   30      H       6.7431380249    -1.6651643870     0.5217655560
   31      H       5.8184729331    -0.1377222761    -1.6663496006
   32      O      -1.2628383143     0.9723134939    -0.5224554650
   33      C      -2.3414928265    -2.8414454966    -0.3866274748
   34      C      -5.4582933821     0.1242525778    -1.0752398524
   35      C      -6.4021413847     1.3911621926    -1.0290751132
   36      C      -5.3561815211     2.5583126228    -1.1797007588
   37      C      -4.0058804397     1.7458288685    -1.2531754534
   38      O      -4.3781914677     0.5234433221    -2.0038944562
   39      H      -5.3978225706     0.1501457665     1.1732977236
   40      H      -3.8632496117     1.9632828678     0.9752814241
   41      H      -3.0232502538    -3.6697623365    -0.6690034001
   42      H      -5.9412313540    -0.8112437261    -1.4186129712
   43      H      -7.1124633844     1.3718212733    -1.8708608740
   44      H      -6.9712383468     1.4493081373    -0.0874966898
   45      H      -5.5157487425     3.1265375151    -2.1100178894
   46      H      -5.3747539368     3.2588593136    -0.3296639971
   47      H      -3.1548650320     2.2564836548    -1.7445814266
   48      H      -1.9760784805    -3.0223829356     0.6443302965
   49      H      -1.4866372504    -2.8137824795    -1.0867790819
   50      H       0.3896594625    -1.7205659861    -2.0307984022
   51      H       1.2876810629    -0.2877064471    -2.6756544605
   52      H       0.0645858740    -0.0708873780    -1.3329953349
   53      H       0.3658623525     1.5590280501     1.4010921596
   54      H       0.1038941556     1.1312398516     3.1549678921
   55      H      -0.2388433040    -0.8670805694     0.7850651075
   56      H      -0.6654399084    -1.1834341361     2.5118822850
 ----------------------------------------------------------------

    9   -1510.2940501487      5.33E-09 Convergence criterion met
 Total energy in the final basis set = -1510.29405015
 Final energy is   -1510.29405014872
 **  OPTIMIZATION CONVERGED  **

                    Orbital Energies (a.u.)
 --------------------------------------------------------------

 Alpha MOs
 -- Occupied --
-18.942 -18.938 -18.930 -18.925 -18.890 -18.888 -18.885 -18.878
-18.874 -18.872 -10.112 -10.102 -10.098 -10.095 -10.075 -10.067
-10.065 -10.064 -10.060 -10.059 -10.055 -10.043 -10.041 -10.037
-10.036 -10.035 -10.023 -10.022 -10.019 -10.018  -1.023  -1.012
 -1.010  -1.002  -0.973  -0.968  -0.947  -0.939  -0.935  -0.930
 -0.768  -0.762  -0.730  -0.723  -0.712  -0.706  -0.696  -0.664
 -0.649  -0.620  -0.599  -0.583  -0.549  -0.543  -0.539  -0.535
 -0.516  -0.507  -0.487  -0.477  -0.471  -0.458  -0.449  -0.448
 -0.436  -0.432  -0.428  -0.420  -0.413  -0.408  -0.407  -0.398
 -0.390  -0.380  -0.374  -0.367  -0.363  -0.361  -0.356  -0.353
 -0.346  -0.337  -0.335  -0.333  -0.329  -0.325  -0.324  -0.313
 -0.308  -0.307  -0.304  -0.302  -0.297  -0.290  -0.285  -0.278
 -0.270  -0.259  -0.254  -0.245  -0.241  -0.237  -0.232  -0.191
 -0.180  -0.173  -0.166  -0.161  -0.158  -0.154  -0.150  -0.146
 -0.142

          Ground-State Mulliken Net Atomic Charges

     Atom                 Charge (a.u.)
  ----------------------------------------
      1 O                    -0.211577
      2 C                     0.211969
      3 C                    -0.078845
      4 C                    -0.077917
      5 C                     0.224483
      6 O                    -0.173853
      7 C                    -0.051663
      8 C                    -0.059316
      9 O                    -0.174235
     10 C                     0.213498
     11 C                    -0.079108
     12 C                    -0.077940
     13 C                     0.213794
     14 O                    -0.209821
     15 O                    -0.168904
     16 O                    -0.179845
     17 O                    -0.210145
     18 C                    -0.152966
     19 C                     0.025876
     20 C                    -0.143668
     21 C                    -0.144443
     22 C                     0.024501
     23 O                    -0.186005
     24 H                     0.085944
     25 H                     0.084029
     26 H                     0.083403
     27 H                     0.078038
     28 H                     0.073129
     29 H                     0.078369
     30 H                     0.072747
     31 H                     0.091473
     32 O                    -0.210852
     33 C                    -0.128368
     34 C                     0.025906
     35 C                    -0.143802
     36 C                    -0.143752
     37 C                     0.024819
     38 O                    -0.185631
     39 H                     0.086312
     40 H                     0.085917
     41 H                     0.088709
     42 H                     0.083103
     43 H                     0.078850
     44 H                     0.074168
     45 H                     0.079290
     46 H                     0.073576
     47 H                     0.091986
     48 H                     0.089826
     49 H                     0.091012
     50 H                     0.071812
     51 H                     0.099102
     52 H                     0.111371
     53 H                     0.105162
     54 H                     0.083553
     55 H                     0.096900
     56 H                     0.090030
  ----------------------------------------
  Sum of atomic charges =    -0.000000

                    Cartesian Multipole Moments
 -----------------------------------------------------------------
    Charge (ESU x 10^10)
                -0.0000
    Dipole Moment (Debye)
         X      -1.1804      Y      -1.1633      Z       2.5151
       Tot       3.0121
    Quadrupole Moments (Debye-Ang)
        XX    -145.4485     XY     -16.5167     YY    -157.6670
        XZ      10.3442     YZ       6.9542     ZZ    -165.2791

 Total job time:  101.87s(wall), 4858.18s(cpu)
        *  Thank you very much for using Q-Chem.  Have a nice day.  *
