 Q-Chem 5.0, Q-Chem, Inc., Pleasanton, CA (2017)
 Q-Chem 5.0.1 for Intel X86 EM64T Linux

User input:
--------------------------------------------------------------
$molecule
0  1
O -3.94934 -3.66094 2.70899
C -3.26408 -4.56952 2.26188
C -3.36658 -6.02376 2.66595
C -4.68585 -6.74864 2.35304
C -5.68912 -5.99032 1.5125
O -5.72251 -4.68072 1.89883
C -6.78444 -3.94027 1.28785
C -8.06331 -4.0826 2.1066
O -9.17596 -3.54638 1.37354
C -9.52042 -4.2298 0.25398
C -10.98222 -4.08583 -0.09684
C -11.28386 -4.02456 -1.60135
C -10.16154 -4.46652 -2.51883
O -10.22981 -5.37266 -3.33663
O -2.34112 -4.2584 1.31194
O -9.04376 -3.69149 -2.50497
O -8.88767 -5.1929 -0.16559
C -7.9315 -3.91287 -3.28959
C -11.83865 -5.30609 0.30572
C -13.28978 -4.86807 0.4928
C -13.67973 -4.56825 -0.94117
C -12.424 -5.05901 -1.67465
O -11.92652 -6.09132 -0.85834
H -11.37747 -3.19472 0.44428
H -11.58396 -3.00416 -1.926
H -11.46873 -5.82222 1.2187
H -13.85013 -5.76835 0.83398
H -13.46256 -4.03972 1.21308
H -14.56948 -5.18471 -1.19796
H -13.87613 -3.49735 -1.16572
H -12.67631 -5.34057 -2.72059
O -6.22945 -6.43726 0.50673
C -2.13093 -2.98977 0.81312
C -2.37718 -6.95866 1.9282
C -2.13337 -8.22271 2.75283
C -3.45143 -8.94117 2.56699
C -4.15616 -7.98353 1.60228
O -3.1096 -7.44727 0.83049
H -3.13068 -6.04646 3.75347
H -5.2247 -7.01057 3.29041
H -1.82272 -2.30317 1.63033
H -1.39909 -6.48494 1.69551
H -1.33832 -8.80791 2.23713
H -1.83157 -8.04544 3.80751
H -3.25357 -9.91459 2.0651
H -4.03867 -9.10635 3.4962
H -4.95051 -8.52673 1.04545
H -3.0578 -2.61007 0.3321
H -1.32339 -3.02689 0.05357
H -7.17239 -3.13397 -3.0716
H -8.2036 -3.85733 -4.36526
H -7.49629 -4.90943 -3.06176
H -8.26731 -5.15372 2.33354
H -7.94405 -3.55356 3.07586
H -6.84993 -4.17326 0.20563
H -6.51775 -2.86214 1.29722
$end

$opt
CONSTRAINT
tors           1           2           3           4     +63.772
tors           3           4           5           6     -40.504
tors           4           5           6           7    -171.342
tors           5           6           7           8     +86.500
tors           6           7           8           9    -169.643
tors           7           8           9          10     +67.145
tors           8           9          10          11    +152.342
tors           9          10          11          12    +143.847
tors          11          12          13          14    +121.578
ENDCONSTRAINT
$end

$rem
JOBTYPE                   OPT
METHOD                    B3LYP
DFT_D                     d3_op
BASIS                     STO-3G
GEOM_OPT_MAX_CYCLES       100
GEOM_OPT_TOL_GRADIENT     300
GEOM_OPT_TOL_DISPLACEMENT 1200
GEOM_OPT_TOL_ENERGY       100
SYMMETRY                  False
THRESH                    12
SCF_CONVERGENCE           8
MAX_SUB_FILE_NUM          128
MEM_STATIC                400
MEM_TOTAL                 4000
$end
--------------------------------------------------------------

   15   -1510.1287800356      6.46E-09 Convergence criterion met
 Total energy in the final basis set = -1510.12878004
   14   -1510.1988862367      7.68E-09 Convergence criterion met
 Total energy in the final basis set = -1510.19888624
   14   -1510.2375277759      7.97E-09 Convergence criterion met
 Total energy in the final basis set = -1510.23752778
   14   -1510.2575835731      7.17E-09 Convergence criterion met
 Total energy in the final basis set = -1510.25758357
   14   -1510.2651676199      3.43E-09 Convergence criterion met
 Total energy in the final basis set = -1510.26516762
   14   -1510.2680990343      3.93E-09 Convergence criterion met
 Total energy in the final basis set = -1510.26809903
   13   -1510.2694397491      3.87E-09 Convergence criterion met
 Total energy in the final basis set = -1510.26943975
   12   -1510.2701080511      8.17E-09 Convergence criterion met
   11   -1510.2713161982      9.95E-09 Convergence criterion met
 Total energy in the final basis set = -1510.27131620
   11   -1510.2713464021      5.48E-09 Convergence criterion met
 Total energy in the final basis set = -1510.27134640
   11   -1510.2713687923      3.60E-09 Convergence criterion met
 Total energy in the final basis set = -1510.27136879
   11   -1510.2713840107      3.37E-09 Convergence criterion met
 Total energy in the final basis set = -1510.27138401
   11   -1510.2713945259      2.90E-09 Convergence criterion met
 Total energy in the final basis set = -1510.27139453
   10   -1510.2713959219      9.02E-09 Convergence criterion met
 Total energy in the final basis set = -1510.27139592

             Standard Nuclear Orientation (Angstroms)
    I     Atom           X                Y                Z
 ----------------------------------------------------------------
    1      O      -4.0504844206    -1.3623757058     2.1529667326
    2      C      -4.5255262112    -0.9892962612     1.0588862018
    3      C      -4.6473165141     0.4869985963     0.5340689149
    4      C      -3.3019491916     1.3003658320     0.2829934677
    5      C      -1.9378058228     0.5196899492     0.1380301894
    6      O      -1.8518985542    -0.5557729164     1.0740206890
    7      C      -0.4934917704    -1.1490859388     1.0728739258
    8      C       0.4439153125    -0.3535576490     2.0649259493
    9      O       1.8813101639    -0.7100065398     1.9598392033
   10      C       2.4494784012    -0.3076372700     0.7027023566
   11      C       3.9784596339    -0.0525315751     0.9183870730
   12      C       4.8722146315    -0.4862054268    -0.3153902178
   13      C       4.0555386424    -1.1503770704    -1.4819149302
   14      O       3.9828610481    -0.7707920188    -2.6690021397
   15      O      -5.0329188966    -1.8945698418     0.0699632338
   16      O       3.4419077271    -2.3423004796    -0.9705366391
   17      O       1.8073627496    -0.1260966366    -0.3561616960
   18      C       2.5652123365    -2.9393156284    -2.0028318235
   19      C       4.2704955039     1.5125352245     0.9548473669
   20      C       5.7324080147     1.7304100949     1.5142988538
   21      C       6.6003493647     1.3208636576     0.2664859225
   22      C       5.4772326655     0.9078774543    -0.7622340316
   23      O       4.3821552993     1.8661587517    -0.4764637501
   24      H       4.2899269019    -0.5489872384     1.8537096782
   25      H       5.6596612022    -1.1928923804     0.0046337472
   26      H       3.4829764831     2.1167877048     1.4458420427
   27      H       5.8867532708     2.7866005298     1.7864982613
   28      H       5.9347385707     1.1042362743     2.3980283466
   29      H       7.1773327528     2.1758865507    -0.1200547892
   30      H       7.2950898343     0.4933391326     0.4816181293
   31      H       5.7568077305     0.9520980241    -1.8327630313
   32      O      -1.0274580865     0.8238942219    -0.6641199226
   33      C      -4.9036954721    -3.2886378597     0.5514342058
   34      C      -5.3790163960     0.6681734377    -0.8669186949
   35      C      -6.0430182183     2.1008708810    -0.8758750534
   36      C      -4.7686346166     3.0170034817    -0.9959277609
   37      C      -3.6241106462     1.9377937915    -1.1338313543
   38      O      -4.2743916054     0.8085043313    -1.8414140467
   39      H      -5.2164247719     1.0231554943     1.3171998588
   40      H      -3.1648651081     2.0669891120     1.0684752823
   41      H      -5.4900305083    -3.4589090853     1.4777114296
   42      H      -6.0417868733    -0.1729053642    -1.1452212264
   43      H      -6.7008086497     2.2118424288    -1.7527531658
   44      H      -6.6310075062     2.2989600445     0.0346482617
   45      H      -4.8093847676     3.6538557585    -1.8935330538
   46      H      -4.6235698852     3.6605863084    -0.1133498093
   47      H      -2.7144358691     2.2620601983    -1.6762759691
   48      H      -3.8455734772    -3.5528614588     0.7531855416
   49      H      -5.2980348876    -3.9288778628    -0.2590384248
   50      H       2.2031094476    -3.8962003054    -1.5838368574
   51      H       3.1128359350    -3.1282408212    -2.9484264461
   52      H       1.7006704745    -2.2783758610    -2.2207315301
   53      H       0.3097973677     0.7331022302     1.8688390169
   54      H       0.1656238571    -0.5632892273     3.1171744890
   55      H      -0.0367319452    -1.0802612020     0.0615748799
   56      H      -0.6061736493    -2.2037237884     1.3907703217
 ----------------------------------------------------------------

    9   -1510.2713966627      6.07E-09 Convergence criterion met
 Total energy in the final basis set = -1510.27139666
 Final energy is   -1510.27139666268
 **  OPTIMIZATION CONVERGED  **

                    Orbital Energies (a.u.)
 --------------------------------------------------------------

 Alpha MOs
 -- Occupied --
-18.933 -18.932 -18.931 -18.925 -18.887 -18.883 -18.881 -18.874
-18.870 -18.870 -10.103 -10.097 -10.096 -10.093 -10.073 -10.063
-10.062 -10.061 -10.057 -10.056 -10.054 -10.053 -10.037 -10.037
-10.034 -10.034 -10.021 -10.019 -10.017 -10.016  -1.015  -1.010
 -1.005  -1.002  -0.969  -0.965  -0.941  -0.935  -0.930  -0.929
 -0.762  -0.759  -0.725  -0.719  -0.709  -0.703  -0.694  -0.658
 -0.656  -0.618  -0.596  -0.584  -0.545  -0.539  -0.536  -0.533
 -0.510  -0.509  -0.480  -0.474  -0.464  -0.459  -0.451  -0.443
 -0.432  -0.429  -0.425  -0.409  -0.408  -0.406  -0.406  -0.394
 -0.387  -0.377  -0.376  -0.368  -0.358  -0.357  -0.351  -0.345
 -0.342  -0.335  -0.333  -0.331  -0.326  -0.325  -0.323  -0.311
 -0.309  -0.303  -0.302  -0.293  -0.291  -0.288  -0.282  -0.275
 -0.270  -0.257  -0.250  -0.248  -0.235  -0.233  -0.229  -0.190
 -0.173  -0.170  -0.165  -0.155  -0.151  -0.148  -0.146  -0.143
 -0.138

          Ground-State Mulliken Net Atomic Charges

     Atom                 Charge (a.u.)
  ----------------------------------------
      1 O                    -0.209252
      2 C                     0.210924
      3 C                    -0.080543
      4 C                    -0.076621
      5 C                     0.207122
      6 O                    -0.169641
      7 C                    -0.059478
      8 C                    -0.049713
      9 O                    -0.174769
     10 C                     0.214997
     11 C                    -0.078461
     12 C                    -0.079732
     13 C                     0.215036
     14 O                    -0.208364
     15 O                    -0.169712
     16 O                    -0.176228
     17 O                    -0.200403
     18 C                    -0.129497
     19 C                     0.025734
     20 C                    -0.143624
     21 C                    -0.143964
     22 C                     0.024660
     23 O                    -0.186036
     24 H                     0.086808
     25 H                     0.083962
     26 H                     0.081397
     27 H                     0.078128
     28 H                     0.073772
     29 H                     0.078369
     30 H                     0.073265
     31 H                     0.091230
     32 O                    -0.206492
     33 C                    -0.127635
     34 C                     0.022901
     35 C                    -0.143269
     36 C                    -0.145532
     37 C                     0.022975
     38 O                    -0.190804
     39 H                     0.081681
     40 H                     0.083464
     41 H                     0.087358
     42 H                     0.091249
     43 H                     0.077198
     44 H                     0.071592
     45 H                     0.078316
     46 H                     0.072116
     47 H                     0.092627
     48 H                     0.089283
     49 H                     0.090091
     50 H                     0.087162
     51 H                     0.089632
     52 H                     0.092973
     53 H                     0.083199
     54 H                     0.091124
     55 H                     0.112150
     56 H                     0.087275
  ----------------------------------------
  Sum of atomic charges =    -0.000000

                    Cartesian Multipole Moments
 -----------------------------------------------------------------
    Charge (ESU x 10^10)
                -0.0000
    Dipole Moment (Debye)
         X      -0.2651      Y      -0.5851      Z       2.9989
       Tot       3.0669
    Quadrupole Moments (Debye-Ang)
        XX    -137.6950     XY      -3.8816     YY    -149.1165
        XZ       5.6595     YZ       6.7544     ZZ    -168.4760

 Total job time:  56.01s(wall), 2662.51s(cpu)
        *  Thank you very much for using Q-Chem.  Have a nice day.  *
