 Q-Chem 5.0, Q-Chem, Inc., Pleasanton, CA (2017)
 Q-Chem 5.0.1 for Intel X86 EM64T Linux

User input:
--------------------------------------------------------------
$molecule
0  1
O -3.94934 -3.66094 2.70899
C -3.26408 -4.56952 2.26188
C -3.36658 -6.02376 2.66595
C -3.71324 -7.03682 1.5626
C -3.74389 -6.5071 0.14608
O -5.03467 -6.27256 -0.23378
C -5.18063 -6.08224 -1.64506
C -6.4358 -6.79061 -2.14395
O -7.13091 -7.39049 -1.03948
C -8.43848 -7.67552 -1.25895
C -9.07807 -8.42301 -0.11316
C -10.57374 -8.72275 -0.29041
C -11.11791 -8.5618 -1.69565
O -11.72547 -9.41745 -2.32279
O -2.30588 -4.25922 1.34862
O -11.32065 -7.26897 -2.08087
O -8.94522 -7.41378 -2.33744
C -11.96767 -6.88587 -3.2384
C -8.51281 -9.83647 0.10996
C -8.74692 -10.25221 1.56024
C -10.25134 -10.43748 1.56085
C -10.55675 -10.22388 0.07216
O -9.39794 -10.68061 -0.5842
H -8.91016 -7.79931 0.79451
H -11.2205 -8.12424 0.38875
H -7.4365 -9.93096 -0.15246
H -8.26531 -11.24792 1.69123
H -8.35513 -9.55334 2.33037
H -10.4743 -11.48343 1.86781
H -10.81836 -9.72296 2.19613
H -11.50514 -10.73861 -0.19688
O -2.75378 -6.16816 -0.49282
C -2.07068 -2.98973 0.86394
C -2.01838 -6.5886 3.14958
C -2.25047 -7.81129 4.03739
C -2.67399 -8.8352 3.00389
C -2.53261 -8.01176 1.71982
O -1.44997 -7.15393 1.9928
H -4.11142 -6.06652 3.49289
H -4.68777 -7.53823 1.76592
H -1.78897 -2.3084 1.69497
H -1.39933 -5.83454 3.68372
H -1.26375 -8.1169 4.45322
H -2.96794 -7.65126 4.87079
H -1.93055 -9.66333 3.00507
H -3.69845 -9.24668 3.13283
H -2.41819 -8.68222 0.83937
H -2.9769 -2.60327 0.35031
H -1.23607 -3.02842 0.13434
H -11.97997 -5.77832 -3.2983
H -13.01547 -7.25493 -3.23324
H -11.43187 -7.28662 -4.12533
H -7.04633 -6.05114 -2.71316
H -6.14283 -7.60847 -2.83837
H -4.30244 -6.33103 -2.28482
H -5.35765 -4.99205 -1.77661
$end

$opt
CONSTRAINT
tors           1           2           3           4    +119.865
tors           3           4           5           6    -100.129
tors           4           5           6           7    -165.780
tors           5           6           7           8    +139.208
tors           6           7           8           9      +2.485
tors           7           8           9          10    +159.982
tors           8           9          10          11    +174.457
tors           9          10          11          12    +177.780
tors          11          12          13          14    +125.621
ENDCONSTRAINT
$end

$rem
JOBTYPE                   OPT
METHOD                    B3LYP
DFT_D                     d3_op
BASIS                     STO-3G
GEOM_OPT_MAX_CYCLES       100
GEOM_OPT_TOL_GRADIENT     300
GEOM_OPT_TOL_DISPLACEMENT 1200
GEOM_OPT_TOL_ENERGY       100
SYMMETRY                  False
THRESH                    12
SCF_CONVERGENCE           8
MAX_SUB_FILE_NUM          128
MEM_STATIC                400
MEM_TOTAL                 4000
$end
--------------------------------------------------------------

   15   -1510.1360150688      6.33E-09 Convergence criterion met
 Total energy in the final basis set = -1510.13601507
   14   -1510.2065330290      7.91E-09 Convergence criterion met
 Total energy in the final basis set = -1510.20653303
   14   -1510.2428324094      8.72E-09 Convergence criterion met
 Total energy in the final basis set = -1510.24283241
   14   -1510.2587889342      5.57E-09 Convergence criterion met
 Total energy in the final basis set = -1510.25878893
   14   -1510.2659513914      3.75E-09 Convergence criterion met
 Total energy in the final basis set = -1510.26595139
   13   -1510.2689506265      2.54E-09 Convergence criterion met
 Total energy in the final basis set = -1510.26895063
   13   -1510.2706412041      2.46E-09 Convergence criterion met
 Total energy in the final basis set = -1510.27064120
   13   -1510.2716800638      4.43E-09 Convergence criterion met
   11   -1510.2744673431      7.38E-09 Convergence criterion met
 Total energy in the final basis set = -1510.27446734
   11   -1510.2745042287      4.08E-09 Convergence criterion met
 Total energy in the final basis set = -1510.27450423
   11   -1510.2745207045      4.63E-09 Convergence criterion met
 Total energy in the final basis set = -1510.27452070
   10   -1510.2745276862      8.38E-09 Convergence criterion met
 Total energy in the final basis set = -1510.27452769
    9   -1510.2745305376      6.54E-09 Convergence criterion met
 Total energy in the final basis set = -1510.27453054
    9   -1510.2745315921      3.81E-09 Convergence criterion met
 Total energy in the final basis set = -1510.27453159

             Standard Nuclear Orientation (Angstroms)
    I     Atom           X                Y                Z
 ----------------------------------------------------------------
    1      O      -4.1019547666    -1.7440600541     2.4506958518
    2      C      -4.3041616447    -1.1148692224     1.3883400418
    3      C      -3.9147569718     0.3717338129     1.0889886409
    4      C      -2.9160884861     0.5727386386    -0.1346078063
    5      C      -2.5519097207    -0.7299300616    -0.9282545840
    6      O      -1.2617389072    -1.1691735944    -0.4731869501
    7      C      -0.6988273770    -2.1819672153    -1.3986640759
    8      C       0.8402756933    -1.8824048286    -1.5734556255
    9      O       1.1667379884    -0.7298704624    -0.6953860303
   10      C       2.5688600538    -0.6808559259    -0.4319421405
   11      C       2.8695139972     0.6279834024     0.3754306615
   12      C       4.3958073309     0.7426125927     0.7638967214
   13      C       5.2184852924    -0.5879094365     0.5958087693
   14      O       6.2687208753    -0.7492556022    -0.0606502938
   15      O      -4.9746354239    -1.6582934955     0.2489619953
   16      O       4.6853401959    -1.5488184336     1.5232771693
   17      O       3.3993475231    -1.5202112316    -0.8489000755
   18      C       5.4077373694    -2.8313531261     1.3819002173
   19      C       2.7314071886     1.8681031141    -0.6089147180
   20      C       2.8711368872     3.2086318281     0.2176999807
   21      C       4.4287672873     3.2754896971     0.4369696249
   22      C       4.8770482413     1.9041708414    -0.2018010707
   23      O       3.9903679594     1.7871420849    -1.3850332763
   24      H       2.1921123472     0.6953768234     1.2451178412
   25      H       4.4914703691     1.0487312911     1.8218256777
   26      H       1.8512977645     1.8141992957    -1.2789342870
   27      H       2.5053358592     4.0654554114    -0.3698893929
   28      H       2.3096553449     3.1651448305     1.1647636661
   29      H       4.8748127742     4.1188755573    -0.1141573690
   30      H       4.7095078469     3.3581666883     1.4990420545
   31      H       5.9398135251     1.8284813628    -0.5040230213
   32      O      -3.1663192358    -1.2511926145    -1.8835996355
   33      C      -5.3369278543    -3.0728446833     0.4938665237
   34      C      -5.1563414917     1.2431063594     0.6064361030
   35      C      -4.7901167866     2.7667465898     0.7998207043
   36      C      -3.7728831694     2.9844856365    -0.3811880835
   37      C      -3.7687592301     1.5526793348    -1.0495953857
   38      O      -5.1559911668     1.0714209553    -0.8624899573
   39      H      -3.4736614397     0.7807992821     2.0151074738
   40      H      -1.9712805917     1.0312196660     0.2068103112
   41      H      -6.0135168217    -3.1775194469     1.3666499757
   42      H      -6.1296381853     0.9329349931     1.0331766094
   43      H      -5.6878074990     3.3943198129     0.6807258590
   44      H      -4.3470975088     2.9678020040     1.7882774637
   45      H      -4.1350294755     3.7416885866    -1.0946957529
   46      H      -2.7711074917     3.2798328623    -0.0301199864
   47      H      -3.4952759803     1.5279056288    -2.1220671080
   48      H      -4.4384922555    -3.6998070637     0.6676218453
   49      H      -5.8545648996    -3.4146521367    -0.4211052992
   50      H       5.0114808690    -3.4979251330     2.1700181329
   51      H       6.5015904993    -2.7045123059     1.5154301456
   52      H       5.2243777201    -3.2854119586     0.3862715055
   53      H       1.4581095860    -2.7632625821    -1.2989281607
   54      H       1.0705461283    -1.6195020758    -2.6290251384
   55      H      -1.2450100616    -2.1419018482    -2.3653052574
   56      H      -0.8433425740    -3.1945232496    -0.9637868491
 ----------------------------------------------------------------

    9   -1510.2745321782      2.86E-09 Convergence criterion met
 Total energy in the final basis set = -1510.27453218
 Final energy is   -1510.27453217816
 **  OPTIMIZATION CONVERGED  **

                    Orbital Energies (a.u.)
 --------------------------------------------------------------

 Alpha MOs
 -- Occupied --
-18.943 -18.935 -18.934 -18.917 -18.891 -18.886 -18.885 -18.880
-18.873 -18.861 -10.106 -10.100 -10.097 -10.090 -10.079 -10.075
-10.062 -10.062 -10.062 -10.062 -10.056 -10.053 -10.040 -10.040
-10.039 -10.032 -10.023 -10.022 -10.022 -10.020  -1.022  -1.013
 -1.008  -0.997  -0.972  -0.970  -0.947  -0.935  -0.933  -0.924
 -0.765  -0.763  -0.730  -0.724  -0.715  -0.707  -0.699  -0.660
 -0.653  -0.619  -0.600  -0.579  -0.548  -0.544  -0.539  -0.536
 -0.518  -0.508  -0.488  -0.474  -0.465  -0.459  -0.455  -0.448
 -0.437  -0.432  -0.431  -0.413  -0.412  -0.408  -0.404  -0.402
 -0.387  -0.382  -0.376  -0.367  -0.361  -0.357  -0.353  -0.350
 -0.344  -0.341  -0.335  -0.334  -0.332  -0.328  -0.324  -0.312
 -0.309  -0.308  -0.305  -0.302  -0.299  -0.286  -0.277  -0.275
 -0.271  -0.262  -0.250  -0.246  -0.243  -0.236  -0.235  -0.186
 -0.179  -0.172  -0.164  -0.161  -0.156  -0.150  -0.145  -0.145
 -0.141

          Ground-State Mulliken Net Atomic Charges

     Atom                 Charge (a.u.)
  ----------------------------------------
      1 O                    -0.214575
      2 C                     0.203719
      3 C                    -0.079111
      4 C                    -0.077948
      5 C                     0.208699
      6 O                    -0.168130
      7 C                    -0.052721
      8 C                    -0.049218
      9 O                    -0.165259
     10 C                     0.217251
     11 C                    -0.076429
     12 C                    -0.081361
     13 C                     0.216703
     14 O                    -0.217552
     15 O                    -0.162499
     16 O                    -0.177937
     17 O                    -0.207000
     18 C                    -0.128634
     19 C                     0.024165
     20 C                    -0.144642
     21 C                    -0.142869
     22 C                     0.023621
     23 O                    -0.191262
     24 H                     0.088401
     25 H                     0.083416
     26 H                     0.083675
     27 H                     0.077486
     28 H                     0.073033
     29 H                     0.078065
     30 H                     0.073480
     31 H                     0.091399
     32 O                    -0.205424
     33 C                    -0.127195
     34 C                     0.026883
     35 C                    -0.143622
     36 C                    -0.144266
     37 C                     0.026746
     38 O                    -0.182225
     39 H                     0.084832
     40 H                     0.087797
     41 H                     0.088145
     42 H                     0.084074
     43 H                     0.078412
     44 H                     0.073917
     45 H                     0.078457
     46 H                     0.073066
     47 H                     0.085711
     48 H                     0.087117
     49 H                     0.094064
     50 H                     0.085697
     51 H                     0.087357
     52 H                     0.089992
     53 H                     0.095675
     54 H                     0.086428
     55 H                     0.098501
     56 H                     0.083894
  ----------------------------------------
  Sum of atomic charges =    -0.000000

                    Cartesian Multipole Moments
 -----------------------------------------------------------------
    Charge (ESU x 10^10)
                -0.0000
    Dipole Moment (Debye)
         X      -1.0815      Y       1.2228      Z       1.5906
       Tot       2.2792
    Quadrupole Moments (Debye-Ang)
        XX    -177.9547     XY       0.2113     YY    -144.7811
        XZ       4.6810     YZ       4.6641     ZZ    -165.0267

 Total job time:  57.65s(wall), 2744.06s(cpu)
        *  Thank you very much for using Q-Chem.  Have a nice day.  *
