 Q-Chem 5.0, Q-Chem, Inc., Pleasanton, CA (2017)
 Q-Chem 5.0.1 for Intel X86 EM64T Linux

User input:
--------------------------------------------------------------
$molecule
0  1
O -4.1019547666 -1.7440600541 2.4506958518
C -4.3041616447 -1.1148692224 1.3883400418
C -3.9147569718 0.3717338129 1.0889886409
C -2.9160884861 0.5727386386 -0.1346078063
C -2.5519097207 -0.7299300616 -0.928254584
O -1.2617389072 -1.1691735944 -0.4731869501
C -0.698827377 -2.1819672153 -1.3986640759
C 0.8402756933 -1.8824048286 -1.5734556255
O 1.1667379884 -0.7298704624 -0.6953860303
C 2.5688600538 -0.6808559259 -0.4319421405
C 2.8695139972 0.6279834024 0.3754306615
C 4.3958073309 0.7426125927 0.7638967214
C 5.2184852924 -0.5879094365 0.5958087693
O 6.2687208753 -0.7492556022 -0.0606502938
O -4.9746354239 -1.6582934955 0.2489619953
O 4.6853401959 -1.5488184336 1.5232771693
O 3.3993475231 -1.5202112316 -0.8489000755
C 5.4077373694 -2.8313531261 1.3819002173
C 2.7314071886 1.8681031141 -0.608914718
C 2.8711368872 3.2086318281 0.2176999807
C 4.4287672873 3.2754896971 0.4369696249
C 4.8770482413 1.9041708414 -0.2018010707
O 3.9903679594 1.7871420849 -1.3850332763
H 2.1921123472 0.6953768234 1.2451178412
H 4.4914703691 1.0487312911 1.8218256777
H 1.8512977645 1.8141992957 -1.278934287
H 2.5053358592 4.0654554114 -0.3698893929
H 2.3096553449 3.1651448305 1.1647636661
H 4.8748127742 4.1188755573 -0.114157369
H 4.7095078469 3.3581666883 1.4990420545
H 5.9398135251 1.8284813628 -0.5040230213
O -3.1663192358 -1.2511926145 -1.8835996355
C -5.3369278543 -3.0728446833 0.4938665237
C -5.1563414917 1.2431063594 0.606436103
C -4.7901167866 2.7667465898 0.7998207043
C -3.7728831694 2.9844856365 -0.3811880835
C -3.7687592301 1.5526793348 -1.0495953857
O -5.1559911668 1.0714209553 -0.8624899573
H -3.4736614397 0.7807992821 2.0151074738
H -1.9712805917 1.031219666 0.2068103112
H -6.0135168217 -3.1775194469 1.3666499757
H -6.1296381853 0.9329349931 1.0331766094
H -5.687807499 3.3943198129 0.680725859
H -4.3470975088 2.967802004 1.7882774637
H -4.1350294755 3.7416885866 -1.0946957529
H -2.7711074917 3.2798328623 -0.0301199864
H -3.4952759803 1.5279056288 -2.122067108
H -4.4384922555 -3.6998070637 0.6676218453
H -5.8545648996 -3.4146521367 -0.4211052992
H 5.011480869 -3.497925133 2.1700181329
H 6.5015904993 -2.7045123059 1.5154301456
H 5.2243777201 -3.2854119586 0.3862715055
H 1.458109586 -2.7632625821 -1.2989281607
H 1.0705461283 -1.6195020758 -2.6290251384
H -1.2450100616 -2.1419018482 -2.3653052574
H -0.843342574 -3.1945232496 -0.9637868491
$end

$rem
JOBTYPE                   OPT
METHOD                    B3LYP
DFT_D                     d3_op
BASIS                     STO-3G
GEOM_OPT_MAX_CYCLES       100
GEOM_OPT_TOL_GRADIENT     300
GEOM_OPT_TOL_DISPLACEMENT 1200
GEOM_OPT_TOL_ENERGY       100
SYMMETRY                  False
THRESH                    12
SCF_CONVERGENCE           8
MAX_SUB_FILE_NUM          128
MEM_STATIC                400
MEM_TOTAL                 4000
$end
--------------------------------------------------------------

   16   -1510.2744791155      5.85E-09 Convergence criterion met
 Total energy in the final basis set = -1510.27447912
   13   -1510.2764347187      8.02E-09 Convergence criterion met
 Total energy in the final basis set = -1510.27643472
   13   -1510.2775983982      3.89E-09 Convergence criterion met
 Total energy in the final basis set = -1510.27759840
   13   -1510.2786506067      4.03E-09 Convergence criterion met
 Total energy in the final basis set = -1510.27865061
   13   -1510.2798289308      6.27E-09 Convergence criterion met
 Total energy in the final basis set = -1510.27982893
   13   -1510.2808620533      4.53E-09 Convergence criterion met
 Total energy in the final basis set = -1510.28086205
   13   -1510.2818406205      3.83E-09 Convergence criterion met
 Total energy in the final basis set = -1510.28184062
   12   -1510.2827127931      8.75E-09 Convergence criterion met
   12   -1510.2891428139      5.01E-09 Convergence criterion met
 Total energy in the final basis set = -1510.28914281
   11   -1510.2891490383      7.72E-09 Convergence criterion met
 Total energy in the final basis set = -1510.28914904
   12   -1510.2891533514      2.12E-09 Convergence criterion met
 Total energy in the final basis set = -1510.28915335
   12   -1510.2891470552      1.51E-09 Convergence criterion met
 Total energy in the final basis set = -1510.28914706
    9   -1510.2891505406      7.15E-09 Convergence criterion met
 Total energy in the final basis set = -1510.28915054
    9   -1510.2891517570      5.13E-09 Convergence criterion met
 Total energy in the final basis set = -1510.28915176

             Standard Nuclear Orientation (Angstroms)
    I     Atom           X                Y                Z
 ----------------------------------------------------------------
    1      O      -3.6380942656    -1.2128030286     2.4676677085
    2      C      -3.9684434672    -0.7515699681     1.3545481918
    3      C      -4.2023373579     0.7483047223     0.9733404641
    4      C      -3.4125828848     1.2043763574    -0.3254784786
    5      C      -2.5404967215     0.0702317647    -0.9715043668
    6      O      -1.6444748935    -0.4345802722     0.0308367689
    7      C      -0.7956077231    -1.5111862563    -0.5321967262
    8      C       0.3778966534    -0.9405645148    -1.4039520172
    9      O       1.1617898446     0.0356295623    -0.6095172447
   10      C       2.4669298493    -0.4759688974    -0.3292502128
   11      C       3.2315872057     0.5831607317     0.5312883107
   12      C       4.7339958485     0.1847349056     0.8303928288
   13      C       5.1579851943    -1.2239213798     0.2708648006
   14      O       5.8303884167    -1.4599310806    -0.7549503703
   15      O      -4.2345491587    -1.5540957341     0.1950005034
   16      O       4.7480601211    -2.2175673476     1.2229938338
   17      O       2.8930385049    -1.5791886578    -0.7417188052
   18      C       5.0526240397    -3.5658162934     0.6953683111
   19      C       3.4338314062     1.9328700761    -0.2840817374
   20      C       3.8881498330     3.0626332562     0.7221617132
   21      C       5.3906286050     2.6634260764     0.9699506149
   22      C       5.5059798214     1.3572835034     0.0906750302
   23      O       4.6487379406     1.6560405577    -1.0811516056
   24      H       2.6576352300     0.7546696978     1.4602978545
   25      H       4.9233211956     0.1898775432     1.9185712684
   26      H       2.5803186732     2.1924247959    -0.9402128788
   27      H       3.8038747627     4.0548828789     0.2513529776
   28      H       3.2882462483     3.0574158546     1.6462216868
   29      H       6.0800512006     3.4387762459     0.5995319574
   30      H       5.6110576969     2.4719001221     2.0321655719
   31      H       6.5271506116     1.0871292373    -0.2410182216
   32      O      -2.5630836802    -0.3235014936    -2.1565694487
   33      C      -4.0104405367    -2.9841801497     0.5012979869
   34      C      -5.7012193354     1.0074785648     0.5018628888
   35      C      -5.9606911555     2.5661522651     0.4954951999
   36      C      -5.1804485603     3.0010659396    -0.8012472585
   37      C      -4.6029115041     1.6145104606    -1.2850876584
   38      O      -5.6733285089     0.6515819929    -0.9336498249
   39      H      -3.9348041159     1.3630851497     1.8503008107
   40      H      -2.7505432045     2.0609849290    -0.1000975952
   41      H      -4.7372797910    -3.3596153685     1.2505763193
   42      H      -6.4613662549     0.4057823090     1.0369572204
   43      H      -7.0388312599     2.7744308825     0.4068921732
   44      H      -5.5811277223     3.0549107109     1.4070041796
   45      H      -5.8603748980     3.4213359687    -1.5593294466
   46      H      -4.3848834358     3.7346573810    -0.5947228024
   47      H      -4.3544763651     1.5386433943    -2.3615881967
   48      H      -2.9860004289    -3.1644066511     0.8855561323
   49      H      -4.1515921880    -3.5261010742    -0.4519999541
   50      H       4.7421437747    -4.2813635529     1.4789789630
   51      H       6.1346120101    -3.6910278728     0.4849147655
   52      H       4.4857902701    -3.7663909035    -0.2370794559
   53      H       1.0486961230    -1.7665965374    -1.7273990991
   54      H      -0.0335348480    -0.4114862128    -2.2878783293
   55      H      -1.3992831934    -2.2059186848    -1.1559062829
   56      H      -0.3878048279    -2.0556664222     0.3433584249
 ----------------------------------------------------------------

    9   -1510.2891518354      2.77E-09 Convergence criterion met
 Total energy in the final basis set = -1510.28915184
 Final energy is   -1510.28915183539
 **  OPTIMIZATION CONVERGED  **

                    Orbital Energies (a.u.)
 --------------------------------------------------------------

 Alpha MOs
 -- Occupied --
-18.941 -18.936 -18.934 -18.919 -18.889 -18.889 -18.887 -18.878
-18.875 -18.860 -10.109 -10.104 -10.099 -10.089 -10.079 -10.073
-10.065 -10.062 -10.061 -10.059 -10.057 -10.053 -10.042 -10.040
-10.038 -10.033 -10.022 -10.021 -10.021 -10.019  -1.024  -1.017
 -1.007  -0.997  -0.971  -0.970  -0.947  -0.938  -0.936  -0.923
 -0.766  -0.763  -0.730  -0.723  -0.714  -0.706  -0.698  -0.661
 -0.654  -0.622  -0.599  -0.583  -0.548  -0.544  -0.538  -0.536
 -0.516  -0.510  -0.485  -0.475  -0.463  -0.457  -0.454  -0.446
 -0.436  -0.432  -0.429  -0.422  -0.413  -0.409  -0.405  -0.401
 -0.393  -0.384  -0.372  -0.368  -0.362  -0.358  -0.354  -0.349
 -0.344  -0.342  -0.334  -0.332  -0.332  -0.327  -0.325  -0.316
 -0.311  -0.307  -0.306  -0.301  -0.294  -0.292  -0.277  -0.275
 -0.274  -0.262  -0.252  -0.247  -0.243  -0.235  -0.234  -0.193
 -0.177  -0.173  -0.165  -0.163  -0.159  -0.150  -0.145  -0.144
 -0.140

          Ground-State Mulliken Net Atomic Charges

     Atom                 Charge (a.u.)
  ----------------------------------------
      1 O                    -0.213123
      2 C                     0.212059
      3 C                    -0.078995
      4 C                    -0.078056
      5 C                     0.216563
      6 O                    -0.173678
      7 C                    -0.049232
      8 C                    -0.057847
      9 O                    -0.172065
     10 C                     0.216036
     11 C                    -0.077250
     12 C                    -0.081800
     13 C                     0.215217
     14 O                    -0.216479
     15 O                    -0.168661
     16 O                    -0.175724
     17 O                    -0.208516
     18 C                    -0.128291
     19 C                     0.025090
     20 C                    -0.143924
     21 C                    -0.143987
     22 C                     0.025119
     23 O                    -0.189092
     24 H                     0.088049
     25 H                     0.083991
     26 H                     0.086700
     27 H                     0.078026
     28 H                     0.073494
     29 H                     0.078107
     30 H                     0.073434
     31 H                     0.088795
     32 O                    -0.214087
     33 C                    -0.128396
     34 C                     0.026072
     35 C                    -0.143842
     36 C                    -0.144052
     37 C                     0.024667
     38 O                    -0.185647
     39 H                     0.085403
     40 H                     0.085262
     41 H                     0.088290
     42 H                     0.082678
     43 H                     0.078225
     44 H                     0.073831
     45 H                     0.078457
     46 H                     0.073121
     47 H                     0.090504
     48 H                     0.087218
     49 H                     0.091674
     50 H                     0.085517
     51 H                     0.086421
     52 H                     0.091755
     53 H                     0.103578
     54 H                     0.095120
     55 H                     0.094188
     56 H                     0.090087
  ----------------------------------------
  Sum of atomic charges =    -0.000000

                    Cartesian Multipole Moments
 -----------------------------------------------------------------
    Charge (ESU x 10^10)
                -0.0000
    Dipole Moment (Debye)
         X      -1.1104      Y       1.3159      Z       2.2201
       Tot       2.8095
    Quadrupole Moments (Debye-Ang)
        XX    -167.9007     XY      -1.1421     YY    -145.0315
        XZ       7.6810     YZ       1.9017     ZZ    -169.0057

 Total job time:  78.16s(wall), 3721.74s(cpu)
        *  Thank you very much for using Q-Chem.  Have a nice day.  *
