 Q-Chem 5.0, Q-Chem, Inc., Pleasanton, CA (2017)
 Q-Chem 5.0.1 for Intel X86 EM64T Linux

User input:
--------------------------------------------------------------
$molecule
0  1
O -1.0318135204 -0.9325936365 0.8779567371
C -1.9782625907 -1.3051014497 0.1456134272
C -3.5191248883 -1.08323513 0.3896699613
C -4.018197009 0.3245895953 0.9270128458
C -3.0691945037 1.5772108237 0.9125005937
O -1.9552701269 1.4104300079 0.0353072176
C -1.0388158096 2.5736441293 0.1712574172
C 0.1630661588 2.3331943573 -0.8119498531
O 1.4264855254 2.2305576613 -0.0391186593
C 1.9721222972 0.914734196 -0.071290324
C 3.4134632588 0.9713445001 0.5428549696
C 4.1140799471 -0.4450604442 0.6176878106
C 3.1191949733 -1.6544729463 0.4764054551
O 2.9849074273 -2.4468775917 -0.4799093465
O -1.8343606514 -2.0412998392 -1.0640366693
O 2.4033770784 -1.7077400464 1.714088266
O 1.4022631384 -0.0713740904 -0.5866926574
C 1.2817102088 -2.6731038828 1.646677243
C 4.3536454335 1.6918368841 -0.5204263074
C 5.7859954764 1.92177842 0.1066836558
C 6.4079314949 0.4792982172 -0.0009264887
C 5.1743037642 -0.3321386727 -0.555451236
O 4.5619739077 0.6162288867 -1.5176997132
H 3.3861326111 1.4926272338 1.5160273359
H 4.6214046424 -0.5519452904 1.5931743885
H 3.8957002667 2.582508699 -0.993640103
H 6.3530135731 2.6552581138 -0.4880655797
H 5.7251733039 2.2826132078 1.1461276441
H 7.2414843967 0.4543015587 -0.72109607
H 6.7640980591 0.0942657966 0.9679121454
H 5.4066603619 -1.2924458133 -1.055302825
O -3.2629589193 2.6132233869 1.588534849
C -0.413976424 -2.3018730555 -1.4024533951
C -4.4235924239 -1.2568724509 -0.9098203051
C -5.855339342 -1.7255504068 -0.4416453068
C -6.4032147575 -0.3994277578 0.2043060706
C -5.2162716049 0.6008583082 -0.0924736485
O -4.6577352071 0.1277580934 -1.3776356163
H -3.8076034661 -1.8488995536 1.135807026
H -4.3964239691 0.2377679036 1.9613237896
H -0.0746531234 -3.248295542 -0.9369302556
H -3.9474717416 -1.8642232192 -1.7022720974
H -6.4625807129 -2.0307301389 -1.3088686209
H -5.8102041937 -2.5639688593 0.2716485074
H -7.3262909985 -0.057563673 -0.2899150295
H -6.5978617712 -0.4993567133 1.2841677439
H -5.5101107887 1.6665139265 -0.1610030209
H 0.2497155152 -1.471114442 -1.0778833117
H -0.3785755276 -2.4128349829 -2.5020068214
H 0.3515942406 -2.1189456918 1.3716496307
H 1.1761681419 -3.1247205546 2.6507365215
H 1.4916928027 -3.4594192413 0.895339208
H -0.0058680433 1.3912108675 -1.3784578027
H 0.2791869352 3.18518595 -1.5122976815
H -0.6587300985 2.6515688699 1.2137331333
H -1.5730909519 3.517877962 -0.0697819
$end

$rem
JOBTYPE                   OPT
METHOD                    B3LYP
DFT_D                     d3_op
BASIS                     STO-3G
GEOM_OPT_MAX_CYCLES       100
GEOM_OPT_TOL_GRADIENT     300
GEOM_OPT_TOL_DISPLACEMENT 1200
GEOM_OPT_TOL_ENERGY       100
SYMMETRY                  False
THRESH                    12
SCF_CONVERGENCE           8
MAX_SUB_FILE_NUM          128
MEM_STATIC                400
MEM_TOTAL                 4000
$end
--------------------------------------------------------------

   16   -1510.2845600868      4.73E-09 Convergence criterion met
 Total energy in the final basis set = -1510.28456009
   15   -1510.2807891268      4.43E-09 Convergence criterion met
 Total energy in the final basis set = -1510.28078913
   14   -1510.2798178012      7.91E-09 Convergence criterion met
 Total energy in the final basis set = -1510.27981780
   16   -1510.1076554918      2.36E-09 Convergence criterion met
 Total energy in the final basis set = -1510.10765549
   15   -1510.2803838653      2.84E-09 Convergence criterion met
 Total energy in the final basis set = -1510.28038387
   14   -1510.2828833232      9.28E-09 Convergence criterion met
 Total energy in the final basis set = -1510.28288332
   14   -1510.2843587370      6.57E-09 Convergence criterion met
 Total energy in the final basis set = -1510.28435874
   13   -1510.2869924662      8.01E-09 Convergence criterion met
   10   -1510.3025241431      9.54E-09 Convergence criterion met
 Total energy in the final basis set = -1510.30252414
   11   -1510.3025321678      2.24E-09 Convergence criterion met
 Total energy in the final basis set = -1510.30253217
    9   -1510.3025345123      9.88E-09 Convergence criterion met
 Total energy in the final basis set = -1510.30253451
    9   -1510.3025352080      8.76E-09 Convergence criterion met
 Total energy in the final basis set = -1510.30253521
    9   -1510.3025348186      6.23E-09 Convergence criterion met
 Total energy in the final basis set = -1510.30253482
    9   -1510.3025274454      5.26E-09 Convergence criterion met
 Total energy in the final basis set = -1510.30252745

             Standard Nuclear Orientation (Angstroms)
    I     Atom           X                Y                Z
 ----------------------------------------------------------------
    1      O      -0.6123777950    -0.3824205246     0.2654464767
    2      C      -1.3702122949    -1.0730761549    -0.4598357896
    3      C      -2.9097318864    -1.2668683985    -0.2352094102
    4      C      -3.4739693315    -0.3206234800     0.9014771195
    5      C      -2.3875071721     0.5893275463     1.5836427679
    6      O      -2.1959250559     1.7720262556     0.8001223100
    7      C      -1.1515423520     2.6305051661     1.4063478312
    8      C      -0.0529628938     2.9490324963     0.3299575876
    9      O       1.2482484627     2.3160965420     0.6691959973
   10      C       1.6790912761     1.4603136543    -0.3892664994
   11      C       3.1551877758     1.0070371302    -0.1186165583
   12      C       3.3840203659    -0.3281555057     0.7190449012
   13      C       2.1178065811    -1.0660984807     1.2770647393
   14      O       1.6211239143    -2.1281423119     0.8281682365
   15      O      -0.9737922093    -1.8007847672    -1.6049519299
   16      O       1.6794763826    -0.4018943380     2.4519405319
   17      O       0.9996506606     1.2225396344    -1.4168032557
   18      C       0.5444073036    -1.1289791063     3.0789030633
   19      C       3.8490594183     0.6100637433    -1.4917501728
   20      C       5.4153599871     0.6076788490    -1.2888567327
   21      C       5.6161675120    -0.7326497659    -0.4886817058
   22      C       4.1253002372    -1.2311463797    -0.3562298418
   23      O       3.5084438675    -0.8224005452    -1.6384450151
   24      H       3.6687452578     1.8493060873     0.3790317306
   25      H       4.0370073405    -0.1050589571     1.5822126151
   26      H       3.4806126829     1.1834765630    -2.3641250937
   27      H       5.9304247863     0.5791004143    -2.2621166175
   28      H       5.7621974813     1.4925354866    -0.7316145811
   29      H       6.2147111911    -1.4583380246    -1.0619861655
   30      H       6.0927189289    -0.5773247637     0.4923102293
   31      H       3.9909849618    -2.3183623709    -0.1954150858
   32      O      -1.8902557934     0.4183350418     2.7240919081
   33      C       0.4901552069    -1.6490868342    -1.8363160701
   34      C      -3.7677625030    -0.7933630861    -1.4849599206
   35      C      -5.2342754295    -1.3554734972    -1.3217370969
   36      C      -5.7949296175    -0.4154242386    -0.1912609072
   37      C      -4.5467171921     0.5160621913     0.0794675879
   38      O      -3.9254973812     0.6610429085    -1.2574175784
   39      H      -3.0981455667    -2.3318530255    -0.0062490704
   40      H      -3.9472623196    -0.9138949083     1.7035412403
   41      H       1.0612863058    -2.0645687315    -0.9746632960
   42      H      -3.2853817173    -0.9904648428    -2.4618814629
   43      H      -5.7984508432    -1.2393025187    -2.2609638055
   44      H      -5.2411104362    -2.4190461423    -1.0346414546
   45      H      -6.6494993137     0.1808079035    -0.5484726360
   46      H      -6.1022680797    -0.9689878948     0.7103737889
   47      H      -4.7808064242     1.5095160910     0.5072875167
   48      H       0.7614014098    -0.5742171135    -1.9469510867
   49      H       0.7074694700    -2.2093186580    -2.7625256572
   50      H      -0.3888090297    -0.5239227701     2.9789760459
   51      H       0.7920384546    -1.2721655576     4.1479714786
   52      H       0.4156212539    -2.1084033949     2.5784631987
   53      H      -0.3795311438     2.5691894227    -0.6639228453
   54      H       0.1223684894     4.0438448297     0.2745694067
   55      H      -0.7162129864     2.1055425391     2.2854989186
   56      H      -1.6321648483     3.5718475407     1.7471206249
 ----------------------------------------------------------------

    9   -1510.3025271671      7.01E-09 Convergence criterion met
 Total energy in the final basis set = -1510.30252717
 Final energy is   -1510.30252716709
 **  OPTIMIZATION CONVERGED  **

                    Orbital Energies (a.u.)
 --------------------------------------------------------------

 Alpha MOs
 -- Occupied --
-18.936 -18.929 -18.926 -18.925 -18.888 -18.884 -18.882 -18.870
-18.869 -18.864 -10.104 -10.098 -10.097 -10.094 -10.064 -10.062
-10.060 -10.058 -10.056 -10.055 -10.041 -10.038 -10.033 -10.032
-10.030 -10.021 -10.020 -10.020 -10.017 -10.016  -1.015  -1.007
 -1.004  -0.999  -0.971  -0.966  -0.939  -0.929  -0.928  -0.928
 -0.763  -0.759  -0.725  -0.719  -0.710  -0.704  -0.692  -0.648
 -0.640  -0.610  -0.592  -0.575  -0.543  -0.541  -0.537  -0.533
 -0.512  -0.507  -0.481  -0.466  -0.460  -0.452  -0.450  -0.438
 -0.432  -0.430  -0.428  -0.410  -0.409  -0.406  -0.399  -0.396
 -0.393  -0.367  -0.365  -0.363  -0.361  -0.352  -0.349  -0.344
 -0.340  -0.333  -0.329  -0.328  -0.325  -0.323  -0.319  -0.311
 -0.306  -0.305  -0.300  -0.296  -0.290  -0.283  -0.272  -0.272
 -0.265  -0.251  -0.241  -0.239  -0.238  -0.233  -0.230  -0.187
 -0.172  -0.163  -0.162  -0.154  -0.151  -0.148  -0.145  -0.144
 -0.139

          Ground-State Mulliken Net Atomic Charges

     Atom                 Charge (a.u.)
  ----------------------------------------
      1 O                    -0.219147
      2 C                     0.217900
      3 C                    -0.078461
      4 C                    -0.081419
      5 C                     0.224852
      6 O                    -0.170422
      7 C                    -0.053699
      8 C                    -0.055644
      9 O                    -0.166082
     10 C                     0.220668
     11 C                    -0.077387
     12 C                    -0.078113
     13 C                     0.218391
     14 O                    -0.220462
     15 O                    -0.170085
     16 O                    -0.166211
     17 O                    -0.211455
     18 C                    -0.150328
     19 C                     0.025038
     20 C                    -0.144440
     21 C                    -0.143981
     22 C                     0.024124
     23 O                    -0.188379
     24 H                     0.087209
     25 H                     0.086435
     26 H                     0.086181
     27 H                     0.078315
     28 H                     0.073398
     29 H                     0.078238
     30 H                     0.073564
     31 H                     0.088195
     32 O                    -0.231075
     33 C                    -0.153552
     34 C                     0.024831
     35 C                    -0.143821
     36 C                    -0.144382
     37 C                     0.026437
     38 O                    -0.187675
     39 H                     0.085559
     40 H                     0.083088
     41 H                     0.103882
     42 H                     0.089914
     43 H                     0.077636
     44 H                     0.073490
     45 H                     0.077126
     46 H                     0.072809
     47 H                     0.084714
     48 H                     0.106129
     49 H                     0.080016
     50 H                     0.114756
     51 H                     0.077573
     52 H                     0.091529
     53 H                     0.111080
     54 H                     0.082806
     55 H                     0.108356
     56 H                     0.081979
  ----------------------------------------
  Sum of atomic charges =     0.000000

                    Cartesian Multipole Moments
 -----------------------------------------------------------------
    Charge (ESU x 10^10)
                 0.0000
    Dipole Moment (Debye)
         X       0.6270      Y       0.7437      Z       0.7786
       Tot       1.2460
    Quadrupole Moments (Debye-Ang)
        XX    -137.3982     XY       6.0812     YY    -154.6073
        XZ      -1.4048     YZ      -0.8073     ZZ    -165.2881

 Total job time:  219.56s(wall), 10481.15s(cpu)
        *  Thank you very much for using Q-Chem.  Have a nice day.  *
