 Q-Chem 5.0, Q-Chem, Inc., Pleasanton, CA (2017)
 Q-Chem 5.0.1 for Intel X86 EM64T Linux

User input:
--------------------------------------------------------------
$molecule
0  1
O -3.94934 -3.66094 2.70899
C -3.26408 -4.56952 2.26188
C -3.36658 -6.02376 2.66595
C -4.77851 -6.60597 2.84301
C -5.93076 -5.71997 2.42418
O -5.47717 -4.72439 1.60657
C -6.48922 -3.77136 1.2649
C -5.91003 -2.69292 0.35516
O -5.99459 -1.41198 0.99932
C -4.80904 -0.86207 1.36157
C -4.93898 0.5746 1.80851
C -3.63104 1.22659 2.28022
C -2.35673 0.49509 1.9091
O -1.54023 0.8697 1.0799
O -2.31133 -4.38229 1.30031
O -1.95613 -0.43341 2.82131
O -3.7854 -1.49971 1.36099
C -0.6377 -0.78227 3.04712
C -5.36894 1.53478 0.68529
C -6.0337 2.7659 1.29691
C -4.83803 3.44229 1.93564
C -3.70965 2.5257 1.4451
O -4.16251 2.06247 0.19585
H -5.70226 0.58044 2.61971
H -3.60001 1.44766 3.37026
H -6.03986 1.06592 -0.06721
H -6.38897 3.39584 0.44987
H -6.88442 2.56147 1.98205
H -4.73928 4.46148 1.5003
H -4.86045 3.50069 3.04542
H -2.7464 3.0823 1.43812
O -7.11032 -5.99718 2.60475
C -1.929 -3.3024 0.5503
C -2.79785 -7.0447 1.64621
C -2.46442 -8.36421 2.34731
C -3.85074 -8.92749 2.57131
C -4.70284 -7.83484 1.92574
O -3.90965 -7.38456 0.8535
H -2.80181 -6.09306 3.62236
H -4.97107 -6.86909 3.90717
H -1.61386 -2.48104 1.20364
H -1.89467 -6.69927 1.10052
H -1.93459 -9.0196 1.61941
H -1.84237 -8.24952 3.26102
H -3.94969 -9.86622 1.98142
H -4.12212 -9.11869 3.63208
H -5.70661 -8.23368 1.65968
H -2.72438 -3.01144 -0.15791
H -1.05351 -3.59586 -0.06394
H -0.59952 -1.59249 3.8038
H -0.08044 0.09582 3.437
H -0.14277 -1.12734 2.11631
H -4.92492 -2.98507 -0.05679
H -6.55555 -2.61255 -0.54601
H -6.95864 -3.31848 2.16828
H -7.28434 -4.30366 0.69313
$end

$opt
CONSTRAINT
tors           1           2           3           4     +41.909
tors           3           4           5           6     +17.832
tors           4           5           6           7    -174.649
tors           5           6           7           8    +179.913
tors           6           7           8           9    -117.747
tors           7           8           9          10    +111.629
tors           8           9          10          11    +169.937
tors           9          10          11          12    +177.780
tors          11          12          13          14    +108.923
ENDCONSTRAINT
$end

$rem
JOBTYPE                   OPT
METHOD                    B3LYP
DFT_D                     d3_op
BASIS                     STO-3G
GEOM_OPT_MAX_CYCLES       100
GEOM_OPT_TOL_GRADIENT     300
GEOM_OPT_TOL_DISPLACEMENT 1200
GEOM_OPT_TOL_ENERGY       100
SYMMETRY                  False
THRESH                    12
SCF_CONVERGENCE           8
MAX_SUB_FILE_NUM          128
MEM_STATIC                400
MEM_TOTAL                 4000
$end
--------------------------------------------------------------

   16   -1510.1178731309      2.52E-09 Convergence criterion met
 Total energy in the final basis set = -1510.11787313
   15   -1510.1823521885      2.60E-09 Convergence criterion met
 Total energy in the final basis set = -1510.18235219
   14   -1510.2318310409      7.29E-09 Convergence criterion met
 Total energy in the final basis set = -1510.23183104
   14   -1510.2554159311      1.81E-09 Convergence criterion met
 Total energy in the final basis set = -1510.25541593
   14   -1510.2635838956      5.83E-09 Convergence criterion met
 Total energy in the final basis set = -1510.26358390
   14   -1510.2670281544      4.02E-09 Convergence criterion met
 Total energy in the final basis set = -1510.26702815
   14   -1510.2728727589      2.82E-09 Convergence criterion met
 Total energy in the final basis set = -1510.27287276
   13   -1510.2756964887      3.05E-09 Convergence criterion met
   11   -1510.2844700493      6.51E-09 Convergence criterion met
 Total energy in the final basis set = -1510.28447005
   11   -1510.2844892769      4.14E-09 Convergence criterion met
 Total energy in the final basis set = -1510.28448928
   10   -1510.2845111373      7.57E-09 Convergence criterion met
 Total energy in the final basis set = -1510.28451114
    9   -1510.2845233532      8.94E-09 Convergence criterion met
 Total energy in the final basis set = -1510.28452335
   10   -1510.2845307169      6.43E-09 Convergence criterion met
 Total energy in the final basis set = -1510.28453072
    9   -1510.2845326383      7.87E-09 Convergence criterion met
 Total energy in the final basis set = -1510.28453264

             Standard Nuclear Orientation (Angstroms)
    I     Atom           X                Y                Z
 ----------------------------------------------------------------
    1      O      -1.0318135204    -0.9325936365     0.8779567371
    2      C      -1.9782625907    -1.3051014497     0.1456134272
    3      C      -3.5191248883    -1.0832351300     0.3896699613
    4      C      -4.0181970090     0.3245895953     0.9270128458
    5      C      -3.0691945037     1.5772108237     0.9125005937
    6      O      -1.9552701269     1.4104300079     0.0353072176
    7      C      -1.0388158096     2.5736441293     0.1712574172
    8      C       0.1630661588     2.3331943573    -0.8119498531
    9      O       1.4264855254     2.2305576613    -0.0391186593
   10      C       1.9721222972     0.9147341960    -0.0712903240
   11      C       3.4134632588     0.9713445001     0.5428549696
   12      C       4.1140799471    -0.4450604442     0.6176878106
   13      C       3.1191949733    -1.6544729463     0.4764054551
   14      O       2.9849074273    -2.4468775917    -0.4799093465
   15      O      -1.8343606514    -2.0412998392    -1.0640366693
   16      O       2.4033770784    -1.7077400464     1.7140882660
   17      O       1.4022631384    -0.0713740904    -0.5866926574
   18      C       1.2817102088    -2.6731038828     1.6466772430
   19      C       4.3536454335     1.6918368841    -0.5204263074
   20      C       5.7859954764     1.9217784200     0.1066836558
   21      C       6.4079314949     0.4792982172    -0.0009264887
   22      C       5.1743037642    -0.3321386727    -0.5554512360
   23      O       4.5619739077     0.6162288867    -1.5176997132
   24      H       3.3861326111     1.4926272338     1.5160273359
   25      H       4.6214046424    -0.5519452904     1.5931743885
   26      H       3.8957002667     2.5825086990    -0.9936401030
   27      H       6.3530135731     2.6552581138    -0.4880655797
   28      H       5.7251733039     2.2826132078     1.1461276441
   29      H       7.2414843967     0.4543015587    -0.7210960700
   30      H       6.7640980591     0.0942657966     0.9679121454
   31      H       5.4066603619    -1.2924458133    -1.0553028250
   32      O      -3.2629589193     2.6132233869     1.5885348490
   33      C      -0.4139764240    -2.3018730555    -1.4024533951
   34      C      -4.4235924239    -1.2568724509    -0.9098203051
   35      C      -5.8553393420    -1.7255504068    -0.4416453068
   36      C      -6.4032147575    -0.3994277578     0.2043060706
   37      C      -5.2162716049     0.6008583082    -0.0924736485
   38      O      -4.6577352071     0.1277580934    -1.3776356163
   39      H      -3.8076034661    -1.8488995536     1.1358070260
   40      H      -4.3964239691     0.2377679036     1.9613237896
   41      H      -0.0746531234    -3.2482955420    -0.9369302556
   42      H      -3.9474717416    -1.8642232192    -1.7022720974
   43      H      -6.4625807129    -2.0307301389    -1.3088686209
   44      H      -5.8102041937    -2.5639688593     0.2716485074
   45      H      -7.3262909985    -0.0575636730    -0.2899150295
   46      H      -6.5978617712    -0.4993567133     1.2841677439
   47      H      -5.5101107887     1.6665139265    -0.1610030209
   48      H       0.2497155152    -1.4711144420    -1.0778833117
   49      H      -0.3785755276    -2.4128349829    -2.5020068214
   50      H       0.3515942406    -2.1189456918     1.3716496307
   51      H       1.1761681419    -3.1247205546     2.6507365215
   52      H       1.4916928027    -3.4594192413     0.8953392080
   53      H      -0.0058680433     1.3912108675    -1.3784578027
   54      H       0.2791869352     3.1851859500    -1.5122976815
   55      H      -0.6587300985     2.6515688699     1.2137331333
   56      H      -1.5730909519     3.5178779620    -0.0697819000
 ----------------------------------------------------------------

    9   -1510.2845333169      5.52E-09 Convergence criterion met
 Total energy in the final basis set = -1510.28453332
 Final energy is   -1510.28453331690
 **  OPTIMIZATION CONVERGED  **

                    Orbital Energies (a.u.)
 --------------------------------------------------------------

 Alpha MOs
 -- Occupied --
-18.942 -18.936 -18.931 -18.913 -18.893 -18.887 -18.886 -18.874
-18.869 -18.859 -10.113 -10.102 -10.099 -10.088 -10.077 -10.075
-10.061 -10.060 -10.056 -10.055 -10.042 -10.041 -10.038 -10.036
-10.033 -10.031 -10.021 -10.020 -10.019 -10.018  -1.023  -1.013
 -1.006  -0.993  -0.970  -0.970  -0.948  -0.936  -0.931  -0.921
 -0.763  -0.761  -0.729  -0.721  -0.713  -0.705  -0.698  -0.652
 -0.645  -0.615  -0.596  -0.580  -0.544  -0.542  -0.537  -0.536
 -0.518  -0.509  -0.490  -0.474  -0.462  -0.454  -0.451  -0.442
 -0.434  -0.430  -0.428  -0.418  -0.409  -0.403  -0.402  -0.398
 -0.391  -0.377  -0.373  -0.364  -0.361  -0.359  -0.351  -0.344
 -0.340  -0.339  -0.332  -0.330  -0.328  -0.324  -0.317  -0.311
 -0.308  -0.305  -0.303  -0.301  -0.298  -0.291  -0.275  -0.273
 -0.269  -0.259  -0.248  -0.240  -0.235  -0.234  -0.233  -0.186
 -0.179  -0.172  -0.166  -0.161  -0.151  -0.147  -0.145  -0.142
 -0.141

          Ground-State Mulliken Net Atomic Charges

     Atom                 Charge (a.u.)
  ----------------------------------------
      1 O                    -0.215648
      2 C                     0.221152
      3 C                    -0.079489
      4 C                    -0.078225
      5 C                     0.209046
      6 O                    -0.166447
      7 C                    -0.046512
      8 C                    -0.051841
      9 O                    -0.173528
     10 C                     0.227076
     11 C                    -0.074991
     12 C                    -0.080837
     13 C                     0.214825
     14 O                    -0.218572
     15 O                    -0.171911
     16 O                    -0.178845
     17 O                    -0.206224
     18 C                    -0.147112
     19 C                     0.024215
     20 C                    -0.144552
     21 C                    -0.142681
     22 C                     0.023592
     23 O                    -0.191255
     24 H                     0.089969
     25 H                     0.084285
     26 H                     0.084070
     27 H                     0.078263
     28 H                     0.074097
     29 H                     0.077821
     30 H                     0.073655
     31 H                     0.089447
     32 O                    -0.219183
     33 C                    -0.145406
     34 C                     0.022789
     35 C                    -0.143602
     36 C                    -0.144770
     37 C                     0.025168
     38 O                    -0.191250
     39 H                     0.082355
     40 H                     0.086090
     41 H                     0.081365
     42 H                     0.096427
     43 H                     0.077700
     44 H                     0.072763
     45 H                     0.078058
     46 H                     0.073757
     47 H                     0.083075
     48 H                     0.122654
     49 H                     0.085650
     50 H                     0.104581
     51 H                     0.077580
     52 H                     0.085583
     53 H                     0.109148
     54 H                     0.090238
     55 H                     0.095824
     56 H                     0.090564
  ----------------------------------------
  Sum of atomic charges =    -0.000000

                    Cartesian Multipole Moments
 -----------------------------------------------------------------
    Charge (ESU x 10^10)
                 0.0000
    Dipole Moment (Debye)
         X      -0.1030      Y       0.4461      Z       1.2550
       Tot       1.3359
    Quadrupole Moments (Debye-Ang)
        XX    -144.0996     XY      11.9128     YY    -156.4820
        XZ       3.3609     YZ      -5.7692     ZZ    -164.8086

 Total job time:  93.19s(wall), 4443.33s(cpu)
        *  Thank you very much for using Q-Chem.  Have a nice day.  *
