 Q-Chem 5.0, Q-Chem, Inc., Pleasanton, CA (2017)
 Q-Chem 5.0.1 for Intel X86 EM64T Linux

User input:
--------------------------------------------------------------
$molecule
0  1
O -5.585213064 -1.1379152275 1.7285578753
C -4.8448637799 -0.5920034104 0.8803926106
C -3.8334214372 0.571384364 1.1483426951
C -2.3933607744 0.4278685735 0.4918250206
C -2.219870361 -0.7118394285 -0.5747922388
O -1.5810800246 -1.8291125569 0.0699294849
C -0.9882886869 -2.7306446112 -0.9460320904
C 0.5631347254 -2.6835624842 -0.7700497777
O 0.992706029 -1.2963053491 -1.083439353
C 2.0726653357 -0.9003925309 -0.2356632052
C 2.75752953 0.3693209496 -0.8445679657
C 3.9295365781 0.8986886364 0.072574725
C 3.9505351017 0.2941989662 1.5256388882
O 4.8862404615 -0.3258691227 2.0727940106
O -4.8326852185 -0.9337844289 -0.5066409548
O 2.7686340536 0.7516754579 2.2053455577
O 2.4502568597 -1.5406474715 0.7727568279
C 2.7152478384 0.1641325311 3.5611024601
C 3.5804849822 -0.0795079638 -2.1299868165
C 4.1576819949 1.2001928949 -2.8562198723
C 5.3750213943 1.5629595026 -1.9245896548
C 5.2010645871 0.4904197621 -0.7815523569
O 4.7702582125 -0.7194174041 -1.5236944504
H 1.9999295561 1.1399573233 -1.0722997065
H 3.8603481736 1.9970794075 0.1743167368
H 3.0396814795 -0.7912950041 -2.7839987549
H 4.4869791928 0.9472273083 -3.8764876176
H 3.41192516 2.0093361409 -2.9179225122
H 6.3351322044 1.4191772914 -2.4456042594
H 5.3293706496 2.5955170357 -1.5429537573
H 6.100458434 0.2712660623 -0.1736194388
O -2.409275665 -0.6398860896 -1.808256086
C -5.7808730959 -2.0394929967 -0.7725125804
C -4.3047234527 1.9697736587 0.5413491502
C -3.5815825685 3.1099302082 1.3606327911
C -2.1084974038 2.9739984159 0.82242839
C -2.2780343589 1.8274620727 -0.2511859135
O -3.6463117966 2.0295539169 -0.7798663021
H -3.7411554383 0.6476244805 2.2463173325
H -1.6199651487 0.2891596161 1.2675576764
H -6.8240704222 -1.7489655743 -0.5324909266
H -5.4012733789 2.0827919806 0.4365803806
H -4.0118513279 4.0925936581 1.1096397768
H -3.6569441487 2.9568646039 2.4489294393
H -1.7652568876 3.9040131765 0.3424180945
H -1.3896752778 2.6973391683 1.6103558662
H -1.5432592666 1.8384008987 -1.0792821424
H -5.5244564233 -2.946646128 -0.1879330122
H -5.6955760649 -2.2568856873 -1.8530601324
H 1.8306607159 0.6067976514 4.0552244302
H 3.62654343 0.3987417023 4.148420258
H 2.6002212823 -0.9384506731 3.5141523426
H 0.864500919 -2.9402355276 0.2682989906
H 1.054614189 -3.3887413602 -1.4764772764
H -1.2920599728 -2.3782990765 -1.9564129658
H -1.3590665861 -3.7638942326 -0.7776650544
$end

$rem
JOBTYPE                   OPT
METHOD                    B3LYP
DFT_D                     d3_op
BASIS                     STO-3G
GEOM_OPT_MAX_CYCLES       100
GEOM_OPT_TOL_GRADIENT     300
GEOM_OPT_TOL_DISPLACEMENT 1200
GEOM_OPT_TOL_ENERGY       100
SYMMETRY                  False
THRESH                    12
SCF_CONVERGENCE           8
MAX_SUB_FILE_NUM          128
MEM_STATIC                400
MEM_TOTAL                 4000
$end
--------------------------------------------------------------

   16   -1510.2799890300      5.16E-09 Convergence criterion met
 Total energy in the final basis set = -1510.27998903
   13   -1510.2828745324      5.66E-09 Convergence criterion met
 Total energy in the final basis set = -1510.28287453
   13   -1510.2847861245      4.09E-09 Convergence criterion met
 Total energy in the final basis set = -1510.28478612
   13   -1510.2862756445      8.56E-09 Convergence criterion met
 Total energy in the final basis set = -1510.28627564
   13   -1510.2879009313      8.27E-09 Convergence criterion met
 Total energy in the final basis set = -1510.28790093
   14   -1510.2898260378      2.77E-09 Convergence criterion met
 Total energy in the final basis set = -1510.28982604
   14   -1510.2919878080      9.23E-09 Convergence criterion met
 Total energy in the final basis set = -1510.29198781
   14   -1510.2931343303      2.64E-09 Convergence criterion met
   13   -1510.3032680918      5.89E-09 Convergence criterion met
 Total energy in the final basis set = -1510.30326809
   12   -1510.3034303546      8.77E-09 Convergence criterion met
 Total energy in the final basis set = -1510.30343035
   12   -1510.3033975248      3.85E-09 Convergence criterion met
 Total energy in the final basis set = -1510.30339752
   11   -1510.3034342624      9.72E-09 Convergence criterion met
 Total energy in the final basis set = -1510.30343426
   11   -1510.3034353095      5.60E-09 Convergence criterion met
 Total energy in the final basis set = -1510.30343531
    9   -1510.3034370538      9.42E-09 Convergence criterion met
 Total energy in the final basis set = -1510.30343705

             Standard Nuclear Orientation (Angstroms)
    I     Atom           X                Y                Z
 ----------------------------------------------------------------
    1      O      -4.2205885168    -0.2303452035     2.0550931080
    2      C      -3.6219452602    -0.0308843596     0.9768286521
    3      C      -2.6001351908     1.1039344198     0.6391546607
    4      C      -1.3094252418     0.5778887804    -0.1121890469
    5      C      -1.2527073014    -0.9728915853    -0.2781530187
    6      O      -1.3723462258    -1.5610246812     1.0359059817
    7      C      -1.0997583673    -3.0130702255     0.9814185652
    8      C       0.4281384387    -3.2806798450     1.2609920333
    9      O       1.2375937711    -2.6582179241     0.1860749835
   10      C       1.6050110230    -1.3231333561     0.5369624237
   11      C       2.1743101820    -0.6213164111    -0.7388719248
   12      C       2.6135751780     0.8746420770    -0.4690298077
   13      C       2.3684623429     1.3716679446     1.0031187455
   14      O       3.2061125150     1.4948065754     1.9184494371
   15      O      -3.7957061396    -0.8334654569    -0.2012088845
   16      O       1.0081441683     1.8599536329     1.0903032921
   17      O       1.4838769431    -0.8229351934     1.6792131816
   18      C       0.7003405935     2.2701233716     2.4781024466
   19      C       3.5531174887    -1.2640190978    -1.1993343664
   20      C       3.8802820564    -0.7476676911    -2.6556374979
   21      C       4.3403621035     0.7284010951    -2.3599507491
   22      C       4.1645300635     0.7922925538    -0.7923098751
   23      O       4.5419323253    -0.5691315184    -0.3453366434
   24      H       1.4073911055    -0.6942803805    -1.5325371294
   25      H       2.0864555622     1.5624942660    -1.1536324511
   26      H       3.6105135570    -2.3610301672    -1.0596301331
   27      H       4.6923126856    -1.3436479122    -3.1014524313
   28      H       3.0008712915    -0.7965175127    -3.3173870372
   29      H       5.3954771192     0.8840648293    -2.6355026216
   30      H       3.7242786450     1.4798671822    -2.8790499780
   31      H       4.7769405777     1.5514006154    -0.2686250690
   32      O      -1.0504908401    -1.6259662077    -1.3238397709
   33      C      -4.7012522601    -1.9685716552     0.0797591970
   34      C      -3.1778853442     2.1081332714    -0.4541523223
   35      C      -2.2412506063     3.3818198574    -0.5041254125
   36      C      -0.9890778985     2.8143074217    -1.2718655901
   37      C      -1.4376740902     1.3176317921    -1.5040001018
   38      O      -2.8984251552     1.4186251445    -1.7311082161
   39      H      -2.3489062218     1.6252799739     1.5788239089
   40      H      -0.3845288548     0.9157363290     0.4133445724
   41      H      -5.6956450336    -1.6235865458     0.4292852895
   42      H      -4.2598924137     2.3231249467    -0.3560295074
   43      H      -2.7297158760     4.1945523818    -1.0650511726
   44      H      -1.9898388528     3.7498820964     0.5034439358
   45      H      -0.8284797494     3.3343697844    -2.2294503727
   46      H      -0.0694326594     2.8655370396    -0.6651753111
   47      H      -0.9523430886     0.7867241676    -2.3461608317
   48      H      -4.2746365630    -2.6473235882     0.8466587599
   49      H      -4.8124439402    -2.5140678733    -0.8754161754
   50      H      -0.2890367923     2.7617342327     2.4425141149
   51      H       1.4593636136     2.9773260131     2.8680950571
   52      H       0.6543887619     1.3873423853     3.1482496151
   53      H       0.7143981038    -2.8572141722     2.2471364475
   54      H       0.6372483186    -4.3693925287     1.2337886226
   55      H      -1.3702291494    -3.4152048553    -0.0184061467
   56      H      -1.7138422406    -3.4938689931     1.7700691128
 ----------------------------------------------------------------

    8   -1510.3034374689      6.77E-09 Convergence criterion met
 Total energy in the final basis set = -1510.30343747
 Final energy is   -1510.30343746895
 **  OPTIMIZATION CONVERGED  **

                    Orbital Energies (a.u.)
 --------------------------------------------------------------

 Alpha MOs
 -- Occupied --
-18.945 -18.940 -18.930 -18.927 -18.892 -18.891 -18.881 -18.878
-18.871 -18.870 -10.112 -10.104 -10.096 -10.094 -10.078 -10.074
-10.066 -10.064 -10.061 -10.061 -10.056 -10.049 -10.043 -10.040
-10.031 -10.023 -10.022 -10.016 -10.016 -10.010  -1.028  -1.012
 -1.010  -1.001  -0.974  -0.964  -0.950  -0.939  -0.935  -0.931
 -0.768  -0.757  -0.729  -0.722  -0.714  -0.703  -0.696  -0.665
 -0.657  -0.621  -0.599  -0.580  -0.550  -0.542  -0.539  -0.532
 -0.516  -0.507  -0.491  -0.476  -0.469  -0.463  -0.456  -0.441
 -0.432  -0.430  -0.426  -0.419  -0.413  -0.411  -0.409  -0.402
 -0.400  -0.381  -0.371  -0.369  -0.361  -0.358  -0.356  -0.352
 -0.345  -0.342  -0.339  -0.336  -0.329  -0.326  -0.318  -0.317
 -0.309  -0.308  -0.303  -0.300  -0.294  -0.287  -0.284  -0.279
 -0.272  -0.257  -0.251  -0.246  -0.245  -0.237  -0.226  -0.199
 -0.181  -0.172  -0.170  -0.163  -0.155  -0.153  -0.148  -0.145
 -0.137

          Ground-State Mulliken Net Atomic Charges

     Atom                 Charge (a.u.)
  ----------------------------------------
      1 O                    -0.214634
      2 C                     0.212186
      3 C                    -0.078997
      4 C                    -0.098435
      5 C                     0.210626
      6 O                    -0.179744
      7 C                    -0.053906
      8 C                    -0.052254
      9 O                    -0.169033
     10 C                     0.214208
     11 C                    -0.080073
     12 C                    -0.082885
     13 C                     0.221265
     14 O                    -0.206724
     15 O                    -0.167269
     16 O                    -0.176641
     17 O                    -0.206175
     18 C                    -0.127888
     19 C                     0.025732
     20 C                    -0.143623
     21 C                    -0.144011
     22 C                     0.025520
     23 O                    -0.188321
     24 H                     0.094501
     25 H                     0.084882
     26 H                     0.087997
     27 H                     0.079117
     28 H                     0.076145
     29 H                     0.078949
     30 H                     0.073803
     31 H                     0.088617
     32 O                    -0.218194
     33 C                    -0.127618
     34 C                     0.025761
     35 C                    -0.143311
     36 C                    -0.148758
     37 C                     0.022642
     38 O                    -0.188683
     39 H                     0.081138
     40 H                     0.110199
     41 H                     0.089238
     42 H                     0.080313
     43 H                     0.076010
     44 H                     0.070429
     45 H                     0.072447
     46 H                     0.080192
     47 H                     0.082476
     48 H                     0.084671
     49 H                     0.091713
     50 H                     0.086909
     51 H                     0.093246
     52 H                     0.097003
     53 H                     0.100585
     54 H                     0.091384
     55 H                     0.098940
     56 H                     0.088337
  ----------------------------------------
  Sum of atomic charges =    -0.000000

                    Cartesian Multipole Moments
 -----------------------------------------------------------------
    Charge (ESU x 10^10)
                -0.0000
    Dipole Moment (Debye)
         X      -0.0820      Y      -0.1312      Z      -0.8198
       Tot       0.8343
    Quadrupole Moments (Debye-Ang)
        XX    -169.4482     XY       3.4224     YY    -144.4458
        XZ      -9.1145     YZ      -2.8312     ZZ    -165.5262

 Total job time:  97.32s(wall), 4629.89s(cpu)
        *  Thank you very much for using Q-Chem.  Have a nice day.  *
