 Q-Chem 5.0, Q-Chem, Inc., Pleasanton, CA (2017)
 Q-Chem 5.0.1 for Intel X86 EM64T Linux

User input:
--------------------------------------------------------------
$molecule
0  1
O -3.94934 -3.66094 2.70899
C -3.26408 -4.56952 2.26188
C -3.36658 -6.02376 2.66595
C -3.34955 -7.06911 1.53865
C -3.0534 -6.5555 0.14704
O -4.21719 -6.41936 -0.55474
C -4.01706 -6.35929 -1.97093
C -4.62794 -7.58587 -2.64059
O -3.94242 -8.77173 -2.20852
C -4.72061 -9.87161 -2.05422
C -3.92222 -11.15122 -1.97776
C -4.75496 -12.42111 -1.74929
C -6.24575 -12.28507 -1.9854
O -6.90339 -12.95498 -2.76852
O -2.22176 -4.23961 1.45228
O -6.93036 -11.67555 -0.97532
O -5.93582 -9.77314 -2.05301
C -8.3059 -11.59548 -0.89574
C -3.18102 -11.50856 -3.27795
C -1.98792 -12.40342 -2.95094
C -2.6962 -13.68235 -2.55114
C -4.14965 -13.30231 -2.86395
O -4.04424 -12.40002 -3.93944
H -3.18953 -11.00918 -1.15057
H -4.61489 -12.85899 -0.73617
H -2.85248 -10.62031 -3.86038
H -1.44654 -12.58037 -3.90809
H -1.27634 -12.00081 -2.19826
H -2.34491 -14.49976 -3.21925
H -2.57646 -13.97971 -1.48677
H -4.74811 -14.22032 -3.05368
O -1.9253 -6.53165 -0.33648
C -1.94018 -2.9602 1.02149
C -2.12176 -6.45761 3.46669
C -2.45101 -7.67762 4.3258
C -2.54744 -8.74989 3.26264
C -2.16739 -7.93976 2.01857
O -1.25124 -6.9893 2.50075
H -4.26151 -6.11532 3.322
H -4.27548 -7.68729 1.49845
H -1.73736 -2.29885 1.89077
H -1.70789 -5.64361 4.10222
H -1.56019 -7.88759 4.9603
H -3.34666 -7.56818 4.97444
H -1.77165 -9.52038 3.46995
H -3.54339 -9.23277 3.16123
H -1.79286 -8.62108 1.22234
H -2.79334 -2.55913 0.43364
H -1.04023 -2.98515 0.37352
H -8.58501 -11.04051 0.02323
H -8.74763 -12.61361 -0.8462
H -8.70828 -11.05319 -1.77795
H -5.71707 -7.56107 -2.41649
H -4.49779 -7.48211 -3.73944
H -2.96189 -6.28874 -2.31552
H -4.52168 -5.44609 -2.35225
$end

$opt
CONSTRAINT
tors           1           2           3           4    +135.242
tors           3           4           5           6    -100.129
tors           4           5           6           7    -161.107
tors           5           6           7           8    +114.009
tors           6           7           8           9     -64.284
tors           7           8           9          10    +143.876
tors           8           9          10          11    +164.085
tors           9          10          11          12    +177.780
tors          11          12          13          14    +122.758
ENDCONSTRAINT
$end

$rem
JOBTYPE                   OPT
METHOD                    B3LYP
DFT_D                     d3_op
BASIS                     STO-3G
GEOM_OPT_MAX_CYCLES       100
GEOM_OPT_TOL_GRADIENT     300
GEOM_OPT_TOL_DISPLACEMENT 1200
GEOM_OPT_TOL_ENERGY       100
SYMMETRY                  False
THRESH                    12
SCF_CONVERGENCE           8
MAX_SUB_FILE_NUM          128
MEM_STATIC                400
MEM_TOTAL                 4000
$end
--------------------------------------------------------------

   15   -1510.1432610671      6.02E-09 Convergence criterion met
 Total energy in the final basis set = -1510.14326107
   14   -1510.2136957585      6.06E-09 Convergence criterion met
 Total energy in the final basis set = -1510.21369576
   14   -1510.2502939066      6.93E-09 Convergence criterion met
 Total energy in the final basis set = -1510.25029391
   14   -1510.2660796343      6.77E-09 Convergence criterion met
 Total energy in the final basis set = -1510.26607963
   13   -1510.2727915306      7.53E-09 Convergence criterion met
 Total energy in the final basis set = -1510.27279153
   13   -1510.2754291404      3.29E-09 Convergence criterion met
 Total energy in the final basis set = -1510.27542914
   13   -1510.2770198266      2.23E-09 Convergence criterion met
 Total energy in the final basis set = -1510.27701983
   13   -1510.2779279048      3.15E-09 Convergence criterion met
   11   -1510.2801209853      8.75E-09 Convergence criterion met
 Total energy in the final basis set = -1510.28012099
   11   -1510.2801698007      6.41E-09 Convergence criterion met
 Total energy in the final basis set = -1510.28016980
   10   -1510.2801919452      6.92E-09 Convergence criterion met
 Total energy in the final basis set = -1510.28019195
   10   -1510.2801959357      8.74E-09 Convergence criterion met
 Total energy in the final basis set = -1510.28019594
    9   -1510.2802025164      8.63E-09 Convergence criterion met
 Total energy in the final basis set = -1510.28020252
    9   -1510.2802036096      4.40E-09 Convergence criterion met
 Total energy in the final basis set = -1510.28020361

             Standard Nuclear Orientation (Angstroms)
    I     Atom           X                Y                Z
 ----------------------------------------------------------------
    1      O      -5.5852130640    -1.1379152275     1.7285578753
    2      C      -4.8448637799    -0.5920034104     0.8803926106
    3      C      -3.8334214372     0.5713843640     1.1483426951
    4      C      -2.3933607744     0.4278685735     0.4918250206
    5      C      -2.2198703610    -0.7118394285    -0.5747922388
    6      O      -1.5810800246    -1.8291125569     0.0699294849
    7      C      -0.9882886869    -2.7306446112    -0.9460320904
    8      C       0.5631347254    -2.6835624842    -0.7700497777
    9      O       0.9927060290    -1.2963053491    -1.0834393530
   10      C       2.0726653357    -0.9003925309    -0.2356632052
   11      C       2.7575295300     0.3693209496    -0.8445679657
   12      C       3.9295365781     0.8986886364     0.0725747250
   13      C       3.9505351017     0.2941989662     1.5256388882
   14      O       4.8862404615    -0.3258691227     2.0727940106
   15      O      -4.8326852185    -0.9337844289    -0.5066409548
   16      O       2.7686340536     0.7516754579     2.2053455577
   17      O       2.4502568597    -1.5406474715     0.7727568279
   18      C       2.7152478384     0.1641325311     3.5611024601
   19      C       3.5804849822    -0.0795079638    -2.1299868165
   20      C       4.1576819949     1.2001928949    -2.8562198723
   21      C       5.3750213943     1.5629595026    -1.9245896548
   22      C       5.2010645871     0.4904197621    -0.7815523569
   23      O       4.7702582125    -0.7194174041    -1.5236944504
   24      H       1.9999295561     1.1399573233    -1.0722997065
   25      H       3.8603481736     1.9970794075     0.1743167368
   26      H       3.0396814795    -0.7912950041    -2.7839987549
   27      H       4.4869791928     0.9472273083    -3.8764876176
   28      H       3.4119251600     2.0093361409    -2.9179225122
   29      H       6.3351322044     1.4191772914    -2.4456042594
   30      H       5.3293706496     2.5955170357    -1.5429537573
   31      H       6.1004584340     0.2712660623    -0.1736194388
   32      O      -2.4092756650    -0.6398860896    -1.8082560860
   33      C      -5.7808730959    -2.0394929967    -0.7725125804
   34      C      -4.3047234527     1.9697736587     0.5413491502
   35      C      -3.5815825685     3.1099302082     1.3606327911
   36      C      -2.1084974038     2.9739984159     0.8224283900
   37      C      -2.2780343589     1.8274620727    -0.2511859135
   38      O      -3.6463117966     2.0295539169    -0.7798663021
   39      H      -3.7411554383     0.6476244805     2.2463173325
   40      H      -1.6199651487     0.2891596161     1.2675576764
   41      H      -6.8240704222    -1.7489655743    -0.5324909266
   42      H      -5.4012733789     2.0827919806     0.4365803806
   43      H      -4.0118513279     4.0925936581     1.1096397768
   44      H      -3.6569441487     2.9568646039     2.4489294393
   45      H      -1.7652568876     3.9040131765     0.3424180945
   46      H      -1.3896752778     2.6973391683     1.6103558662
   47      H      -1.5432592666     1.8384008987    -1.0792821424
   48      H      -5.5244564233    -2.9466461280    -0.1879330122
   49      H      -5.6955760649    -2.2568856873    -1.8530601324
   50      H       1.8306607159     0.6067976514     4.0552244302
   51      H       3.6265434300     0.3987417023     4.1484202580
   52      H       2.6002212823    -0.9384506731     3.5141523426
   53      H       0.8645009190    -2.9402355276     0.2682989906
   54      H       1.0546141890    -3.3887413602    -1.4764772764
   55      H      -1.2920599728    -2.3782990765    -1.9564129658
   56      H      -1.3590665861    -3.7638942326    -0.7776650544
 ----------------------------------------------------------------

    9   -1510.2802037276      2.58E-09 Convergence criterion met
 Total energy in the final basis set = -1510.28020373
 Final energy is   -1510.28020372755
 **  OPTIMIZATION CONVERGED  **

                    Orbital Energies (a.u.)
 --------------------------------------------------------------

 Alpha MOs
 -- Occupied --
-18.940 -18.938 -18.927 -18.919 -18.890 -18.888 -18.887 -18.876
-18.874 -18.862 -10.108 -10.099 -10.098 -10.091 -10.075 -10.071
-10.065 -10.062 -10.062 -10.060 -10.057 -10.055 -10.042 -10.039
-10.038 -10.033 -10.022 -10.022 -10.021 -10.020  -1.022  -1.013
 -1.007  -0.998  -0.972  -0.971  -0.946  -0.936  -0.932  -0.925
 -0.765  -0.763  -0.730  -0.723  -0.715  -0.706  -0.699  -0.662
 -0.655  -0.619  -0.599  -0.579  -0.547  -0.544  -0.539  -0.537
 -0.514  -0.512  -0.489  -0.478  -0.466  -0.457  -0.456  -0.445
 -0.433  -0.432  -0.419  -0.417  -0.413  -0.411  -0.406  -0.403
 -0.402  -0.376  -0.375  -0.366  -0.362  -0.358  -0.353  -0.347
 -0.345  -0.342  -0.340  -0.334  -0.333  -0.327  -0.325  -0.312
 -0.309  -0.308  -0.305  -0.302  -0.301  -0.289  -0.278  -0.273
 -0.271  -0.256  -0.248  -0.246  -0.245  -0.235  -0.235  -0.186
 -0.178  -0.170  -0.165  -0.162  -0.157  -0.151  -0.146  -0.145
 -0.142

          Ground-State Mulliken Net Atomic Charges

     Atom                 Charge (a.u.)
  ----------------------------------------
      1 O                    -0.214372
      2 C                     0.205771
      3 C                    -0.079901
      4 C                    -0.078256
      5 C                     0.216279
      6 O                    -0.178495
      7 C                    -0.054887
      8 C                    -0.052172
      9 O                    -0.175219
     10 C                     0.217852
     11 C                    -0.076468
     12 C                    -0.081529
     13 C                     0.216863
     14 O                    -0.216874
     15 O                    -0.164129
     16 O                    -0.179414
     17 O                    -0.205562
     18 C                    -0.128739
     19 C                     0.024501
     20 C                    -0.144275
     21 C                    -0.142970
     22 C                     0.023686
     23 O                    -0.191219
     24 H                     0.086960
     25 H                     0.082979
     26 H                     0.084549
     27 H                     0.078665
     28 H                     0.073916
     29 H                     0.078307
     30 H                     0.073338
     31 H                     0.091393
     32 O                    -0.206076
     33 C                    -0.127196
     34 C                     0.026477
     35 C                    -0.142867
     36 C                    -0.145238
     37 C                     0.027248
     38 O                    -0.183622
     39 H                     0.085227
     40 H                     0.087614
     41 H                     0.089318
     42 H                     0.083609
     43 H                     0.078263
     44 H                     0.074519
     45 H                     0.077868
     46 H                     0.074726
     47 H                     0.085551
     48 H                     0.088572
     49 H                     0.093962
     50 H                     0.084496
     51 H                     0.087541
     52 H                     0.090891
     53 H                     0.102849
     54 H                     0.085676
     55 H                     0.104804
     56 H                     0.085208
  ----------------------------------------
  Sum of atomic charges =    -0.000000

                    Cartesian Multipole Moments
 -----------------------------------------------------------------
    Charge (ESU x 10^10)
                -0.0000
    Dipole Moment (Debye)
         X      -0.6148      Y       1.2773      Z      -0.3826
       Tot       1.4683
    Quadrupole Moments (Debye-Ang)
        XX    -173.2055     XY      10.4455     YY    -150.1584
        XZ      -6.1373     YZ       7.5194     ZZ    -160.8729

 Total job time:  55.05s(wall), 2620.74s(cpu)
        *  Thank you very much for using Q-Chem.  Have a nice day.  *
