 Q-Chem 5.0, Q-Chem, Inc., Pleasanton, CA (2017)
 Q-Chem 5.0.1 for Intel X86 EM64T Linux

User input:
--------------------------------------------------------------
$molecule
0  1
O 2.8058798232 -0.3503095525 -2.1984614085
C 3.1552324112 0.9076404097 -1.6405775429
C 2.1527712208 0.9827505039 -0.2632039003
C 1.4376144847 -0.7308207186 -0.1073620367
C 2.1164998334 -1.9479444457 -0.6668403878
O 1.0389341478 -2.9324560906 -1.0130795601
C 0.5596910267 -3.6917482151 0.1876018958
C -0.2556470082 -2.9309369055 1.3263239466
O -0.246945051 -1.4630789164 1.1540938645
C -1.4368009135 -1.0115206247 0.4561538924
C -1.4539722144 0.5574285731 0.1827537883
C -2.742935027 1.1074132395 -0.5453828651
C -3.9379246582 0.1223826895 -0.7501728044
O -5.1026836692 0.3063718468 -0.3333879689
O 3.4786819147 2.1613872525 -1.872498334
O -3.5879098578 -0.8243159522 -1.7672031411
O -2.3696442167 -1.7980442592 0.1934222546
C -4.773868663 -1.6526602663 -2.0834881628
C -1.5066809226 1.3842077393 1.5593992995
C -0.9922947716 2.8624982227 1.3859118388
C -2.041759089 3.4131279816 0.3618783883
C -3.1421528365 2.2787468251 0.4134680273
O -2.9645960584 1.6329124266 1.7418539068
H -0.6200293106 0.8688270249 -0.4798906896
H -2.4734546589 1.4725597478 -1.5508351857
H -1.1078824441 0.8615714512 2.4527342621
H -1.1507493594 3.3545806948 2.3586832914
H 0.0581248028 3.0087764105 1.0895860697
H -2.4347964075 4.3801944161 0.7048857277
H -1.6506435411 3.5236586793 -0.6619594342
H -4.1728367956 2.6286122482 0.2371645094
O 3.2906190914 -2.296933329 -0.8421918565
C 4.339437153 2.1559906898 -3.0424017253
C 2.9503340385 1.1365279067 0.9271116824
C 2.255750123 1.4280113854 2.2871359368
C 1.7137177372 0.0142109562 2.6862924552
C 2.1776645968 -0.8586235521 1.4606282029
O 3.4786788632 -0.2474997713 1.1220960289
H 1.3284575458 1.7798059178 -0.4717083911
H 0.5113114288 -0.5593973465 -0.66077933
H 3.7570321333 1.8142369145 -3.9140941301
H 3.7605503526 1.8379750658 0.6938094139
H 3.041763401 1.7251184419 2.9943776896
H 1.5016639211 2.2211733455 2.236148338
H 2.244505288 -0.3292081504 3.5954664041
H 0.6350096059 -0.0677847562 2.8594587026
H 2.35926081 -1.9184125367 1.7442409817
H 5.1956764017 1.4775197965 -2.8750464941
H 4.6552091823 3.1950878358 -3.121386703
H -4.4472723805 -2.3497990756 -2.8748661381
H -5.6161668265 -1.0325806562 -2.4557988137
H -5.1211412693 -2.2279902493 -1.2011906223
H -1.2917484648 -3.2797963146 1.3841837847
H 0.271457056 -3.1002865316 2.2892038031
H 1.4612356358 -4.1937538786 0.6282684737
H -0.0941533555 -4.5246142951 -0.2181987451
$end

$rem
JOBTYPE                   OPT
METHOD                    B3LYP
DFT_D                     d3_op
BASIS                     STO-3G
GEOM_OPT_MAX_CYCLES       100
GEOM_OPT_TOL_GRADIENT     300
GEOM_OPT_TOL_DISPLACEMENT 1200
GEOM_OPT_TOL_ENERGY       100
SYMMETRY                  False
THRESH                    12
SCF_CONVERGENCE           8
MAX_SUB_FILE_NUM          128
MEM_STATIC                400
MEM_TOTAL                 4000
$end
--------------------------------------------------------------

   17   -1510.0146540334      6.22E-09 Convergence criterion met
 Total energy in the final basis set = -1510.01465403
   15   -1510.0714223262      5.17E-09 Convergence criterion met
 Total energy in the final basis set = -1510.07142233
   15   -1510.1302997755      2.73E-09 Convergence criterion met
 Total energy in the final basis set = -1510.13029978
   14   -1510.1711319433      8.08E-09 Convergence criterion met
 Total energy in the final basis set = -1510.17113194
   14   -1510.2002020539      5.96E-09 Convergence criterion met
 Total energy in the final basis set = -1510.20020205
   14   -1510.2202206941      6.30E-09 Convergence criterion met
 Total energy in the final basis set = -1510.22022069
   13   -1510.2343409901      7.67E-09 Convergence criterion met
 Total energy in the final basis set = -1510.23434099
   13   -1510.2440364514      6.60E-09 Convergence criterion met
   11   -1510.3026389913      6.95E-09 Convergence criterion met
 Total energy in the final basis set = -1510.30263899
   12   -1510.3026637712      1.94E-09 Convergence criterion met
 Total energy in the final basis set = -1510.30266377
   11   -1510.3026697634      9.28E-09 Convergence criterion met
 Total energy in the final basis set = -1510.30266976
   11   -1510.3026779459      4.36E-09 Convergence criterion met
 Total energy in the final basis set = -1510.30267795
   11   -1510.3026898934      6.90E-09 Convergence criterion met
 Total energy in the final basis set = -1510.30268989
   11   -1510.3026936121      2.98E-09 Convergence criterion met
 Total energy in the final basis set = -1510.30269361

             Standard Nuclear Orientation (Angstroms)
    I     Atom           X                Y                Z
 ----------------------------------------------------------------
    1      O       3.6512930361    -1.3251568178    -0.2561775365
    2      C       3.4599470436    -0.6275730964    -1.2780858983
    3      C       2.3577489601     0.4641158297    -1.4775900420
    4      C       1.2429804325     0.3992244881    -0.3609135570
    5      C       1.3297949094    -0.8508243679     0.5794055883
    6      O       0.9953410962    -2.0088604400    -0.2171866512
    7      C       0.8657644684    -3.2090062008     0.6347079852
    8      C      -0.6561083817    -3.4592994122     0.9564517432
    9      O      -1.1806497798    -2.3006550606     1.7181476120
   10      C      -1.6808215555    -1.2985488464     0.8333068937
   11      C      -1.8971212046     0.0113586145     1.6568930512
   12      C      -2.4315078472     1.2085634991     0.7744747977
   13      C      -2.6550390152     0.8508582493    -0.7410654005
   14      O      -3.7325595617     0.5988362875    -1.3159486027
   15      O       4.2653658462    -0.6948302992    -2.4569370383
   16      O      -1.4050269755     1.0499210939    -1.4452044711
   17      O      -1.9105921020    -1.4635533721    -0.3876092298
   18      C      -1.5578929658     0.6771421324    -2.8685696712
   19      C      -3.0744780179    -0.1382542849     2.7161736928
   20      C      -2.9731969019     1.0627526781     3.7364781523
   21      C      -3.5021948209     2.2546105474     2.8547400137
   22      C      -3.8116813532     1.5144850396     1.4943148515
   23      O      -4.2821143083     0.1758227672     1.9213174608
   24      H      -0.9400860694     0.2567901259     2.1528659648
   25      H      -1.7408014665     2.0681632719     0.8276923739
   26      H      -3.1496380283    -1.1450372848     3.1709901185
   27      H      -3.6229814711     0.8828071989     4.6077158213
   28      H      -1.9414620098     1.2177250090     4.0902392139
   29      H      -4.4215223813     2.6925102348     3.2749418325
   30      H      -2.7544537476     3.0536125902     2.7281380297
   31      H      -4.5667200531     1.9967483966     0.8439085434
   32      O       1.5026775698    -0.8713777803     1.8164141314
   33      C       5.3343756995    -1.7059070729    -2.2827796840
   34      C       2.9686622652     1.9077731371    -1.2009439764
   35      C       1.9121436266     2.9968982686    -1.6438980238
   36      C       0.8650386466     2.9061748169    -0.4730977614
   37      C       1.5027032043     1.7605400483     0.4067541647
   38      O       2.9617266918     1.9862898310     0.2758734394
   39      H       1.9460720251     0.3816622786    -2.4991017754
   40      H       0.2244669395     0.4215420969    -0.8117154768
   41      H       4.9127692609    -2.7216015771    -2.1378455498
   42      H       3.9921989760     2.0528181280    -1.5985133489
   43      H       2.3839314084     3.9910353999    -1.6949784904
   44      H       1.4698635878     2.7643145126    -2.6257887144
   45      H       0.7998629758     3.8506671470     0.0894671577
   46      H      -0.1362817527     2.6137060103    -0.8341621480
   47      H       1.2100410054     1.7450370645     1.4744636276
   48      H       5.9846359719    -1.4681518691    -1.4163443601
   49      H       5.9311662214    -1.6826599295    -3.2130300419
   50      H      -0.5994174818     0.9306291547    -3.3576228313
   51      H      -2.3849944715     1.2385874346    -3.3478829114
   52      H      -1.7548566573    -0.4093334182    -2.9737967785
   53      H      -1.2300777759    -3.5907407620     0.0144982719
   54      H      -0.7733825120    -4.3510583937     1.6049651663
   55      H       1.4275334639    -3.0622473342     1.5819621609
   56      H       1.2783757035    -4.0706384601     0.0705756525
 ----------------------------------------------------------------

    9   -1510.3026941612      9.69E-09 Convergence criterion met
 Total energy in the final basis set = -1510.30269416
 Final energy is   -1510.30269416121
 **  OPTIMIZATION CONVERGED  **

                    Orbital Energies (a.u.)
 --------------------------------------------------------------

 Alpha MOs
 -- Occupied --
-18.942 -18.938 -18.938 -18.917 -18.889 -18.889 -18.880 -18.879
-18.876 -18.863 -10.109 -10.103 -10.100 -10.090 -10.074 -10.066
-10.066 -10.066 -10.062 -10.060 -10.056 -10.048 -10.041 -10.039
-10.034 -10.021 -10.020 -10.015 -10.015 -10.007  -1.024  -1.014
 -1.009  -0.997  -0.972  -0.964  -0.947  -0.938  -0.937  -0.927
 -0.766  -0.756  -0.727  -0.719  -0.713  -0.703  -0.694  -0.664
 -0.663  -0.617  -0.597  -0.576  -0.548  -0.541  -0.538  -0.531
 -0.514  -0.506  -0.489  -0.472  -0.469  -0.458  -0.452  -0.446
 -0.433  -0.427  -0.426  -0.416  -0.414  -0.413  -0.410  -0.402
 -0.398  -0.379  -0.373  -0.368  -0.359  -0.357  -0.352  -0.350
 -0.343  -0.340  -0.337  -0.334  -0.328  -0.327  -0.319  -0.315
 -0.309  -0.306  -0.302  -0.298  -0.295  -0.285  -0.280  -0.275
 -0.269  -0.255  -0.253  -0.249  -0.238  -0.236  -0.226  -0.194
 -0.180  -0.179  -0.165  -0.157  -0.154  -0.152  -0.146  -0.144
 -0.138

          Ground-State Mulliken Net Atomic Charges

     Atom                 Charge (a.u.)
  ----------------------------------------
      1 O                    -0.208238
      2 C                     0.214462
      3 C                    -0.077852
      4 C                    -0.098097
      5 C                     0.211789
      6 O                    -0.181036
      7 C                    -0.053484
      8 C                    -0.051840
      9 O                    -0.169637
     10 C                     0.214782
     11 C                    -0.080347
     12 C                    -0.082984
     13 C                     0.221168
     14 O                    -0.207637
     15 O                    -0.169741
     16 O                    -0.176523
     17 O                    -0.206652
     18 C                    -0.127359
     19 C                     0.025899
     20 C                    -0.143448
     21 C                    -0.144167
     22 C                     0.025574
     23 O                    -0.188124
     24 H                     0.093621
     25 H                     0.085340
     26 H                     0.087951
     27 H                     0.078941
     28 H                     0.076347
     29 H                     0.078612
     30 H                     0.073647
     31 H                     0.088071
     32 O                    -0.219396
     33 C                    -0.128295
     34 C                     0.024947
     35 C                    -0.143536
     36 C                    -0.152349
     37 C                     0.022171
     38 O                    -0.192348
     39 H                     0.083587
     40 H                     0.107959
     41 H                     0.089085
     42 H                     0.081721
     43 H                     0.075800
     44 H                     0.070372
     45 H                     0.070720
     46 H                     0.084791
     47 H                     0.081211
     48 H                     0.091133
     49 H                     0.090880
     50 H                     0.086457
     51 H                     0.091532
     52 H                     0.097067
     53 H                     0.098245
     54 H                     0.090606
     55 H                     0.102031
     56 H                     0.086573
  ----------------------------------------
  Sum of atomic charges =    -0.000000

                    Cartesian Multipole Moments
 -----------------------------------------------------------------
    Charge (ESU x 10^10)
                -0.0000
    Dipole Moment (Debye)
         X       0.9056      Y       0.0636      Z      -1.2658
       Tot       1.5577
    Quadrupole Moments (Debye-Ang)
        XX    -170.0430     XY      -7.8010     YY    -146.8806
        XZ     -12.5751     YZ       0.3652     ZZ    -155.1608

 Total job time:  204.15s(wall), 9754.23s(cpu)
        *  Thank you very much for using Q-Chem.  Have a nice day.  *
