 Q-Chem 5.0, Q-Chem, Inc., Pleasanton, CA (2017)
 Q-Chem 5.0.1 for Intel X86 EM64T Linux

User input:
--------------------------------------------------------------
$molecule
0  1
O 4.3218471496 -1.6180366405 0.8305982899
C 4.6505000214 -1.0642878577 -0.2411830113
C 4.0659366407 0.2597646767 -0.8439772827
C 2.7663560155 0.7359454259 -0.0849127474
C 2.0112168773 -0.3560986576 0.750612981
O 1.8002239743 -1.5094962719 -0.0832953159
C 0.7706963067 -2.3819020465 0.525330177
C -0.5793289937 -2.17967621 -0.2444308977
O -1.0701403778 -0.847261991 0.1595183718
C -2.337815192 -0.5854232342 -0.5303792594
C -3.5803297536 -0.7970999087 0.4320939735
C -4.4653416441 0.4975717881 0.6413735911
C -3.7556828454 1.8645949263 0.3452721992
O -4.2586770666 3.0061029562 0.4171308644
O 5.6756163099 -1.5474145292 -1.1147233665
O -2.3561143908 1.6276198043 0.1548684951
O -2.4055151765 -0.3815365145 -1.7596010944
C -1.6268148346 2.8828920424 -0.1247935398
C -4.628625295 -1.7102939867 -0.341976386
C -5.8247169476 -2.0899461983 0.620441476
C -6.6774497636 -0.7666335257 0.5946595513
C -5.736895647 0.170111887 -0.2582959215
O -5.2234257091 -0.7473721663 -1.3000727792
H -3.2331917113 -1.2254166896 1.3878290602
H -4.7830789053 0.5578186092 1.699832578
H -4.177860697 -2.562226784 -0.8871784747
H -6.388661024 -2.9458928459 0.2176410179
H -5.4703598105 -2.3455240329 1.6320745904
H -7.6363854531 -0.9181923025 0.0732875174
H -6.8789330921 -0.3639232082 1.6000332475
H -6.2234371029 1.0543112041 -0.7142816996
O 1.576828196 -0.2348183805 1.9157388157
C 6.2711415175 -2.7844223817 -0.5580361061
C 5.0544323174 1.4449612437 -0.4551045351
C 4.5641616753 2.7925292361 -1.1213569034
C 3.3848390562 3.2046974235 -0.1614061012
C 3.3232888054 1.9420569177 0.7804799835
O 4.7563662841 1.6212719152 0.9858988173
H 3.9224494793 0.1528768652 -1.9335107345
H 2.0326693716 1.10981871 -0.824458241
H 5.5157108438 -3.5906003923 -0.4588058479
H 6.1253615779 1.2068488102 -0.6069170808
H 5.371456825 3.5420304825 -1.1203045657
H 4.2297874798 2.6369206978 -2.1597886415
H 3.6380157601 4.1055742367 0.4204011181
H 2.437973325 3.3818595644 -0.6964159035
H 2.807873206 2.0771333938 1.751583762
H 6.7282308124 -2.6067886838 0.4368279129
H 7.0528167394 -3.0963911424 -1.2749727838
H -0.561672909 2.5992005419 -0.2109881619
H -1.755709671 3.6146397232 0.6986104858
H -1.968688132 3.3465559328 -1.072586171
H -0.4055410296 -2.2492573649 -1.342938175
H -1.2947480164 -2.9851325063 0.0464529281
H 0.6450613876 -2.1116938594 1.5960224255
H 1.1143022869 -3.4327172559 0.4296068379
$end

$rem
JOBTYPE                   OPT
METHOD                    B3LYP
DFT_D                     d3_op
BASIS                     STO-3G
GEOM_OPT_MAX_CYCLES       100
GEOM_OPT_TOL_GRADIENT     300
GEOM_OPT_TOL_DISPLACEMENT 1200
GEOM_OPT_TOL_ENERGY       100
SYMMETRY                  False
THRESH                    12
SCF_CONVERGENCE           8
MAX_SUB_FILE_NUM          128
MEM_STATIC                400
MEM_TOTAL                 4000
$end
--------------------------------------------------------------

   16   -1510.2592452476      6.00E-09 Convergence criterion met
 Total energy in the final basis set = -1510.25924525
   14   -1510.2627598820      4.91E-09 Convergence criterion met
 Total energy in the final basis set = -1510.26275988
   14   -1510.2658823123      6.31E-09 Convergence criterion met
 Total energy in the final basis set = -1510.26588231
   14   -1510.2693518334      6.92E-09 Convergence criterion met
 Total energy in the final basis set = -1510.26935183
   15   -1510.2612353190      3.62E-09 Convergence criterion met
 Total energy in the final basis set = -1510.26123532
   13   -1510.2718518473      7.61E-09 Convergence criterion met
 Total energy in the final basis set = -1510.27185185
   14   -1510.2769548966      5.27E-09 Convergence criterion met
 Total energy in the final basis set = -1510.27695490
   14   -1510.2810588989      5.99E-09 Convergence criterion met
   13   -1510.3023837507      3.01E-09 Convergence criterion met
 Total energy in the final basis set = -1510.30238375
   13   -1510.3025858956      3.67E-09 Convergence criterion met
 Total energy in the final basis set = -1510.30258590
   12   -1510.3025920983      5.70E-09 Convergence criterion met
 Total energy in the final basis set = -1510.30259210
   12   -1510.3025800451      3.59E-09 Convergence criterion met
 Total energy in the final basis set = -1510.30258005
   12   -1510.3026249384      2.39E-09 Convergence criterion met
 Total energy in the final basis set = -1510.30262494
   10   -1510.3026353045      9.73E-09 Convergence criterion met
 Total energy in the final basis set = -1510.30263530

             Standard Nuclear Orientation (Angstroms)
    I     Atom           X                Y                Z
 ----------------------------------------------------------------
    1      O      -3.4780044180     1.8477762474     0.5171819185
    2      C      -3.7202211779     0.7702415967    -0.0723883594
    3      C      -2.7641342857    -0.4581336161    -0.2189698436
    4      C      -1.2831275870    -0.1178289964     0.2124272156
    5      C      -1.0095297854     1.4008757713     0.4837966477
    6      O      -1.0723714981     2.0782161626    -0.7905882013
    7      C      -0.6284040447     3.4807857011    -0.6554871995
    8      C       0.8825298582     3.5929065844    -1.0880512298
    9      O       1.7035164162     2.7514438234    -0.1841614630
   10      C       1.8137054282     1.4232210839    -0.6950215501
   11      C       2.3926425390     0.5091314995     0.4338395244
   12      C       2.5580277056    -0.9946383077    -0.0264255755
   13      C       2.0867678251    -1.2878846550    -1.4985002608
   14      O       2.7952686537    -1.4513637807    -2.5115390413
   15      O      -4.9675693629     0.4611037101    -0.6981569974
   16      O       0.6618302188    -1.5477938821    -1.4728588303
   17      O       1.5033256738     1.0693141719    -1.8566515987
   18      C       0.1631151034    -1.8023816583    -2.8419160582
   19      C       3.8958401798     0.8866955379     0.7836948464
   20      C       4.2907830958     0.1707704769     2.1352633395
   21      C       4.4674392868    -1.3168421659     1.6512382578
   22      C       4.1269022879    -1.1792968360     0.1165513947
   23      O       4.6684249210     0.1523987792    -0.2431035795
   24      H       1.7339570812     0.6025556090     1.3167492020
   25      H       2.0021064042    -1.6682046353     0.6492244259
   26      H       4.1105571498     1.9720459299     0.7397681664
   27      H       5.2340375110     0.5833904639     2.5271259977
   28      H       3.5101451926     0.2807461810     2.9050676259
   29      H       5.5039252346    -1.6643571866     1.7865790880
   30      H       3.7898021326    -2.0166561075     2.1657319252
   31      H       4.5533391111    -1.9583333662    -0.5444535717
   32      O      -0.6520623051     1.9390254855     1.5528695688
   33      C      -5.9113905107     1.5917309759    -0.5366606698
   34      C      -3.1384685572    -1.5716438614     0.8563740441
   35      C      -2.3306173711    -2.8877622588     0.5223950233
   36      C      -0.8859919554    -2.4944186923     1.0065904880
   37      C      -1.1334939570    -1.0170965846     1.5086187338
   38      O      -2.4968865354    -1.0644540515     2.0878587151
   39      H      -2.8300586483    -0.8484000403    -1.2502381822
   40      H      -0.5579418923    -0.4654000638    -0.5576127079
   41      H      -5.5313929580     2.5121345372    -1.0252358042
   42      H      -4.2270769197    -1.7102305894     1.0070447109
   43      H      -2.7352504170    -3.7401914617     1.0908934327
   44      H      -2.3649279797    -3.1309444147    -0.5516591776
   45      H      -0.5406188733    -3.1420524882     1.8276468925
   46      H      -0.1556107598    -2.5112065696     0.1785501565
   47      H      -0.4131620966    -0.6290704829     2.2546923286
   48      H      -6.1026288908     1.8143052055     0.5329239918
   49      H      -6.8520526567     1.2755821561    -1.0238665658
   50      H      -0.9042199092    -2.0698680464    -2.7348812818
   51      H       0.7121974937    -2.6352655478    -3.3256403937
   52      H       0.2589800351    -0.8956267041    -3.4732853195
   53      H       1.0060703060     3.2556519274    -2.1391424800
   54      H       1.2416775044     4.6356333446    -0.9737691895
   55      H      -0.7404420881     3.8107925430     0.3994660435
   56      H      -1.2590712544     4.1019912812    -1.3242686079
 ----------------------------------------------------------------

   10   -1510.3026351737      9.15E-09 Convergence criterion met
 Total energy in the final basis set = -1510.30263517
 Final energy is   -1510.30263517370
 **  OPTIMIZATION CONVERGED  **

                    Orbital Energies (a.u.)
 --------------------------------------------------------------

 Alpha MOs
 -- Occupied --
-18.942 -18.938 -18.938 -18.917 -18.889 -18.889 -18.880 -18.880
-18.876 -18.863 -10.109 -10.103 -10.100 -10.090 -10.074 -10.066
-10.066 -10.066 -10.062 -10.060 -10.056 -10.048 -10.041 -10.038
-10.034 -10.021 -10.020 -10.015 -10.015 -10.006  -1.024  -1.014
 -1.009  -0.997  -0.972  -0.964  -0.947  -0.938  -0.937  -0.927
 -0.766  -0.757  -0.727  -0.719  -0.713  -0.703  -0.694  -0.664
 -0.663  -0.617  -0.597  -0.576  -0.548  -0.540  -0.538  -0.531
 -0.514  -0.506  -0.489  -0.472  -0.469  -0.459  -0.451  -0.446
 -0.433  -0.427  -0.426  -0.417  -0.414  -0.413  -0.409  -0.402
 -0.398  -0.379  -0.374  -0.368  -0.359  -0.358  -0.352  -0.350
 -0.343  -0.340  -0.337  -0.334  -0.328  -0.327  -0.319  -0.315
 -0.309  -0.306  -0.302  -0.298  -0.295  -0.285  -0.280  -0.275
 -0.269  -0.255  -0.253  -0.249  -0.238  -0.236  -0.226  -0.194
 -0.180  -0.179  -0.165  -0.157  -0.155  -0.152  -0.146  -0.144
 -0.138

          Ground-State Mulliken Net Atomic Charges

     Atom                 Charge (a.u.)
  ----------------------------------------
      1 O                    -0.207846
      2 C                     0.214564
      3 C                    -0.077763
      4 C                    -0.097840
      5 C                     0.211895
      6 O                    -0.180951
      7 C                    -0.053476
      8 C                    -0.052003
      9 O                    -0.169273
     10 C                     0.214977
     11 C                    -0.079852
     12 C                    -0.083004
     13 C                     0.221349
     14 O                    -0.207867
     15 O                    -0.169839
     16 O                    -0.176738
     17 O                    -0.206332
     18 C                    -0.127284
     19 C                     0.025695
     20 C                    -0.143575
     21 C                    -0.144089
     22 C                     0.025327
     23 O                    -0.188531
     24 H                     0.093233
     25 H                     0.085330
     26 H                     0.088057
     27 H                     0.079020
     28 H                     0.076144
     29 H                     0.078601
     30 H                     0.073628
     31 H                     0.088337
     32 O                    -0.219089
     33 C                    -0.128328
     34 C                     0.025081
     35 C                    -0.143589
     36 C                    -0.152972
     37 C                     0.022228
     38 O                    -0.192435
     39 H                     0.083555
     40 H                     0.107278
     41 H                     0.089347
     42 H                     0.081913
     43 H                     0.075726
     44 H                     0.070192
     45 H                     0.070405
     46 H                     0.085497
     47 H                     0.080880
     48 H                     0.090964
     49 H                     0.090940
     50 H                     0.086435
     51 H                     0.091322
     52 H                     0.096879
     53 H                     0.098486
     54 H                     0.090650
     55 H                     0.102076
     56 H                     0.086666
  ----------------------------------------
  Sum of atomic charges =     0.000000

                    Cartesian Multipole Moments
 -----------------------------------------------------------------
    Charge (ESU x 10^10)
                -0.0000
    Dipole Moment (Debye)
         X      -1.3673      Y      -0.4862      Z      -0.6236
       Tot       1.5795
    Quadrupole Moments (Debye-Ang)
        XX    -156.6711     XY      -1.4480     YY    -148.6842
        XZ      15.6212     YZ      -5.4024     ZZ    -166.5875

 Total job time:  142.27s(wall), 6781.35s(cpu)
        *  Thank you very much for using Q-Chem.  Have a nice day.  *
