 Q-Chem 5.0, Q-Chem, Inc., Pleasanton, CA (2017)
 Q-Chem 5.0.1 for Intel X86 EM64T Linux

User input:
--------------------------------------------------------------
$molecule
0  1
O -3.94934 -3.66094 2.70899
C -3.26408 -4.56952 2.26188
C -3.36658 -6.02376 2.66595
C -4.22206 -6.35129 3.90075
C -5.02301 -5.21046 4.48818
O -4.21429 -4.12691 4.68135
C -4.78312 -3.14889 5.55837
C -4.14009 -3.24283 6.93815
O -4.59864 -4.42524 7.61233
C -4.0909 -4.62232 8.8543
C -5.06079 -4.25401 9.95172
C -5.44588 -5.40764 10.88934
C -4.55987 -6.63545 10.82481
O -4.69082 -7.64073 11.50805
O -2.41136 -4.30075 1.23868
O -3.51868 -6.73374 9.95814
O -2.88525 -4.48725 9.03956
C -2.66848 -7.81498 9.82125
C -4.50324 -3.24609 10.98342
C -5.65828 -2.51745 11.66948
C -6.23447 -3.63454 12.51622
C -5.20421 -4.73869 12.25143
O -4.00136 -4.04268 12.02872
H -5.95744 -3.78941 9.47911
H -6.49033 -5.75215 10.72522
H -3.79618 -2.50952 10.54284
H -5.20181 -1.75912 12.3457
H -6.38199 -2.01252 10.99412
H -6.2133 -3.31387 13.58136
H -7.25838 -3.96402 12.23531
H -5.1948 -5.47242 13.0877
O -6.23925 -5.22081 4.64242
C -2.21554 -3.04645 0.69985
C -4.06804 -6.88343 1.60026
C -3.64539 -8.34357 1.75161
C -4.37661 -8.71987 3.02412
C -5.14842 -7.42424 3.29803
O -5.41405 -6.91286 2.0133
H -2.3192 -6.3691 2.821
H -3.59394 -6.74158 4.73237
H -1.834 -2.35132 1.47811
H -3.88111 -6.53362 0.56133
H -4.09702 -8.9079 0.90442
H -2.54776 -8.51665 1.76472
H -5.08331 -9.54716 2.79056
H -3.72688 -9.00607 3.8794
H -6.03344 -7.63748 3.93646
H -3.16804 -2.65626 0.28168
H -1.46797 -3.114 -0.11688
H -1.92189 -7.59147 9.03185
H -3.24264 -8.71828 9.52369
H -2.1332 -8.00458 10.77602
H -3.03263 -3.23611 6.82741
H -4.44997 -2.35256 7.53029
H -5.89074 -3.17713 5.66526
H -4.54519 -2.15339 5.12716
$end

$opt
CONSTRAINT
tors           1           2           3           4     -11.166
tors           3           4           5           6     -50.424
tors           4           5           6           7    -163.703
tors           5           6           7           8    +102.933
tors           6           7           8           9     -72.496
tors           7           8           9          10    +179.806
tors           8           9          10          11    +102.351
tors           9          10          11          12    +119.418
tors          11          12          13          14    +178.606
ENDCONSTRAINT
$end

$rem
JOBTYPE                   OPT
METHOD                    B3LYP
DFT_D                     d3_op
BASIS                     STO-3G
GEOM_OPT_MAX_CYCLES       100
GEOM_OPT_TOL_GRADIENT     300
GEOM_OPT_TOL_DISPLACEMENT 1200
GEOM_OPT_TOL_ENERGY       100
SYMMETRY                  False
THRESH                    12
SCF_CONVERGENCE           8
MAX_SUB_FILE_NUM          128
MEM_STATIC                400
MEM_TOTAL                 4000
$end
--------------------------------------------------------------

   16   -1510.0842335283      3.68E-09 Convergence criterion met
 Total energy in the final basis set = -1510.08423353
   13   -1510.1582346306      9.36E-09 Convergence criterion met
 Total energy in the final basis set = -1510.15823463
   14   -1510.2062488101      5.90E-09 Convergence criterion met
 Total energy in the final basis set = -1510.20624881
   14   -1510.2304369770      5.06E-09 Convergence criterion met
 Total energy in the final basis set = -1510.23043698
   14   -1510.2411265255      4.33E-09 Convergence criterion met
 Total energy in the final basis set = -1510.24112653
   13   -1510.2458880497      9.36E-09 Convergence criterion met
 Total energy in the final basis set = -1510.24588805
   13   -1510.2485716026      7.49E-09 Convergence criterion met
 Total energy in the final basis set = -1510.24857160
   13   -1510.2504917596      3.95E-09 Convergence criterion met
   11   -1510.2592201864      4.19E-09 Convergence criterion met
 Total energy in the final basis set = -1510.25922019
   11   -1510.2592432817      5.46E-09 Convergence criterion met
 Total energy in the final basis set = -1510.25924328
   10   -1510.2592375138      9.13E-09 Convergence criterion met
 Total energy in the final basis set = -1510.25923751
   10   -1510.2592400021      5.25E-09 Convergence criterion met
 Total energy in the final basis set = -1510.25924000
    9   -1510.2592415099      9.99E-09 Convergence criterion met
 Total energy in the final basis set = -1510.25924151
    9   -1510.2592487463      4.55E-09 Convergence criterion met
 Total energy in the final basis set = -1510.25924875

             Standard Nuclear Orientation (Angstroms)
    I     Atom           X                Y                Z
 ----------------------------------------------------------------
    1      O       4.3218471496    -1.6180366405     0.8305982899
    2      C       4.6505000214    -1.0642878577    -0.2411830113
    3      C       4.0659366407     0.2597646767    -0.8439772827
    4      C       2.7663560155     0.7359454259    -0.0849127474
    5      C       2.0112168773    -0.3560986576     0.7506129810
    6      O       1.8002239743    -1.5094962719    -0.0832953159
    7      C       0.7706963067    -2.3819020465     0.5253301770
    8      C      -0.5793289937    -2.1796762100    -0.2444308977
    9      O      -1.0701403778    -0.8472619910     0.1595183718
   10      C      -2.3378151920    -0.5854232342    -0.5303792594
   11      C      -3.5803297536    -0.7970999087     0.4320939735
   12      C      -4.4653416441     0.4975717881     0.6413735911
   13      C      -3.7556828454     1.8645949263     0.3452721992
   14      O      -4.2586770666     3.0061029562     0.4171308644
   15      O       5.6756163099    -1.5474145292    -1.1147233665
   16      O      -2.3561143908     1.6276198043     0.1548684951
   17      O      -2.4055151765    -0.3815365145    -1.7596010944
   18      C      -1.6268148346     2.8828920424    -0.1247935398
   19      C      -4.6286252950    -1.7102939867    -0.3419763860
   20      C      -5.8247169476    -2.0899461983     0.6204414760
   21      C      -6.6774497636    -0.7666335257     0.5946595513
   22      C      -5.7368956470     0.1701118870    -0.2582959215
   23      O      -5.2234257091    -0.7473721663    -1.3000727792
   24      H      -3.2331917113    -1.2254166896     1.3878290602
   25      H      -4.7830789053     0.5578186092     1.6998325780
   26      H      -4.1778606970    -2.5622267840    -0.8871784747
   27      H      -6.3886610240    -2.9458928459     0.2176410179
   28      H      -5.4703598105    -2.3455240329     1.6320745904
   29      H      -7.6363854531    -0.9181923025     0.0732875174
   30      H      -6.8789330921    -0.3639232082     1.6000332475
   31      H      -6.2234371029     1.0543112041    -0.7142816996
   32      O       1.5768281960    -0.2348183805     1.9157388157
   33      C       6.2711415175    -2.7844223817    -0.5580361061
   34      C       5.0544323174     1.4449612437    -0.4551045351
   35      C       4.5641616753     2.7925292361    -1.1213569034
   36      C       3.3848390562     3.2046974235    -0.1614061012
   37      C       3.3232888054     1.9420569177     0.7804799835
   38      O       4.7563662841     1.6212719152     0.9858988173
   39      H       3.9224494793     0.1528768652    -1.9335107345
   40      H       2.0326693716     1.1098187100    -0.8244582410
   41      H       5.5157108438    -3.5906003923    -0.4588058479
   42      H       6.1253615779     1.2068488102    -0.6069170808
   43      H       5.3714568250     3.5420304825    -1.1203045657
   44      H       4.2297874798     2.6369206978    -2.1597886415
   45      H       3.6380157601     4.1055742367     0.4204011181
   46      H       2.4379733250     3.3818595644    -0.6964159035
   47      H       2.8078732060     2.0771333938     1.7515837620
   48      H       6.7282308124    -2.6067886838     0.4368279129
   49      H       7.0528167394    -3.0963911424    -1.2749727838
   50      H      -0.5616729090     2.5992005419    -0.2109881619
   51      H      -1.7557096710     3.6146397232     0.6986104858
   52      H      -1.9686881320     3.3465559328    -1.0725861710
   53      H      -0.4055410296    -2.2492573649    -1.3429381750
   54      H      -1.2947480164    -2.9851325063     0.0464529281
   55      H       0.6450613876    -2.1116938594     1.5960224255
   56      H       1.1143022869    -3.4327172559     0.4296068379
 ----------------------------------------------------------------

    9   -1510.2592493376      4.43E-09 Convergence criterion met
 Total energy in the final basis set = -1510.25924934
 Final energy is   -1510.25924933759
 **  OPTIMIZATION CONVERGED  **

                    Orbital Energies (a.u.)
 --------------------------------------------------------------

 Alpha MOs
 -- Occupied --
-18.948 -18.934 -18.918 -18.890 -18.887 -18.884 -18.882 -18.880
-18.876 -18.867 -10.107 -10.099 -10.098 -10.093 -10.071 -10.065
-10.064 -10.062 -10.062 -10.062 -10.059 -10.055 -10.041 -10.037
-10.034 -10.032 -10.023 -10.022 -10.020 -10.018  -1.019  -1.012
 -1.000  -0.992  -0.971  -0.968  -0.943  -0.935  -0.930  -0.920
 -0.764  -0.761  -0.725  -0.722  -0.708  -0.705  -0.693  -0.667
 -0.662  -0.607  -0.598  -0.577  -0.548  -0.542  -0.539  -0.535
 -0.514  -0.507  -0.485  -0.476  -0.464  -0.456  -0.452  -0.448
 -0.434  -0.431  -0.417  -0.413  -0.412  -0.411  -0.406  -0.403
 -0.391  -0.386  -0.372  -0.368  -0.358  -0.357  -0.355  -0.348
 -0.342  -0.338  -0.333  -0.330  -0.328  -0.324  -0.320  -0.316
 -0.310  -0.309  -0.302  -0.298  -0.296  -0.294  -0.280  -0.276
 -0.269  -0.257  -0.252  -0.238  -0.236  -0.232  -0.226  -0.183
 -0.178  -0.164  -0.160  -0.153  -0.150  -0.149  -0.145  -0.142
 -0.138

          Ground-State Mulliken Net Atomic Charges

     Atom                 Charge (a.u.)
  ----------------------------------------
      1 O                    -0.207639
      2 C                     0.215642
      3 C                    -0.076403
      4 C                    -0.079846
      5 C                     0.222045
      6 O                    -0.177751
      7 C                    -0.051301
      8 C                    -0.048474
      9 O                    -0.200640
     10 C                     0.227629
     11 C                    -0.081512
     12 C                    -0.079799
     13 C                     0.213137
     14 O                    -0.210197
     15 O                    -0.171082
     16 O                    -0.161947
     17 O                    -0.196532
     18 C                    -0.123973
     19 C                     0.024452
     20 C                    -0.145528
     21 C                    -0.141830
     22 C                     0.025498
     23 O                    -0.184490
     24 H                     0.084079
     25 H                     0.086191
     26 H                     0.080729
     27 H                     0.078402
     28 H                     0.073758
     29 H                     0.078899
     30 H                     0.074421
     31 H                     0.087937
     32 O                    -0.212656
     33 C                    -0.128255
     34 C                     0.024367
     35 C                    -0.144814
     36 C                    -0.142311
     37 C                     0.023181
     38 O                    -0.191003
     39 H                     0.088165
     40 H                     0.083476
     41 H                     0.089270
     42 H                     0.083737
     43 H                     0.077933
     44 H                     0.073853
     45 H                     0.077665
     46 H                     0.071287
     47 H                     0.091292
     48 H                     0.090192
     49 H                     0.090160
     50 H                     0.095287
     51 H                     0.093611
     52 H                     0.092313
     53 H                     0.081992
     54 H                     0.069160
     55 H                     0.104637
     56 H                     0.083587
  ----------------------------------------
  Sum of atomic charges =     0.000000

                    Cartesian Multipole Moments
 -----------------------------------------------------------------
    Charge (ESU x 10^10)
                 0.0000
    Dipole Moment (Debye)
         X      -0.0422      Y      -1.2919      Z      -0.4462
       Tot       1.3674
    Quadrupole Moments (Debye-Ang)
        XX    -151.3520     XY       5.8707     YY    -148.0682
        XZ     -17.7955     YZ      -2.9889     ZZ    -168.3921

 Total job time:  70.93s(wall), 3379.06s(cpu)
        *  Thank you very much for using Q-Chem.  Have a nice day.  *
