 Q-Chem 5.0, Q-Chem, Inc., Pleasanton, CA (2017)
 Q-Chem 5.0.1 for Intel X86 EM64T Linux

User input:
--------------------------------------------------------------
$molecule
0  1
O -3.94934 -3.66094 2.70899
C -3.26408 -4.56952 2.26188
C -3.36658 -6.02376 2.66595
C -3.51622 -6.32742 4.1657
C -3.72526 -5.13833 5.07699
O -2.85098 -5.19727 6.12465
C -3.06314 -4.16536 7.09388
C -2.69358 -4.66755 8.48577
O -3.88405 -4.98979 9.22185
C -4.68801 -5.92126 8.65161
C -5.90954 -6.23266 9.4832
C -6.96406 -7.10285 8.7839
C -6.50435 -7.81772 7.52917
O -7.18965 -8.56796 6.84942
O -2.25504 -4.26217 1.40495
O -5.25837 -8.37548 7.69761
O -4.60892 -6.17243 7.47159
C -4.63886 -9.35853 6.94259
C -5.61982 -7.07995 10.73722
C -6.72064 -6.848 11.77136
C -7.88753 -7.55248 11.10544
C -7.18209 -8.15996 9.88654
O -5.87197 -8.40487 10.34073
H -6.33795 -5.25298 9.79636
H -7.89087 -6.54539 8.52561
H -4.61985 -6.88193 11.18106
H -6.43287 -7.4207 12.68226
H -6.90366 -5.78808 12.05056
H -8.25316 -8.34883 11.79099
H -8.72924 -6.89392 10.79972
H -7.7404 -9.04663 9.51298
O -4.67745 -4.36882 5.00021
C -1.97864 -2.98828 0.95438
C -4.68341 -6.6238 2.13245
C -4.56529 -8.14373 2.03496
C -4.60186 -8.51941 3.49938
C -4.82368 -7.14164 4.13309
O -5.59865 -6.45468 3.18356
H -2.51963 -6.57176 2.19334
H -2.66526 -6.93861 4.54538
H -1.7309 -2.32456 1.81025
H -4.98748 -6.20294 1.1483
H -5.49507 -8.51842 1.5497
H -3.6822 -8.51282 1.47034
H -5.48961 -9.16817 3.66999
H -3.6862 -9.01649 3.88609
H -5.28 -7.24481 5.13582
H -2.85223 -2.57993 0.40255
H -1.1081 -3.02603 0.26791
H -3.68769 -8.95654 6.53708
H -5.26204 -9.71207 6.09605
H -4.40823 -10.22455 7.59606
H -1.95958 -5.50304 8.45479
H -2.22479 -3.83122 9.04815
H -4.01754 -3.59068 7.07987
H -2.27741 -3.41749 6.84821
$end

$opt
CONSTRAINT
tors           1           2           3           4     -43.184
tors           3           4           5           6    -130.164
tors           4           5           6           7    -174.992
tors           5           6           7           8    +148.235
tors           6           7           8           9    -102.476
tors           7           8           9          10     +58.164
tors           8           9          10          11    +179.054
tors           9          10          11          12    +170.429
tors          11          12          13          14    +178.796
ENDCONSTRAINT
$end

$rem
JOBTYPE                   OPT
METHOD                    B3LYP
DFT_D                     d3_op
BASIS                     STO-3G
GEOM_OPT_MAX_CYCLES       100
GEOM_OPT_TOL_GRADIENT     300
GEOM_OPT_TOL_DISPLACEMENT 1200
GEOM_OPT_TOL_ENERGY       100
SYMMETRY                  False
THRESH                    12
SCF_CONVERGENCE           8
MAX_SUB_FILE_NUM          128
MEM_STATIC                400
MEM_TOTAL                 4000
$end
--------------------------------------------------------------

   15   -1510.1032065404      8.49E-09 Convergence criterion met
 Total energy in the final basis set = -1510.10320654
   14   -1510.1781426450      7.43E-09 Convergence criterion met
 Total energy in the final basis set = -1510.17814265
   15   -1510.2191703225      2.24E-09 Convergence criterion met
 Total energy in the final basis set = -1510.21917032
   15   -1510.2427617937      1.79E-09 Convergence criterion met
 Total energy in the final basis set = -1510.24276179
   14   -1510.2530238806      4.61E-09 Convergence criterion met
 Total energy in the final basis set = -1510.25302388
   14   -1510.2583743373      2.98E-09 Convergence criterion met
 Total energy in the final basis set = -1510.25837434
   14   -1510.2614800827      2.42E-09 Convergence criterion met
 Total energy in the final basis set = -1510.26148008
    2   -1510.2614800826      6.37E-10 Convergence criterion met
   11   -1510.2643888576      6.56E-09 Convergence criterion met
 Total energy in the final basis set = -1510.26438886
   11   -1510.2643950091      2.84E-09 Convergence criterion met
 Total energy in the final basis set = -1510.26439501
   11   -1510.2644067386      2.66E-09 Convergence criterion met
 Total energy in the final basis set = -1510.26440674
   10   -1510.2644155680      8.43E-09 Convergence criterion met
 Total energy in the final basis set = -1510.26441557
    9   -1510.2644186049      8.92E-09 Convergence criterion met
 Total energy in the final basis set = -1510.26441860
   10   -1510.2644217356      7.03E-09 Convergence criterion met
 Total energy in the final basis set = -1510.26442174

             Standard Nuclear Orientation (Angstroms)
    I     Atom           X                Y                Z
 ----------------------------------------------------------------
    1      O      -4.5363978242     1.2523917324     1.4822208645
    2      C      -4.8568817493     0.6728340326     0.4240221913
    3      C      -4.0771870501    -0.4001164378    -0.4081979454
    4      C      -2.5252184603    -0.1571915472    -0.6236620646
    5      C      -1.8754446343     1.0583232421     0.1182604935
    6      O      -1.1281876967     1.7899473446    -0.8657405840
    7      C      -0.3774812236     2.8954813246    -0.2309990148
    8      C       0.9480527888     3.1085544989    -1.0541087017
    9      O       2.1742916461     2.5472399975    -0.4346570226
   10      C       2.0749427461     1.1307476601    -0.1980686009
   11      C       3.4538108427     0.7171578163     0.4282930653
   12      C       3.6308276963    -0.7323494664     1.0305738275
   13      C       2.8909955093    -1.9472917951     0.3507166406
   14      O       2.9854034580    -3.1349726537     0.7399116141
   15      O      -6.1111225138     0.8891641785    -0.2470240392
   16      O       2.3425706112    -1.5737449560    -0.9127722606
   17      O       1.0416510619     0.4587681039    -0.3832866605
   18      C       1.7609442126    -2.7506518401    -1.5977351000
   19      C       4.7392966759     0.8387192955    -0.5145077292
   20      C       5.9127526129     1.3536028787     0.4018986313
   21      C       6.0995098151     0.1023731128     1.3409889281
   22      C       5.1625502041    -0.9630433055     0.6396998844
   23      O       5.1462734589    -0.5576810976    -0.7875817691
   24      H       3.5881493616     1.4312254618     1.2624680965
   25      H       3.4513599175    -0.7584453586     2.1199024790
   26      H       4.5792276489     1.3957335024    -1.4580026074
   27      H       6.8158325634     1.5393779324    -0.2020391034
   28      H       5.6546068707     2.2729101424     0.9514937661
   29      H       7.1433863229    -0.2485577759     1.3539213287
   30      H       5.7828265634     0.3021613779     2.3773807746
   31      H       5.4924167384    -2.0153357419     0.7418015883
   32      O      -1.8641380575     1.3243938433     1.3383367143
   33      C      -6.9323337105     1.8560068213     0.5166047046
   34      C      -4.0553349433    -1.8156768967     0.3313555961
   35      C      -3.7709032692    -2.9287563899    -0.7524938816
   36      C      -2.2425358640    -2.6858103485    -1.0369845485
   37      C      -1.9263593497    -1.5087806674    -0.0312844774
   38      O      -2.8081144770    -1.7828649123     1.1247307140
   39      H      -4.5906887669    -0.4843789217    -1.3819323786
   40      H      -2.2922222809    -0.0491662910    -1.6973731033
   41      H      -6.4061548546     2.8227340649     0.6531740130
   42      H      -4.9273417514    -2.0062711550     0.9866934420
   43      H      -3.9472766120    -3.9295426815    -0.3267856934
   44      H      -4.3986538223    -2.8108405807    -1.6502006817
   45      H      -1.6389194667    -3.5746786786    -0.7935853473
   46      H      -2.0458842286    -2.3992849603    -2.0823682044
   47      H      -0.8681722488    -1.4294562669     0.2870844673
   48      H      -7.2031228188     1.4618878185     1.5177109014
   49      H      -7.8511610696     2.0144803691    -0.0775823412
   50      H       0.6657833878    -2.6106134571    -1.6886316764
   51      H       1.9823784536    -3.6654908064    -1.0114152478
   52      H       2.2078204259    -2.8228495045    -2.6080541667
   53      H       0.7925221289     2.6831965032    -2.0708475325
   54      H       1.1628762858     4.1917296555    -1.1494334096
   55      H      -0.1786886604     2.6658184612     0.8381601467
   56      H      -0.9873349324     3.8250154549    -0.2737658984
 ----------------------------------------------------------------

   10   -1510.2644226127      4.17E-09 Convergence criterion met
 Total energy in the final basis set = -1510.26442261
 Final energy is   -1510.26442261268
 **  OPTIMIZATION CONVERGED  **

                    Orbital Energies (a.u.)
 --------------------------------------------------------------

 Alpha MOs
 -- Occupied --
-18.930 -18.929 -18.927 -18.924 -18.888 -18.886 -18.880 -18.872
-18.868 -18.865 -10.101 -10.095 -10.092 -10.090 -10.075 -10.068
-10.061 -10.060 -10.060 -10.058 -10.055 -10.052 -10.039 -10.036
-10.034 -10.032 -10.021 -10.020 -10.018 -10.017  -1.013  -1.006
 -1.005  -0.999  -0.971  -0.967  -0.938  -0.931  -0.927  -0.925
 -0.763  -0.759  -0.725  -0.721  -0.714  -0.704  -0.693  -0.659
 -0.655  -0.619  -0.597  -0.578  -0.544  -0.541  -0.537  -0.534
 -0.513  -0.511  -0.480  -0.473  -0.459  -0.447  -0.443  -0.438
 -0.435  -0.431  -0.428  -0.415  -0.409  -0.407  -0.404  -0.399
 -0.393  -0.381  -0.370  -0.366  -0.360  -0.356  -0.352  -0.343
 -0.338  -0.337  -0.331  -0.330  -0.328  -0.324  -0.318  -0.313
 -0.306  -0.304  -0.303  -0.297  -0.294  -0.292  -0.276  -0.271
 -0.266  -0.252  -0.252  -0.243  -0.240  -0.234  -0.231  -0.182
 -0.173  -0.171  -0.166  -0.155  -0.150  -0.147  -0.141  -0.139
 -0.134

          Ground-State Mulliken Net Atomic Charges

     Atom                 Charge (a.u.)
  ----------------------------------------
      1 O                    -0.202304
      2 C                     0.203845
      3 C                    -0.080613
      4 C                    -0.077878
      5 C                     0.212031
      6 O                    -0.170768
      7 C                    -0.052239
      8 C                    -0.049503
      9 O                    -0.178097
     10 C                     0.212300
     11 C                    -0.080051
     12 C                    -0.076308
     13 C                     0.212316
     14 O                    -0.221885
     15 O                    -0.173606
     16 O                    -0.159937
     17 O                    -0.203011
     18 C                    -0.135269
     19 C                     0.026933
     20 C                    -0.140943
     21 C                    -0.145940
     22 C                     0.024087
     23 O                    -0.190707
     24 H                     0.085078
     25 H                     0.086633
     26 H                     0.085598
     27 H                     0.077736
     28 H                     0.075006
     29 H                     0.078865
     30 H                     0.074445
     31 H                     0.086263
     32 O                    -0.202410
     33 C                    -0.129750
     34 C                     0.027032
     35 C                    -0.143293
     36 C                    -0.145112
     37 C                     0.026645
     38 O                    -0.184460
     39 H                     0.085776
     40 H                     0.086521
     41 H                     0.088743
     42 H                     0.082763
     43 H                     0.077895
     44 H                     0.073680
     45 H                     0.077387
     46 H                     0.072971
     47 H                     0.092126
     48 H                     0.087397
     49 H                     0.088407
     50 H                     0.084836
     51 H                     0.101325
     52 H                     0.086165
     53 H                     0.091642
     54 H                     0.089563
     55 H                     0.100463
     56 H                     0.081612
  ----------------------------------------
  Sum of atomic charges =     0.000000

                    Cartesian Multipole Moments
 -----------------------------------------------------------------
    Charge (ESU x 10^10)
                 0.0000
    Dipole Moment (Debye)
         X      -0.0278      Y       1.6975      Z      -2.1373
       Tot       2.7296
    Quadrupole Moments (Debye-Ang)
        XX    -144.2989     XY       6.5977     YY    -154.0543
        XZ      10.6217     YZ       2.0083     ZZ    -162.6041

 Total job time:  61.56s(wall), 2932.17s(cpu)
        *  Thank you very much for using Q-Chem.  Have a nice day.  *
