 Q-Chem 5.0, Q-Chem, Inc., Pleasanton, CA (2017)
 Q-Chem 5.0.1 for Intel X86 EM64T Linux

User input:
--------------------------------------------------------------
$molecule
0  1
O -4.5363978242 1.2523917324 1.4822208645
C -4.8568817493 0.6728340326 0.4240221913
C -4.0771870501 -0.4001164378 -0.4081979454
C -2.5252184603 -0.1571915472 -0.6236620646
C -1.8754446343 1.0583232421 0.1182604935
O -1.1281876967 1.7899473446 -0.865740584
C -0.3774812236 2.8954813246 -0.2309990148
C 0.9480527888 3.1085544989 -1.0541087017
O 2.1742916461 2.5472399975 -0.4346570226
C 2.0749427461 1.1307476601 -0.1980686009
C 3.4538108427 0.7171578163 0.4282930653
C 3.6308276963 -0.7323494664 1.0305738275
C 2.8909955093 -1.9472917951 0.3507166406
O 2.985403458 -3.1349726537 0.7399116141
O -6.1111225138 0.8891641785 -0.2470240392
O 2.3425706112 -1.573744956 -0.9127722606
O 1.0416510619 0.4587681039 -0.3832866605
C 1.7609442126 -2.7506518401 -1.5977351
C 4.7392966759 0.8387192955 -0.5145077292
C 5.9127526129 1.3536028787 0.4018986313
C 6.0995098151 0.1023731128 1.3409889281
C 5.1625502041 -0.9630433055 0.6396998844
O 5.1462734589 -0.5576810976 -0.7875817691
H 3.5881493616 1.4312254618 1.2624680965
H 3.4513599175 -0.7584453586 2.119902479
H 4.5792276489 1.3957335024 -1.4580026074
H 6.8158325634 1.5393779324 -0.2020391034
H 5.6546068707 2.2729101424 0.9514937661
H 7.1433863229 -0.2485577759 1.3539213287
H 5.7828265634 0.3021613779 2.3773807746
H 5.4924167384 -2.0153357419 0.7418015883
O -1.8641380575 1.3243938433 1.3383367143
C -6.9323337105 1.8560068213 0.5166047046
C -4.0553349433 -1.8156768967 0.3313555961
C -3.7709032692 -2.9287563899 -0.7524938816
C -2.242535864 -2.6858103485 -1.0369845485
C -1.9263593497 -1.5087806674 -0.0312844774
O -2.808114477 -1.7828649123 1.124730714
H -4.5906887669 -0.4843789217 -1.3819323786
H -2.2922222809 -0.049166291 -1.6973731033
H -6.4061548546 2.8227340649 0.653174013
H -4.9273417514 -2.006271155 0.986693442
H -3.947276612 -3.9295426815 -0.3267856934
H -4.3986538223 -2.8108405807 -1.6502006817
H -1.6389194667 -3.5746786786 -0.7935853473
H -2.0458842286 -2.3992849603 -2.0823682044
H -0.8681722488 -1.4294562669 0.2870844673
H -7.2031228188 1.4618878185 1.5177109014
H -7.8511610696 2.0144803691 -0.0775823412
H 0.6657833878 -2.6106134571 -1.6886316764
H 1.9823784536 -3.6654908064 -1.0114152478
H 2.2078204259 -2.8228495045 -2.6080541667
H 0.7925221289 2.6831965032 -2.0708475325
H 1.1628762858 4.1917296555 -1.1494334096
H -0.1786886604 2.6658184612 0.8381601467
H -0.9873349324 3.8250154549 -0.2737658984
$end

$rem
JOBTYPE                   OPT
METHOD                    B3LYP
DFT_D                     d3_op
BASIS                     STO-3G
GEOM_OPT_MAX_CYCLES       100
GEOM_OPT_TOL_GRADIENT     300
GEOM_OPT_TOL_DISPLACEMENT 1200
GEOM_OPT_TOL_ENERGY       100
SYMMETRY                  False
THRESH                    12
SCF_CONVERGENCE           8
MAX_SUB_FILE_NUM          128
MEM_STATIC                400
MEM_TOTAL                 4000
$end
--------------------------------------------------------------

   16   -1510.2644323485      6.24E-09 Convergence criterion met
 Total energy in the final basis set = -1510.26443235
   14   -1510.2674328842      3.55E-09 Convergence criterion met
 Total energy in the final basis set = -1510.26743288
   14   -1510.2700125238      5.29E-09 Convergence criterion met
 Total energy in the final basis set = -1510.27001252
   14   -1510.2729887946      6.95E-09 Convergence criterion met
 Total energy in the final basis set = -1510.27298879
   14   -1510.2752719736      7.73E-09 Convergence criterion met
 Total energy in the final basis set = -1510.27527197
   14   -1510.2776496491      2.94E-09 Convergence criterion met
 Total energy in the final basis set = -1510.27764965
   14   -1510.2799317512      3.91E-09 Convergence criterion met
 Total energy in the final basis set = -1510.27993175
   14   -1510.2818601907      4.29E-09 Convergence criterion met
   13   -1510.3011786536      3.23E-09 Convergence criterion met
 Total energy in the final basis set = -1510.30117865
   12   -1510.3012926631      7.32E-09 Convergence criterion met
 Total energy in the final basis set = -1510.30129266
   11   -1510.3012915931      9.06E-09 Convergence criterion met
 Total energy in the final basis set = -1510.30129159
   11   -1510.3013164052      6.71E-09 Convergence criterion met
 Total energy in the final basis set = -1510.30131641
   10   -1510.3013205192      7.34E-09 Convergence criterion met
 Total energy in the final basis set = -1510.30132052
    9   -1510.3013221046      3.57E-09 Convergence criterion met
 Total energy in the final basis set = -1510.30132210

             Standard Nuclear Orientation (Angstroms)
    I     Atom           X                Y                Z
 ----------------------------------------------------------------
    1      O      -2.2741387594     0.7986279822     2.6018435397
    2      C      -2.9825477069     0.6604334567     1.5823638119
    3      C      -3.0425837227    -0.5849664808     0.6205254244
    4      C      -2.3797522546    -0.3380530384    -0.7972031255
    5      C      -1.7924923439     1.1026527631    -0.9514762779
    6      O      -1.6150850770     1.3813900049    -2.3456131532
    7      C      -0.9747680283     2.7050929469    -2.5413308067
    8      C       0.5886373481     2.5726385767    -2.6731347484
    9      O       1.1824646313     2.2159078239    -1.3631626001
   10      C       1.2875504694     0.7966176788    -1.2356343272
   11      C       1.5954450772     0.4337663103     0.2499981953
   12      C       2.1234387599    -1.0455980513     0.4486615776
   13      C       2.3119004518    -1.8576195889    -0.8784785101
   14      O       1.6199512134    -2.8303456063    -1.2572604285
   15      O      -3.9860989507     1.5939932530     1.1559557781
   16      O       3.4712025367    -1.3735743875    -1.5717585864
   17      O       1.0825138914    -0.0071487340    -2.1774623821
   18      C       3.6421231527    -2.1053919060    -2.8470452803
   19      C       2.7752396496     1.2784478440     0.8902928646
   20      C       2.6640168923     1.1510736509     2.4600173232
   21      C       3.1715265614    -0.3226226595     2.6790997543
   22      C       3.4954196214    -0.7609320345     1.1959787856
   23      O       3.9818398877     0.4865899663     0.5605873195
   24      H       0.6468899533     0.5759738179     0.8054085012
   25      H       1.3993281677    -1.6091152259     1.0641152743
   26      H       2.8597127076     2.3100719364     0.4974184898
   27      H       3.3229309814     1.8832291441     2.9532896526
   28      H       1.6324943082     1.3035390620     2.8155500056
   29      H       4.0832467891    -0.3489513276     3.2967453390
   30      H       2.4098316639    -0.9689833753     3.1431272447
   31      H       4.2503186386    -1.5641574757     1.0945599627
   32      O      -1.4932377747     1.8980004055    -0.0313057671
   33      C      -3.9161088278     2.8157665418     1.9870208895
   34      C      -2.1412036785    -1.7623216927     1.1755710072
   35      C      -2.5183713822    -3.0948513042     0.4191962406
   36      C      -1.8365241267    -2.8534015004    -0.9791878433
   37      C      -1.2095838894    -1.4232624115    -0.7753934644
   38      O      -0.7981241090    -1.4292373146     0.6475070778
   39      H      -4.0994239922    -0.8861317775     0.5073118964
   40      H      -3.0830924273    -0.5248427522    -1.6276076288
   41      H      -2.9506388357     3.3429268794     1.8411619070
   42      H      -2.1144532712    -1.8246251383     2.2807026302
   43      H      -2.0858100173    -3.9672315954     0.9344310244
   44      H      -3.6088385632    -3.2333914234     0.3439539314
   45      H      -1.0303332914    -3.5802290834    -1.1696247706
   46      H      -2.5517726292    -2.8838328664    -1.8165993964
   47      H      -0.3482985056    -1.1795872993    -1.4335215003
   48      H      -4.0333424116     2.5866614984     3.0659277801
   49      H      -4.7463844816     3.4646643729     1.6526190965
   50      H       3.4629064652    -1.4131369255    -3.6937272536
   51      H       2.9165567473    -2.9430655936    -2.8883407523
   52      H       4.6797659437    -2.4881390842    -2.8993758828
   53      H       0.8404885220     1.7982805612    -3.4288990360
   54      H       1.0192271644     3.5517114638    -2.9661351288
   55      H      -1.2176662588     3.3720805184    -1.6867314483
   56      H      -1.3900979359     3.1199574799    -3.4825949678
 ----------------------------------------------------------------

    9   -1510.3013223936      3.75E-09 Convergence criterion met
 Total energy in the final basis set = -1510.30132239
 Final energy is   -1510.30132239355
 **  OPTIMIZATION CONVERGED  **

                    Orbital Energies (a.u.)
 --------------------------------------------------------------

 Alpha MOs
 -- Occupied --
-18.944 -18.943 -18.921 -18.917 -18.886 -18.885 -18.883 -18.879
-18.862 -18.857 -10.108 -10.107 -10.091 -10.086 -10.080 -10.079
-10.056 -10.054 -10.051 -10.051 -10.048 -10.045 -10.037 -10.032
-10.030 -10.022 -10.014 -10.011 -10.011 -10.010  -1.028  -1.016
 -1.000  -0.995  -0.967  -0.961  -0.948  -0.944  -0.926  -0.920
 -0.760  -0.755  -0.727  -0.715  -0.710  -0.700  -0.693  -0.655
 -0.646  -0.621  -0.593  -0.576  -0.541  -0.538  -0.532  -0.528
 -0.510  -0.507  -0.487  -0.471  -0.459  -0.456  -0.449  -0.442
 -0.427  -0.425  -0.422  -0.413  -0.407  -0.404  -0.401  -0.397
 -0.397  -0.383  -0.371  -0.363  -0.358  -0.357  -0.352  -0.342
 -0.341  -0.337  -0.335  -0.328  -0.323  -0.321  -0.315  -0.310
 -0.305  -0.300  -0.298  -0.296  -0.287  -0.280  -0.275  -0.269
 -0.268  -0.258  -0.252  -0.245  -0.235  -0.233  -0.222  -0.200
 -0.174  -0.167  -0.162  -0.161  -0.158  -0.144  -0.142  -0.141
 -0.135

          Ground-State Mulliken Net Atomic Charges

     Atom                 Charge (a.u.)
  ----------------------------------------
      1 O                    -0.218316
      2 C                     0.214538
      3 C                    -0.081375
      4 C                    -0.080149
      5 C                     0.210535
      6 O                    -0.169071
      7 C                    -0.053417
      8 C                    -0.052882
      9 O                    -0.167722
     10 C                     0.217176
     11 C                    -0.079872
     12 C                    -0.083956
     13 C                     0.212631
     14 O                    -0.223755
     15 O                    -0.176773
     16 O                    -0.170925
     17 O                    -0.215290
     18 C                    -0.135525
     19 C                     0.024636
     20 C                    -0.143496
     21 C                    -0.143897
     22 C                     0.025807
     23 O                    -0.188789
     24 H                     0.103625
     25 H                     0.100256
     26 H                     0.087219
     27 H                     0.075729
     28 H                     0.079487
     29 H                     0.075449
     30 H                     0.075951
     31 H                     0.082403
     32 O                    -0.212159
     33 C                    -0.128871
     34 C                     0.024603
     35 C                    -0.144334
     36 C                    -0.144192
     37 C                     0.016488
     38 O                    -0.196362
     39 H                     0.084004
     40 H                     0.088017
     41 H                     0.090707
     42 H                     0.086272
     43 H                     0.077563
     44 H                     0.071682
     45 H                     0.088423
     46 H                     0.072084
     47 H                     0.101662
     48 H                     0.087369
     49 H                     0.086183
     50 H                     0.082765
     51 H                     0.099866
     52 H                     0.082077
     53 H                     0.102362
     54 H                     0.092041
     55 H                     0.100365
     56 H                     0.091152
  ----------------------------------------
  Sum of atomic charges =    -0.000000

                    Cartesian Multipole Moments
 -----------------------------------------------------------------
    Charge (ESU x 10^10)
                -0.0000
    Dipole Moment (Debye)
         X      -1.8326      Y       1.1901      Z      -1.1176
       Tot       2.4543
    Quadrupole Moments (Debye-Ang)
        XX    -157.8768     XY      -1.6920     YY    -151.8221
        XZ       0.5787     YZ      -6.3822     ZZ    -154.4003

 Total job time:  109.91s(wall), 5238.56s(cpu)
        *  Thank you very much for using Q-Chem.  Have a nice day.  *
