 Q-Chem 5.0, Q-Chem, Inc., Pleasanton, CA (2017)
 Q-Chem 5.0.1 for Intel X86 EM64T Linux

User input:
--------------------------------------------------------------
$molecule
0  1
O -3.94934 -3.66094 2.70899
C -3.26408 -4.56952 2.26188
C -3.36658 -6.02376 2.66595
C -4.71828 -6.50621 3.21732
C -5.8678 -5.52628 3.13726
O -6.05205 -4.92703 4.35067
C -7.23396 -4.12134 4.40716
C -8.22969 -4.71749 5.39673
O -8.66756 -6.00502 4.93477
C -9.40899 -6.7199 5.81703
C -9.85731 -8.05221 5.26513
C -10.65586 -8.92345 6.24572
C -11.18921 -8.21566 7.47506
O -12.36413 -8.16289 7.80872
O -2.20081 -4.24535 1.47878
O -10.26426 -7.99108 8.45171
O -9.67994 -6.24422 6.90762
C -10.5558 -7.51901 9.71548
C -10.84306 -7.94518 4.0884
C -10.76386 -9.21529 3.24477
C -11.39972 -10.21869 4.18614
C -11.84043 -9.28852 5.32438
O -12.11208 -8.06561 4.68212
H -8.93187 -8.57803 4.93609
H -10.09336 -9.81853 6.59235
H -10.68131 -7.04671 3.45376
H -11.44124 -9.06544 2.37343
H -9.75083 -9.4865 2.87697
H -12.27964 -10.66844 3.67485
H -10.72251 -11.01826 4.55722
H -12.68753 -9.74654 5.88073
O -6.35653 -5.14224 2.07959
C -1.90351 -2.96567 1.05882
C -3.26729 -6.96003 1.43256
C -2.81257 -8.35306 1.86891
C -4.06281 -8.85468 2.55863
C -5.01485 -7.68703 2.28266
O -4.59687 -7.19066 1.03684
H -2.49842 -6.24016 3.32778
H -4.61628 -6.83081 4.2783
H -1.71834 -2.30766 1.9346
H -2.58666 -6.58386 0.63828
H -2.65801 -8.95205 0.94263
H -1.88554 -8.38228 2.48088
H -4.41003 -9.77313 2.03509
H -3.958 -9.05393 3.64717
H -6.07422 -8.02161 2.34818
H -2.74109 -2.5585 0.45288
H -0.98875 -2.99194 0.43192
H -9.6144 -7.42575 10.29469
H -11.23124 -8.22581 10.24311
H -11.03561 -6.51925 9.64815
H -7.70378 -4.80776 6.37494
H -9.10412 -4.03839 5.50935
H -7.77568 -3.98568 3.44437
H -6.94075 -3.10722 4.7523
$end

$opt
CONSTRAINT
tors           1           2           3           4     +25.428
tors           3           4           5           6    -100.129
tors           4           5           6           7    -172.019
tors           5           6           7           8    +114.466
tors           6           7           8           9     -64.284
tors           7           8           9          10    +171.090
tors           8           9          10          11    +179.054
tors           9          10          11          12    +177.780
tors          11          12          13          14    +122.758
ENDCONSTRAINT
$end

$rem
JOBTYPE                   OPT
METHOD                    B3LYP
DFT_D                     d3_op
BASIS                     STO-3G
GEOM_OPT_MAX_CYCLES       100
GEOM_OPT_TOL_GRADIENT     300
GEOM_OPT_TOL_DISPLACEMENT 1200
GEOM_OPT_TOL_ENERGY       100
SYMMETRY                  False
THRESH                    12
SCF_CONVERGENCE           8
MAX_SUB_FILE_NUM          128
MEM_STATIC                400
MEM_TOTAL                 4000
$end
--------------------------------------------------------------

   16   -1510.1448910390      1.95E-09 Convergence criterion met
 Total energy in the final basis set = -1510.14489104
   14   -1510.2153170017      5.73E-09 Convergence criterion met
 Total energy in the final basis set = -1510.21531700
   14   -1510.2523718721      4.34E-09 Convergence criterion met
 Total energy in the final basis set = -1510.25237187
   14   -1510.2689451610      5.48E-09 Convergence criterion met
 Total energy in the final basis set = -1510.26894516
   13   -1510.2764216612      6.88E-09 Convergence criterion met
 Total energy in the final basis set = -1510.27642166
   13   -1510.2796820517      3.04E-09 Convergence criterion met
 Total energy in the final basis set = -1510.27968205
   13   -1510.2816521929      3.35E-09 Convergence criterion met
 Total energy in the final basis set = -1510.28165219
   13   -1510.2828794957      3.34E-09 Convergence criterion met
   11   -1510.2856825710      7.12E-09 Convergence criterion met
 Total energy in the final basis set = -1510.28568257
   11   -1510.2857843273      6.06E-09 Convergence criterion met
 Total energy in the final basis set = -1510.28578433
   10   -1510.2858484980      9.94E-09 Convergence criterion met
 Total energy in the final basis set = -1510.28584850
   10   -1510.2858850879      5.80E-09 Convergence criterion met
 Total energy in the final basis set = -1510.28588509
   10   -1510.2859003748      5.74E-09 Convergence criterion met
 Total energy in the final basis set = -1510.28590037
   10   -1510.2859042328      4.16E-09 Convergence criterion met
 Total energy in the final basis set = -1510.28590423

             Standard Nuclear Orientation (Angstroms)
    I     Atom           X                Y                Z
 ----------------------------------------------------------------
    1      O       4.3779022845    -1.7344320947     0.8000680840
    2      C       4.9501552144    -0.8928474114     0.0709655953
    3      C       4.2872589473    -0.0516330825    -1.0756880540
    4      C       2.7291795480     0.1421328407    -0.8570818684
    5      C       2.1650645524    -0.5478716182     0.4354467868
    6      O       1.5469532315    -1.7857305646     0.0429650600
    7      C       0.8342376029    -2.3777745259     1.1974214120
    8      C      -0.6994469563    -2.3869625740     0.9003756661
    9      O      -1.1060717940    -0.9614987047     0.8010932587
   10      C      -2.4464834867    -0.8545466064     0.3293439454
   11      C      -2.8358432020     0.6615733114     0.2650447109
   12      C      -4.2941085314     0.8723045223    -0.3038685600
   13      C      -4.9275939562    -0.3987329298    -0.9814324578
   14      O      -5.9997358832    -0.9628909774    -0.6778197151
   15      O       6.3450060094    -0.5961472570     0.1358114860
   16      O      -4.1758022359    -0.6744296200    -2.1761346454
   17      O      -3.1830680860    -1.8336969149     0.0696343767
   18      C      -4.7230516156    -1.8750465799    -2.8432480180
   19      C      -3.0254041773     1.2064578288     1.7473626565
   20      C      -3.2454871651     2.7709586802     1.7017362521
   21      C      -4.7466960451     2.8598973662     1.2357522909
   22      C      -5.0728161390     1.3350978464     0.9974719103
   23      O      -4.3553675561     0.6641979695     2.1084179503
   24      H      -2.0664599318     1.2208464816    -0.2961609290
   25      H      -4.2878390659     1.6751272771    -1.0639416191
   26      H      -2.2509617000     0.8578750129     2.4584147237
   27      H      -3.1013438712     3.2098829236     2.7016352127
   28      H      -2.5537832136     3.2619594337     0.9985340368
   29      H      -5.3903178653     3.2707054083     2.0299679543
   30      H      -4.8767030438     3.4653128636     0.3244852097
   31      H      -6.1445782559     1.0561146239     1.0045641245
   32      O       2.1265671069    -0.0764702375     1.5930737173
   33      C       6.9867109592    -1.4089054079     1.1958831703
   34      C       4.7825589249     1.4561105273    -1.0816512683
   35      C       4.3434121629     2.1248309214    -2.4434158238
   36      C       2.8017621820     2.3276031528    -2.2002830540
   37      C       2.6404741029     1.7232412468    -0.7499494468
   38      O       3.9050851764     2.0975886918    -0.0756688069
   39      H       4.5006139361    -0.5531991254    -2.0380244359
   40      H       2.1611366186    -0.2450314865    -1.7209539706
   41      H       6.9255730639    -2.4931407574     0.9694676403
   42      H       5.8482339932     1.5777729977    -0.8081341131
   43      H       4.8607962764     3.0870549376    -2.5849163533
   44      H       4.5560545315     1.4786388788    -3.3100810609
   45      H       2.5289625583     3.3949823297    -2.2047459090
   46      H       2.1800147255     1.8009296107    -2.9417509720
   47      H       1.7714651122     2.0933517798    -0.1726189411
   48      H       6.5195724832    -1.2279341925     2.1851864640
   49      H       8.0463446476    -1.0948776330     1.2207886202
   50      H      -4.1654478245    -1.9829394941    -3.7919737055
   51      H      -5.8062917189    -1.7691480837    -3.0574856138
   52      H      -4.5738705794    -2.7819021615    -2.2214875870
   53      H      -0.9162723840    -2.9230829050    -0.0489962809
   54      H      -1.2495554039    -2.8976365494     1.7220897322
   55      H       1.0557803223    -1.7653191935     2.0992445683
   56      H       1.1948396106    -3.4176814713     1.3436490642
 ----------------------------------------------------------------

    9   -1510.2859049225      5.32E-09 Convergence criterion met
 Total energy in the final basis set = -1510.28590492
 Final energy is   -1510.28590492251
 **  OPTIMIZATION CONVERGED  **

                    Orbital Energies (a.u.)
 --------------------------------------------------------------

 Alpha MOs
 -- Occupied --
-18.944 -18.938 -18.923 -18.915 -18.888 -18.884 -18.883 -18.881
-18.866 -18.858 -10.106 -10.103 -10.094 -10.088 -10.074 -10.070
-10.065 -10.060 -10.060 -10.058 -10.053 -10.052 -10.042 -10.037
-10.036 -10.030 -10.022 -10.021 -10.018 -10.017  -1.020  -1.017
 -1.002  -0.994  -0.971  -0.967  -0.944  -0.941  -0.927  -0.921
 -0.764  -0.760  -0.727  -0.722  -0.714  -0.705  -0.695  -0.666
 -0.652  -0.615  -0.597  -0.575  -0.546  -0.542  -0.538  -0.534
 -0.513  -0.509  -0.483  -0.478  -0.464  -0.454  -0.453  -0.451
 -0.433  -0.429  -0.422  -0.417  -0.412  -0.409  -0.402  -0.400
 -0.395  -0.380  -0.372  -0.369  -0.360  -0.357  -0.353  -0.347
 -0.341  -0.337  -0.332  -0.331  -0.329  -0.326  -0.321  -0.314
 -0.309  -0.307  -0.303  -0.299  -0.298  -0.280  -0.277  -0.274
 -0.269  -0.259  -0.254  -0.242  -0.241  -0.235  -0.231  -0.185
 -0.182  -0.166  -0.162  -0.160  -0.156  -0.149  -0.145  -0.142
 -0.139

          Ground-State Mulliken Net Atomic Charges

     Atom                 Charge (a.u.)
  ----------------------------------------
      1 O                    -0.208511
      2 C                     0.214107
      3 C                    -0.077679
      4 C                    -0.080511
      5 C                     0.217735
      6 O                    -0.174586
      7 C                    -0.053229
      8 C                    -0.046863
      9 O                    -0.172786
     10 C                     0.216391
     11 C                    -0.076945
     12 C                    -0.081408
     13 C                     0.216674
     14 O                    -0.218035
     15 O                    -0.168141
     16 O                    -0.178802
     17 O                    -0.207430
     18 C                    -0.128650
     19 C                     0.024376
     20 C                    -0.144305
     21 C                    -0.143117
     22 C                     0.023701
     23 O                    -0.191012
     24 H                     0.085950
     25 H                     0.082465
     26 H                     0.086338
     27 H                     0.078574
     28 H                     0.073023
     29 H                     0.077866
     30 H                     0.072725
     31 H                     0.090646
     32 O                    -0.216278
     33 C                    -0.127631
     34 C                     0.023581
     35 C                    -0.144111
     36 C                    -0.144087
     37 C                     0.025713
     38 O                    -0.188436
     39 H                     0.086226
     40 H                     0.085438
     41 H                     0.089580
     42 H                     0.090663
     43 H                     0.078241
     44 H                     0.073144
     45 H                     0.077640
     46 H                     0.073450
     47 H                     0.085734
     48 H                     0.094090
     49 H                     0.092376
     50 H                     0.084696
     51 H                     0.087007
     52 H                     0.090135
     53 H                     0.092112
     54 H                     0.088979
     55 H                     0.106240
     56 H                     0.086936
  ----------------------------------------
  Sum of atomic charges =    -0.000000

                    Cartesian Multipole Moments
 -----------------------------------------------------------------
    Charge (ESU x 10^10)
                -0.0000
    Dipole Moment (Debye)
         X       3.1027      Y       0.6388      Z      -2.5830
       Tot       4.0874
    Quadrupole Moments (Debye-Ang)
        XX    -161.8357     XY     -13.5807     YY    -153.8093
        XZ       0.8369     YZ      -2.3467     ZZ    -156.5051

 Total job time:  53.14s(wall), 2527.56s(cpu)
        *  Thank you very much for using Q-Chem.  Have a nice day.  *
