 Q-Chem 5.0, Q-Chem, Inc., Pleasanton, CA (2017)
 Q-Chem 5.0.1 for Intel X86 EM64T Linux

User input:
--------------------------------------------------------------
$molecule
0  1
O 4.3779022845 -1.7344320947 0.800068084
C 4.9501552144 -0.8928474114 0.0709655953
C 4.2872589473 -0.0516330825 -1.075688054
C 2.729179548 0.1421328407 -0.8570818684
C 2.1650645524 -0.5478716182 0.4354467868
O 1.5469532315 -1.7857305646 0.04296506
C 0.8342376029 -2.3777745259 1.197421412
C -0.6994469563 -2.386962574 0.9003756661
O -1.106071794 -0.9614987047 0.8010932587
C -2.4464834867 -0.8545466064 0.3293439454
C -2.835843202 0.6615733114 0.2650447109
C -4.2941085314 0.8723045223 -0.30386856
C -4.9275939562 -0.3987329298 -0.9814324578
O -5.9997358832 -0.9628909774 -0.6778197151
O 6.3450060094 -0.596147257 0.135811486
O -4.1758022359 -0.67442962 -2.1761346454
O -3.183068086 -1.8336969149 0.0696343767
C -4.7230516156 -1.8750465799 -2.843248018
C -3.0254041773 1.2064578288 1.7473626565
C -3.2454871651 2.7709586802 1.7017362521
C -4.7466960451 2.8598973662 1.2357522909
C -5.072816139 1.3350978464 0.9974719103
O -4.3553675561 0.6641979695 2.1084179503
H -2.0664599318 1.2208464816 -0.296160929
H -4.2878390659 1.6751272771 -1.0639416191
H -2.2509617 0.8578750129 2.4584147237
H -3.1013438712 3.2098829236 2.7016352127
H -2.5537832136 3.2619594337 0.9985340368
H -5.3903178653 3.2707054083 2.0299679543
H -4.8767030438 3.4653128636 0.3244852097
H -6.1445782559 1.0561146239 1.0045641245
O 2.1265671069 -0.0764702375 1.5930737173
C 6.9867109592 -1.4089054079 1.1958831703
C 4.7825589249 1.4561105273 -1.0816512683
C 4.3434121629 2.1248309214 -2.4434158238
C 2.801762182 2.3276031528 -2.200283054
C 2.6404741029 1.7232412468 -0.7499494468
O 3.9050851764 2.0975886918 -0.0756688069
H 4.5006139361 -0.5531991254 -2.0380244359
H 2.1611366186 -0.2450314865 -1.7209539706
H 6.9255730639 -2.4931407574 0.9694676403
H 5.8482339932 1.5777729977 -0.8081341131
H 4.8607962764 3.0870549376 -2.5849163533
H 4.5560545315 1.4786388788 -3.3100810609
H 2.5289625583 3.3949823297 -2.204745909
H 2.1800147255 1.8009296107 -2.941750972
H 1.7714651122 2.0933517798 -0.1726189411
H 6.5195724832 -1.2279341925 2.185186464
H 8.0463446476 -1.094877633 1.2207886202
H -4.1654478245 -1.9829394941 -3.7919737055
H -5.8062917189 -1.7691480837 -3.0574856138
H -4.5738705794 -2.7819021615 -2.221487587
H -0.916272384 -2.923082905 -0.0489962809
H -1.2495554039 -2.8976365494 1.7220897322
H 1.0557803223 -1.7653191935 2.0992445683
H 1.1948396106 -3.4176814713 1.3436490642
$end

$rem
JOBTYPE                   OPT
METHOD                    B3LYP
DFT_D                     d3_op
BASIS                     STO-3G
GEOM_OPT_MAX_CYCLES       100
GEOM_OPT_TOL_GRADIENT     300
GEOM_OPT_TOL_DISPLACEMENT 1200
GEOM_OPT_TOL_ENERGY       100
SYMMETRY                  False
THRESH                    12
SCF_CONVERGENCE           8
MAX_SUB_FILE_NUM          128
MEM_STATIC                400
MEM_TOTAL                 4000
$end
--------------------------------------------------------------

   16   -1510.2857736452      6.82E-09 Convergence criterion met
 Total energy in the final basis set = -1510.28577365
   13   -1510.2865599307      8.87E-09 Convergence criterion met
 Total energy in the final basis set = -1510.28655993
   14   -1510.2869073265      1.40E-09 Convergence criterion met
 Total energy in the final basis set = -1510.28690733
   13   -1510.2872976161      2.70E-09 Convergence criterion met
 Total energy in the final basis set = -1510.28729762
   13   -1510.2876339244      6.12E-09 Convergence criterion met
 Total energy in the final basis set = -1510.28763392
   14   -1510.2876526088      1.79E-09 Convergence criterion met
 Total energy in the final basis set = -1510.28765261
   13   -1510.2880818823      4.23E-09 Convergence criterion met
 Total energy in the final basis set = -1510.28808188
   13   -1510.2881547892      3.42E-09 Convergence criterion met
   13   -1510.3026310046      3.56E-09 Convergence criterion met
 Total energy in the final basis set = -1510.30263100
   12   -1510.3025147626      7.19E-09 Convergence criterion met
 Total energy in the final basis set = -1510.30251476
   12   -1510.3026365834      9.62E-09 Convergence criterion met
 Total energy in the final basis set = -1510.30263658
   12   -1510.3025960175      7.69E-09 Convergence criterion met
 Total energy in the final basis set = -1510.30259602
   12   -1510.3026412986      3.81E-09 Convergence criterion met
 Total energy in the final basis set = -1510.30264130
    9   -1510.3026501539      9.11E-09 Convergence criterion met
 Total energy in the final basis set = -1510.30265015

             Standard Nuclear Orientation (Angstroms)
    I     Atom           X                Y                Z
 ----------------------------------------------------------------
    1      O       3.7824554651    -0.9842201405     0.8904346941
    2      C       3.7871859538    -0.7248646538    -0.3342814766
    3      C       2.7135040745     0.0888556200    -1.1280523808
    4      C       1.3878077976     0.3103174111    -0.2987867102
    5      C       1.3346630547    -0.4436192202     1.0735304253
    6      O       1.1663347663    -1.8490110063     0.7827207406
    7      C       0.8935607815    -2.6044141660     2.0223202918
    8      C      -0.6596479159    -2.8296092259     2.1599044907
    9      O      -1.3331376952    -1.5098786440     2.2238015209
   10      C      -1.6717037391    -1.0519550201     0.9154882926
   11      C      -2.1238555025     0.4407163656     1.0201187826
   12      C      -2.5130187708     1.0569009953    -0.3826278023
   13      C      -2.3449343835     0.0741859576    -1.5997851828
   14      O      -3.2423953155    -0.5364806276    -2.2138378741
   15      O       4.8234765671    -1.1230404920    -1.2345673264
   16      O      -0.9693410378     0.1314859479    -2.0491325608
   17      O      -1.6308692701    -1.7486487445    -0.1254953558
   18      C      -0.7633857722    -0.8073060112    -3.1736905819
   19      C      -3.5009846711     0.5748283055     1.8041482286
   20      C      -3.7205940410     2.0950450454     2.1689886691
   21      C      -4.1227311925     2.6890425904     0.7676116702
   22      C      -4.0434855763     1.4008401972    -0.1427682936
   23      O      -4.5076802779     0.3142545183     0.7515365552
   24      H      -1.3169912267     1.0103449171     1.5163121338
   25      H      -1.9169207448     1.9637191059    -0.5877327410
   26      H      -3.6131600847    -0.1376524227     2.6442175771
   27      H      -4.5355703265     2.2001596832     2.9025877869
   28      H      -2.8096329286     2.5557117417     2.5834322619
   29      H      -5.1486260530     3.0904181637     0.7790830763
   30      H      -3.4362482732     3.4810929107     0.4280144142
   31      H      -4.6529381966     1.4240303400    -1.0667258711
   32      O       1.2923038161     0.0483671171     2.2209441751
   33      C       5.8693617383    -1.8749051297    -0.5022823684
   34      C       3.1956604557     1.5940745001    -1.3278439274
   35      C       2.2367490313     2.2947973825    -2.3693836130
   36      C       0.9403307482     2.5019521712    -1.5019477145
   37      C       1.4019850839     1.8842568199    -0.1228984792
   38      O       2.8411719497     2.2289765186    -0.0405818491
   39      H       2.5298170445    -0.4084555547    -2.0969950813
   40      H       0.4934079263     0.0127387429    -0.8912621771
   41      H       5.4558165102    -2.7865116474    -0.0244876951
   42      H       4.2783789705     1.7013435415    -1.5352293204
   43      H       2.6657511232     3.2552190042    -2.6971631696
   44      H       2.0586546008     1.6669879649    -3.2573131144
   45      H       0.6868160873     3.5683594454    -1.3957701481
   46      H       0.0760973155     1.9487252658    -1.9095226806
   47      H       0.8679627843     2.2476974997     0.7763039069
   48      H       6.3460585935    -1.2520857516     0.2819513350
   49      H       6.6239679879    -2.1624920130    -1.2572802195
   50      H       0.2758393526    -0.6521589654    -3.5171198100
   51      H      -1.4679594167    -0.6050717187    -4.0054162307
   52      H      -0.8937454247    -1.8574505536    -2.8414583336
   53      H      -1.0413634864    -3.4108195468     1.2937597621
   54      H      -0.8922247037    -3.3556523008     3.1079137844
   55      H       1.2671626145    -2.0332607748     2.8989702667
   56      H       1.4120098706    -3.5822937498     1.9470084488
 ----------------------------------------------------------------

    9   -1510.3026501220      2.68E-09 Convergence criterion met
 Total energy in the final basis set = -1510.30265012
 Final energy is   -1510.30265012204
 **  OPTIMIZATION CONVERGED  **

                    Orbital Energies (a.u.)
 --------------------------------------------------------------

 Alpha MOs
 -- Occupied --
-18.943 -18.938 -18.938 -18.917 -18.889 -18.889 -18.880 -18.879
-18.875 -18.863 -10.109 -10.102 -10.100 -10.089 -10.074 -10.066
-10.066 -10.065 -10.062 -10.060 -10.056 -10.048 -10.042 -10.039
-10.034 -10.021 -10.020 -10.015 -10.015 -10.007  -1.024  -1.014
 -1.009  -0.996  -0.972  -0.964  -0.947  -0.938  -0.937  -0.926
 -0.766  -0.756  -0.727  -0.719  -0.713  -0.703  -0.694  -0.664
 -0.663  -0.617  -0.597  -0.576  -0.548  -0.541  -0.538  -0.531
 -0.514  -0.506  -0.489  -0.471  -0.469  -0.459  -0.452  -0.446
 -0.433  -0.427  -0.425  -0.417  -0.414  -0.413  -0.410  -0.402
 -0.398  -0.379  -0.374  -0.368  -0.359  -0.358  -0.352  -0.350
 -0.343  -0.340  -0.337  -0.334  -0.328  -0.327  -0.319  -0.315
 -0.309  -0.306  -0.302  -0.298  -0.295  -0.285  -0.280  -0.274
 -0.269  -0.255  -0.253  -0.249  -0.237  -0.236  -0.226  -0.194
 -0.180  -0.179  -0.165  -0.157  -0.154  -0.152  -0.146  -0.144
 -0.138

          Ground-State Mulliken Net Atomic Charges

     Atom                 Charge (a.u.)
  ----------------------------------------
      1 O                    -0.207825
      2 C                     0.214022
      3 C                    -0.077983
      4 C                    -0.097654
      5 C                     0.211673
      6 O                    -0.180876
      7 C                    -0.053611
      8 C                    -0.051848
      9 O                    -0.169251
     10 C                     0.215081
     11 C                    -0.079604
     12 C                    -0.082917
     13 C                     0.221183
     14 O                    -0.208241
     15 O                    -0.169811
     16 O                    -0.176729
     17 O                    -0.206234
     18 C                    -0.127352
     19 C                     0.025788
     20 C                    -0.143640
     21 C                    -0.144035
     22 C                     0.025438
     23 O                    -0.188455
     24 H                     0.092283
     25 H                     0.085184
     26 H                     0.087896
     27 H                     0.079042
     28 H                     0.075974
     29 H                     0.078650
     30 H                     0.073561
     31 H                     0.088586
     32 O                    -0.218285
     33 C                    -0.128351
     34 C                     0.025191
     35 C                    -0.143410
     36 C                    -0.152693
     37 C                     0.022524
     38 O                    -0.191874
     39 H                     0.083349
     40 H                     0.107320
     41 H                     0.089788
     42 H                     0.081746
     43 H                     0.075780
     44 H                     0.070532
     45 H                     0.070502
     46 H                     0.085041
     47 H                     0.080738
     48 H                     0.090513
     49 H                     0.090899
     50 H                     0.086381
     51 H                     0.091356
     52 H                     0.097022
     53 H                     0.098234
     54 H                     0.090613
     55 H                     0.102156
     56 H                     0.086633
  ----------------------------------------
  Sum of atomic charges =    -0.000000

                    Cartesian Multipole Moments
 -----------------------------------------------------------------
    Charge (ESU x 10^10)
                -0.0000
    Dipole Moment (Debye)
         X       1.0408      Y      -0.2289      Z      -1.0451
       Tot       1.4926
    Quadrupole Moments (Debye-Ang)
        XX    -162.6197     XY     -13.7916     YY    -151.3757
        XZ     -10.4652     YZ      -6.4078     ZZ    -157.5131

 Total job time:  122.01s(wall), 5810.76s(cpu)
        *  Thank you very much for using Q-Chem.  Have a nice day.  *
