 Q-Chem 5.0, Q-Chem, Inc., Pleasanton, CA (2017)
 Q-Chem 5.0.1 for Intel X86 EM64T Linux

User input:
--------------------------------------------------------------
$molecule
0  1
O -3.94934 -3.66094 2.70899
C -3.26408 -4.56952 2.26188
C -3.36658 -6.02376 2.66595
C -4.57929 -6.81346 2.14678
C -5.45974 -6.11075 1.13727
O -6.56928 -5.6111 1.7575
C -7.4664 -4.94925 0.85951
C -7.92082 -5.91114 -0.23338
O -6.7975 -6.30428 -1.03742
C -7.03602 -7.30201 -1.92443
C -8.23976 -7.03794 -2.79731
C -8.54406 -8.13385 -3.82914
C -7.84704 -9.46128 -3.60826
O -8.40509 -10.5389 -3.4603
O -2.29289 -4.24622 1.36465
O -6.54207 -9.50504 -3.99952
O -6.17283 -8.14275 -2.07341
C -5.76837 -10.64775 -4.03179
C -9.72165 -7.08835 -2.16875
C -10.65213 -6.21772 -3.0169
C -10.78319 -7.07112 -4.2517
C -10.05151 -8.32731 -3.77371
O -10.24364 -8.37012 -2.40056
H -8.10041 -6.03605 -3.26291
H -8.22815 -7.81191 -4.84691
H -9.93614 -6.79702 -1.13681
H -11.64251 -6.20863 -2.50392
H -10.33149 -5.16729 -3.18485
H -11.86257 -7.26758 -4.4371
H -10.30633 -6.6571 -5.16679
H -10.38958 -9.22032 -4.34441
O -4.92638 -5.57366 0.16998
C -2.0606 -2.97278 0.88853
C -2.22653 -6.89697 2.08321
C -2.06223 -8.17692 2.9056
C -3.28005 -8.95527 2.46104
C -3.87064 -7.98249 1.43872
O -2.74107 -7.37287 0.86561
H -3.27797 -6.04247 3.77495
H -5.22574 -7.1929 2.97107
H -1.79774 -2.29223 1.72633
H -1.24787 -6.37195 2.03199
H -1.15398 -8.70611 2.53796
H -1.97468 -8.01227 4.00109
H -2.93822 -9.878 1.94084
H -3.99727 -9.22067 3.26753
H -4.54305 -8.52377 0.73601
H -2.96207 -2.59173 0.3625
H -1.21436 -3.00137 0.17195
H -4.74885 -10.38654 -4.38216
H -6.20762 -11.38992 -4.73208
H -5.69539 -11.08755 -3.01409
H -8.37196 -6.78993 0.28197
H -8.60225 -5.27345 -0.83391
H -6.98313 -4.05047 0.413
H -8.35056 -4.60646 1.43827
$end

$opt
CONSTRAINT
tors           1           2           3           4     +73.884
tors           3           4           5           6    -100.129
tors           4           5           6           7    -178.972
tors           5           6           7           8     +58.601
tors           6           7           8           9     -64.284
tors           7           8           9          10    +171.090
tors           8           9          10          11     +51.712
tors           9          10          11          12    +179.434
tors          11          12          13          14    +121.708
ENDCONSTRAINT
$end

$rem
JOBTYPE                   OPT
METHOD                    B3LYP
DFT_D                     d3_op
BASIS                     STO-3G
GEOM_OPT_MAX_CYCLES       100
GEOM_OPT_TOL_GRADIENT     300
GEOM_OPT_TOL_DISPLACEMENT 1200
GEOM_OPT_TOL_ENERGY       100
SYMMETRY                  False
THRESH                    12
SCF_CONVERGENCE           8
MAX_SUB_FILE_NUM          128
MEM_STATIC                400
MEM_TOTAL                 4000
$end
--------------------------------------------------------------

   15   -1510.0829035908      8.81E-09 Convergence criterion met
 Total energy in the final basis set = -1510.08290359
   14   -1510.1607961528      6.35E-09 Convergence criterion met
 Total energy in the final basis set = -1510.16079615
   14   -1510.2028428427      6.42E-09 Convergence criterion met
 Total energy in the final basis set = -1510.20284284
   14   -1510.2261382973      8.72E-09 Convergence criterion met
 Total energy in the final basis set = -1510.22613830
   14   -1510.2352461676      4.19E-09 Convergence criterion met
 Total energy in the final basis set = -1510.23524617
   14   -1510.2397181444      3.21E-09 Convergence criterion met
 Total energy in the final basis set = -1510.23971814
   13   -1510.2421541794      4.83E-09 Convergence criterion met
 Total energy in the final basis set = -1510.24215418
   13   -1510.2435763745      5.52E-09 Convergence criterion met
   11   -1510.2513446270      7.68E-09 Convergence criterion met
 Total energy in the final basis set = -1510.25134463
   11   -1510.2514408251      4.46E-09 Convergence criterion met
 Total energy in the final basis set = -1510.25144083
   11   -1510.2514977253      3.48E-09 Convergence criterion met
 Total energy in the final basis set = -1510.25149773
   11   -1510.2515294772      4.15E-09 Convergence criterion met
 Total energy in the final basis set = -1510.25152948
   11   -1510.2515416185      2.15E-09 Convergence criterion met
 Total energy in the final basis set = -1510.25154162
   10   -1510.2515435583      9.70E-09 Convergence criterion met
 Total energy in the final basis set = -1510.25154356

             Standard Nuclear Orientation (Angstroms)
    I     Atom           X                Y                Z
 ----------------------------------------------------------------
    1      O       4.4398629770    -2.0363305970     0.6308883498
    2      C       4.5756349016    -0.7931672324     0.5859517253
    3      C       4.6321860233     0.0895923767    -0.7150028735
    4      C       3.1956799968     0.2401168345    -1.3903472779
    5      C       2.0822853631    -0.5331341436    -0.5998380957
    6      O       1.8615815378    -1.7662005249    -1.3015954089
    7      C       0.8175249984    -2.6438987169    -0.7247865107
    8      C      -0.6533706259    -2.0829618828    -0.5778401622
    9      O      -0.7010002820    -0.9584536319     0.3666097924
   10      C      -1.9443912645    -0.2359546811     0.4356410284
   11      C      -3.3305071389    -0.9848415693     0.6584435704
   12      C      -4.5109996471     0.0753416761     0.7037822569
   13      C      -4.0833643864     1.5760982539     0.9235515809
   14      O      -4.3210289596     2.5428038626     0.1684872325
   15      O       4.6579724102     0.0406533010     1.7429495087
   16      O      -3.6415313481     1.6961901351     2.2894927834
   17      O      -1.8554576013     1.0153626062     0.4489639845
   18      C      -3.2130654476     3.0864936739     2.5509844570
   19      C      -3.8163429480    -1.8194254974    -0.6122954774
   20      C      -5.1748534249    -2.5606306029    -0.2673777875
   21      C      -6.2230806468    -1.4024516437    -0.4535370169
   22      C      -5.2524635484    -0.1810507984    -0.6712359908
   23      O      -4.2088673000    -0.7498826046    -1.5558728522
   24      H      -3.2674734116    -1.5992278663     1.5753211911
   25      H      -5.1805240210    -0.1742915653     1.5473783960
   26      H      -3.0647033195    -2.4771022397    -1.0783190172
   27      H      -5.3496782547    -3.3888349623    -0.9718928655
   28      H      -5.1703366720    -2.9665360790     0.7571547910
   29      H      -6.8474175481    -1.5652016048    -1.3469651152
   30      H      -6.8791595633    -1.2705922806     0.4214625297
   31      H      -5.6937294431     0.7290631519    -1.1225328959
   32      O       1.6033727667    -0.2224287289     0.5086979952
   33      C       4.4918426407    -0.7776195340     2.9661999997
   34      C       4.9863611560     1.6073486300    -0.4366267304
   35      C       5.3257082567     2.3055672454    -1.8137208635
   36      C       3.8890875817     2.4779008430    -2.4333271999
   37      C       2.9959118244     1.8140890904    -1.3128203278
   38      O       3.6804997982     2.1945868784    -0.0569970712
   39      H       5.3410459596    -0.3844642796    -1.4178196431
   40      H       3.2076218688    -0.1249697187    -2.4320853792
   41      H       5.2732073372    -1.5611021232     3.0446706656
   42      H       5.7288652069     1.7616880819     0.3689021866
   43      H       5.8106261661     3.2795683339    -1.6421109132
   44      H       5.9877798434     1.6868969682    -2.4405843306
   45      H       3.6260648886     3.5410083908    -2.5528968938
   46      H       3.7796077719     1.9755526205    -3.4078094602
   47      H       1.9382034244     2.1411935435    -1.2899635526
   48      H       3.4961152687    -1.2655107523     2.9906272007
   49      H       4.5808524294    -0.0756899808     3.8154284658
   50      H      -2.9858228836     3.1427892151     3.6315322118
   51      H      -4.0094944243     3.8160230503     2.2977746660
   52      H      -2.3033354044     3.3410162487     1.9688406126
   53      H      -1.0223337838    -1.7730205043    -1.5810314419
   54      H      -1.2670118220    -2.9450760403    -0.2293333859
   55      H       1.1467611199    -3.0076981797     0.2751572421
   56      H       0.7701239463    -3.5114205257    -1.4143894353
 ----------------------------------------------------------------

    9   -1510.2515442210      4.50E-09 Convergence criterion met
 Total energy in the final basis set = -1510.25154422
 Final energy is   -1510.25154422097
 **  OPTIMIZATION CONVERGED  **

                    Orbital Energies (a.u.)
 --------------------------------------------------------------

 Alpha MOs
 -- Occupied --
-18.932 -18.930 -18.929 -18.908 -18.902 -18.889 -18.881 -18.876
-18.866 -18.850 -10.111 -10.095 -10.094 -10.087 -10.085 -10.080
-10.065 -10.059 -10.057 -10.054 -10.053 -10.046 -10.044 -10.034
-10.031 -10.030 -10.024 -10.021 -10.016 -10.015  -1.016  -1.008
 -1.002  -0.988  -0.974  -0.963  -0.945  -0.935  -0.930  -0.916
 -0.763  -0.758  -0.726  -0.722  -0.714  -0.705  -0.699  -0.656
 -0.647  -0.617  -0.598  -0.583  -0.548  -0.541  -0.538  -0.531
 -0.518  -0.507  -0.487  -0.476  -0.459  -0.456  -0.452  -0.440
 -0.433  -0.429  -0.427  -0.415  -0.408  -0.406  -0.400  -0.396
 -0.394  -0.390  -0.371  -0.363  -0.362  -0.353  -0.348  -0.346
 -0.342  -0.339  -0.331  -0.329  -0.325  -0.324  -0.321  -0.315
 -0.308  -0.304  -0.302  -0.301  -0.287  -0.281  -0.279  -0.272
 -0.269  -0.251  -0.243  -0.240  -0.239  -0.236  -0.227  -0.185
 -0.172  -0.167  -0.160  -0.155  -0.148  -0.148  -0.139  -0.137
 -0.134

          Ground-State Mulliken Net Atomic Charges

     Atom                 Charge (a.u.)
  ----------------------------------------
      1 O                    -0.219252
      2 C                     0.206597
      3 C                    -0.077901
      4 C                    -0.078582
      5 C                     0.208733
      6 O                    -0.172821
      7 C                    -0.045231
      8 C                    -0.043759
      9 O                    -0.170177
     10 C                     0.222520
     11 C                    -0.081246
     12 C                    -0.082048
     13 C                     0.217514
     14 O                    -0.224770
     15 O                    -0.162701
     16 O                    -0.180351
     17 O                    -0.173311
     18 C                    -0.128843
     19 C                     0.019583
     20 C                    -0.145326
     21 C                    -0.142177
     22 C                     0.023151
     23 O                    -0.192953
     24 H                     0.086554
     25 H                     0.082749
     26 H                     0.077458
     27 H                     0.077079
     28 H                     0.073009
     29 H                     0.078083
     30 H                     0.074636
     31 H                     0.092683
     32 O                    -0.192191
     33 C                    -0.126807
     34 C                     0.025294
     35 C                    -0.144696
     36 C                    -0.143753
     37 C                     0.025442
     38 O                    -0.184307
     39 H                     0.083603
     40 H                     0.084450
     41 H                     0.087023
     42 H                     0.088462
     43 H                     0.077169
     44 H                     0.071890
     45 H                     0.077900
     46 H                     0.072509
     47 H                     0.087446
     48 H                     0.092058
     49 H                     0.091733
     50 H                     0.084840
     51 H                     0.085842
     52 H                     0.090875
     53 H                     0.085379
     54 H                     0.078964
     55 H                     0.090078
     56 H                     0.091896
  ----------------------------------------
  Sum of atomic charges =    -0.000000

                    Cartesian Multipole Moments
 -----------------------------------------------------------------
    Charge (ESU x 10^10)
                -0.0000
    Dipole Moment (Debye)
         X      -0.1421      Y      -3.4054      Z      -0.2454
       Tot       3.4172
    Quadrupole Moments (Debye-Ang)
        XX    -146.6212     XY      14.0292     YY    -157.5982
        XZ      -7.8893     YZ      -0.6896     ZZ    -154.0489

 Total job time:  62.36s(wall), 2968.54s(cpu)
        *  Thank you very much for using Q-Chem.  Have a nice day.  *
