 Q-Chem 5.0, Q-Chem, Inc., Pleasanton, CA (2017)
 Q-Chem 5.0.1 for Intel X86 EM64T Linux

User input:
--------------------------------------------------------------
$molecule
0  1
O 4.439862977 -2.036330597 0.6308883498
C 4.5756349016 -0.7931672324 0.5859517253
C 4.6321860233 0.0895923767 -0.7150028735
C 3.1956799968 0.2401168345 -1.3903472779
C 2.0822853631 -0.5331341436 -0.5998380957
O 1.8615815378 -1.7662005249 -1.3015954089
C 0.8175249984 -2.6438987169 -0.7247865107
C -0.6533706259 -2.0829618828 -0.5778401622
O -0.701000282 -0.9584536319 0.3666097924
C -1.9443912645 -0.2359546811 0.4356410284
C -3.3305071389 -0.9848415693 0.6584435704
C -4.5109996471 0.0753416761 0.7037822569
C -4.0833643864 1.5760982539 0.9235515809
O -4.3210289596 2.5428038626 0.1684872325
O 4.6579724102 0.040653301 1.7429495087
O -3.6415313481 1.6961901351 2.2894927834
O -1.8554576013 1.0153626062 0.4489639845
C -3.2130654476 3.0864936739 2.550984457
C -3.816342948 -1.8194254974 -0.6122954774
C -5.1748534249 -2.5606306029 -0.2673777875
C -6.2230806468 -1.4024516437 -0.4535370169
C -5.2524635484 -0.1810507984 -0.6712359908
O -4.2088673 -0.7498826046 -1.5558728522
H -3.2674734116 -1.5992278663 1.5753211911
H -5.180524021 -0.1742915653 1.547378396
H -3.0647033195 -2.4771022397 -1.0783190172
H -5.3496782547 -3.3888349623 -0.9718928655
H -5.170336672 -2.966536079 0.757154791
H -6.8474175481 -1.5652016048 -1.3469651152
H -6.8791595633 -1.2705922806 0.4214625297
H -5.6937294431 0.7290631519 -1.1225328959
O 1.6033727667 -0.2224287289 0.5086979952
C 4.4918426407 -0.777619534 2.9661999997
C 4.986361156 1.60734863 -0.4366267304
C 5.3257082567 2.3055672454 -1.8137208635
C 3.8890875817 2.477900843 -2.4333271999
C 2.9959118244 1.8140890904 -1.3128203278
O 3.6804997982 2.1945868784 -0.0569970712
H 5.3410459596 -0.3844642796 -1.4178196431
H 3.2076218688 -0.1249697187 -2.4320853792
H 5.2732073372 -1.5611021232 3.0446706656
H 5.7288652069 1.7616880819 0.3689021866
H 5.8106261661 3.2795683339 -1.6421109132
H 5.9877798434 1.6868969682 -2.4405843306
H 3.6260648886 3.5410083908 -2.5528968938
H 3.7796077719 1.9755526205 -3.4078094602
H 1.9382034244 2.1411935435 -1.2899635526
H 3.4961152687 -1.2655107523 2.9906272007
H 4.5808524294 -0.0756899808 3.8154284658
H -2.9858228836 3.1427892151 3.6315322118
H -4.0094944243 3.8160230503 2.297774666
H -2.3033354044 3.3410162487 1.9688406126
H -1.0223337838 -1.7730205043 -1.5810314419
H -1.267011822 -2.9450760403 -0.2293333859
H 1.1467611199 -3.0076981797 0.2751572421
H 0.7701239463 -3.5114205257 -1.4143894353
$end

$rem
JOBTYPE                   OPT
METHOD                    B3LYP
DFT_D                     d3_op
BASIS                     STO-3G
GEOM_OPT_MAX_CYCLES       100
GEOM_OPT_TOL_GRADIENT     300
GEOM_OPT_TOL_DISPLACEMENT 1200
GEOM_OPT_TOL_ENERGY       100
SYMMETRY                  False
THRESH                    12
SCF_CONVERGENCE           8
MAX_SUB_FILE_NUM          128
MEM_STATIC                400
MEM_TOTAL                 4000
$end
--------------------------------------------------------------

   16   -1510.2512120897      4.94E-09 Convergence criterion met
 Total energy in the final basis set = -1510.25121209
   13   -1510.2559092756      9.93E-09 Convergence criterion met
 Total energy in the final basis set = -1510.25590928
   13   -1510.2605083656      8.59E-09 Convergence criterion met
 Total energy in the final basis set = -1510.26050837
   13   -1510.2642451526      5.60E-09 Convergence criterion met
 Total energy in the final basis set = -1510.26424515
   13   -1510.2670987215      5.72E-09 Convergence criterion met
 Total energy in the final basis set = -1510.26709872
   13   -1510.2692034728      5.02E-09 Convergence criterion met
 Total energy in the final basis set = -1510.26920347
   13   -1510.2708436186      3.84E-09 Convergence criterion met
 Total energy in the final basis set = -1510.27084362
   13   -1510.2720444180      7.22E-09 Convergence criterion met
   12   -1510.2875929741      7.49E-09 Convergence criterion met
 Total energy in the final basis set = -1510.28759297
   12   -1510.2876587645      5.25E-09 Convergence criterion met
 Total energy in the final basis set = -1510.28765876
   11   -1510.2876656199      7.07E-09 Convergence criterion met
 Total energy in the final basis set = -1510.28766562
   10   -1510.2876741612      8.01E-09 Convergence criterion met
 Total energy in the final basis set = -1510.28767416
   10   -1510.2876728580      5.61E-09 Convergence criterion met
 Total energy in the final basis set = -1510.28767286
    9   -1510.2876744322      5.26E-09 Convergence criterion met
 Total energy in the final basis set = -1510.28767443

             Standard Nuclear Orientation (Angstroms)
    I     Atom           X                Y                Z
 ----------------------------------------------------------------
    1      O       4.4147425334     0.9496918041     1.0437567445
    2      C       3.4053802177     0.6071594748     0.3894197328
    3      C       3.4043035949    -0.0522693727    -1.0375912988
    4      C       3.0944382948    -1.6115932950    -1.0469234886
    5      C       2.5568653238    -2.1050938295     0.3483413267
    6      O       1.4902133150    -3.0393707585     0.1352317583
    7      C       0.7285475319    -3.2635081177     1.3824391863
    8      C      -0.5583544702    -2.3634355097     1.3500521867
    9      O      -0.1708077966    -1.0370449415     1.8821722234
   10      C      -1.0897320825     0.0290089761     1.6175950828
   11      C      -2.1991478646    -0.1412869145     0.5214052358
   12      C      -3.2867566244     1.0094285309     0.5762735095
   13      C      -3.1003535983     2.0467039860     1.7474383209
   14      O      -2.8004318563     3.2547889157     1.6496091350
   15      O       2.0562782436     0.7987597480     0.8062318721
   16      O      -3.5031047823     1.4033668240     2.9686376096
   17      O      -0.8877594698     1.1074510209     2.2319089237
   18      C      -3.2921346608     2.3239879428     4.1065676316
   19      C      -1.5688700819     0.1099025026    -0.9282795449
   20      C      -2.6162953748    -0.3907885033    -2.0012264898
   21      C      -3.6929712817     0.7565960651    -1.9448584580
   22      C      -3.0770120119     1.6950145291    -0.8353065577
   23      O      -1.6180825471     1.5814091164    -1.0555815181
   24      H      -2.6799905721    -1.1298421962     0.5986376838
   25      H      -4.2957707641     0.5694052711     0.6721904688
   26      H      -0.5188858989    -0.2421290551    -1.0886022573
   27      H      -2.1425522600    -0.4535400555    -2.9937536304
   28      H      -3.0344733939    -1.3782521519    -1.7476555224
   29      H      -3.7645490666     1.2903850515    -2.9057725075
   30      H      -4.6943027069     0.3882479106    -1.6699838758
   31      H      -3.3914344085     2.7561422533    -0.8702386284
   32      O       2.9661859397    -1.7579177023     1.4771236344
   33      C       2.0166138748     1.3461981577     2.1835197949
   34      C       2.2452396017     0.4831712736    -1.9891028558
   35      C       2.6891185632     0.2238221587    -3.4799056471
   36      C       2.5549874287    -1.3428924794    -3.5632914302
   37      C       1.9554937512    -1.6831051187    -2.1425955271
   38      O       1.1442846846    -0.4911633985    -1.8066671102
   39      H       4.3962046150     0.1379852361    -1.4834202640
   40      H       3.9891997202    -2.2005466276    -1.3214119755
   41      H       2.4551676585     2.3637183768     2.2232036723
   42      H       1.8912890605     1.5070674200    -1.7616947683
   43      H       1.9990332153     0.7236328402    -4.1783781397
   44      H       3.7131979219     0.5775466919    -3.6777822899
   45      H       1.8582220558    -1.6496075145    -4.3593855518
   46      H       3.5225809242    -1.8431612125    -3.7296745599
   47      H       1.3389117881    -2.5996422507    -2.0859172068
   48      H       2.5715348568     0.6898870518     2.8830909659
   49      H       0.9351272980     1.3722589156     2.4473883405
   50      H      -3.6524243251     1.7910436171     5.0057602265
   51      H      -3.8598514147     3.2689413378     3.9819907475
   52      H      -2.2175200776     2.5716741947     4.2277034850
   53      H      -0.9166879580    -2.3107293244     0.3014501649
   54      H      -1.3571187483    -2.8136659225     1.9818412035
   55      H       1.3540120406    -3.0077242731     2.2652037333
   56      H       0.4414911249    -4.3346087291     1.4079419397
 ----------------------------------------------------------------

    9   -1510.2876749943      4.77E-09 Convergence criterion met
 Total energy in the final basis set = -1510.28767499
 Final energy is   -1510.28767499430
 **  OPTIMIZATION CONVERGED  **

                    Orbital Energies (a.u.)
 --------------------------------------------------------------

 Alpha MOs
 -- Occupied --
-18.945 -18.940 -18.914 -18.912 -18.901 -18.889 -18.888 -18.878
-18.857 -18.854 -10.111 -10.108 -10.088 -10.086 -10.083 -10.083
-10.066 -10.063 -10.051 -10.050 -10.044 -10.042 -10.038 -10.033
-10.029 -10.026 -10.025 -10.023 -10.015 -10.014  -1.024  -1.015
 -0.993  -0.991  -0.979  -0.962  -0.949  -0.943  -0.920  -0.916
 -0.766  -0.757  -0.732  -0.719  -0.717  -0.705  -0.698  -0.650
 -0.637  -0.616  -0.597  -0.586  -0.550  -0.541  -0.538  -0.533
 -0.516  -0.511  -0.490  -0.478  -0.465  -0.456  -0.451  -0.446
 -0.437  -0.430  -0.427  -0.414  -0.410  -0.401  -0.399  -0.395
 -0.391  -0.385  -0.378  -0.363  -0.358  -0.353  -0.347  -0.345
 -0.342  -0.337  -0.332  -0.328  -0.327  -0.321  -0.318  -0.311
 -0.310  -0.308  -0.306  -0.299  -0.296  -0.284  -0.273  -0.270
 -0.268  -0.257  -0.252  -0.241  -0.238  -0.234  -0.222  -0.189
 -0.177  -0.165  -0.160  -0.157  -0.156  -0.154  -0.138  -0.136
 -0.134

          Ground-State Mulliken Net Atomic Charges

     Atom                 Charge (a.u.)
  ----------------------------------------
      1 O                    -0.216565
      2 C                     0.209548
      3 C                    -0.081552
      4 C                    -0.076790
      5 C                     0.217378
      6 O                    -0.177843
      7 C                    -0.049747
      8 C                    -0.046840
      9 O                    -0.163965
     10 C                     0.224838
     11 C                    -0.085699
     12 C                    -0.079976
     13 C                     0.216817
     14 O                    -0.216026
     15 O                    -0.175491
     16 O                    -0.180002
     17 O                    -0.195319
     18 C                    -0.128763
     19 C                     0.005710
     20 C                    -0.145358
     21 C                    -0.144750
     22 C                     0.024956
     23 O                    -0.189585
     24 H                     0.077145
     25 H                     0.080957
     26 H                     0.112372
     27 H                     0.076513
     28 H                     0.066348
     29 H                     0.076360
     30 H                     0.070700
     31 H                     0.088233
     32 O                    -0.202268
     33 C                    -0.142613
     34 C                     0.028592
     35 C                    -0.142732
     36 C                    -0.144921
     37 C                     0.024792
     38 O                    -0.192982
     39 H                     0.083612
     40 H                     0.087065
     41 H                     0.077885
     42 H                     0.095205
     43 H                     0.079521
     44 H                     0.076245
     45 H                     0.078055
     46 H                     0.075075
     47 H                     0.091691
     48 H                     0.084685
     49 H                     0.111243
     50 H                     0.084882
     51 H                     0.086113
     52 H                     0.091843
     53 H                     0.091784
     54 H                     0.084343
     55 H                     0.109685
     56 H                     0.089597
  ----------------------------------------
  Sum of atomic charges =    -0.000000

                    Cartesian Multipole Moments
 -----------------------------------------------------------------
    Charge (ESU x 10^10)
                -0.0000
    Dipole Moment (Debye)
         X      -2.1525      Y      -4.6853      Z      -2.4514
       Tot       5.7091
    Quadrupole Moments (Debye-Ang)
        XX    -160.2290     XY       0.9960     YY    -158.2588
        XZ     -11.6959     YZ      -1.7299     ZZ    -153.2574

 Total job time:  162.44s(wall), 7748.68s(cpu)
        *  Thank you very much for using Q-Chem.  Have a nice day.  *
