 Q-Chem 5.0, Q-Chem, Inc., Pleasanton, CA (2017)
 Q-Chem 5.0.1 for Intel X86 EM64T Linux

User input:
--------------------------------------------------------------
$molecule
0  1
O -4.0484139916 -1.972120091 1.355791327
C -4.7028371359 -0.9991966381 0.9244374494
C -4.2301796883 0.499688476 0.771744166
C -2.9101343878 0.725395075 -0.0911592745
C -2.0813224262 -0.5352995148 -0.5189465822
O -1.6957130704 -1.2588266655 0.6519771174
C -0.7413825384 -2.3396046999 0.304944737
C 0.6547558919 -2.0392867876 0.9564819227
O 1.5922056242 -1.6822711692 -0.1384529523
C 2.6519667965 -0.8603334311 0.3565712418
C 3.6223650713 -0.5333802217 -0.8290036551
C 4.3940621345 0.8279795685 -0.6075869107
C 3.802290212 1.7314629768 0.5330524679
O 4.4320912869 2.3437661963 1.420285002
O -6.0688030827 -1.1107486033 0.502527379
O 2.3977028091 1.896002924 0.2760076015
O 2.7724625676 -0.5056954471 1.5506462848
C 1.7748961392 2.6955675388 1.3529058112
C 4.8413148575 -1.5560419707 -0.7797538228
C 5.7432179052 -1.35726648 -2.0632691787
C 6.535396025 -0.0498082499 -1.6854227346
C 5.863415504 0.3152354995 -0.3062761684
O 5.6612771187 -1.010504384 0.3260576429
H 3.0704377983 -0.5716842798 -1.7840245578
H 4.3726701687 1.4271065078 -1.5370654664
H 4.5492141987 -2.6033617597 -0.5689783766
H 6.4178768174 -2.2174524238 -2.1979201272
H 5.1372963615 -1.2372769275 -2.9758057941
H 7.6087360077 -0.2565985119 -1.5468948354
H 6.4223975574 0.7504114839 -2.4339883794
H 6.4455660758 0.9809746092 0.3604816226
O -1.7569383095 -0.8538786297 -1.6850506195
C -6.5301696847 -2.5096466768 0.6521072707
C -5.2596009601 1.3555002339 -0.0802657867
C -4.9074654585 2.8910511557 0.0623101382
C -3.679366619 3.0220051587 -0.9126565113
C -3.4845580791 1.5168459203 -1.3409298559
O -4.8746659321 1.0236423573 -1.472576009
H -4.092267468 0.908603947 1.7900659063
H -2.2174030789 1.367183794 0.4854583399
H -6.4619260595 -2.8534064507 1.7045169111
H -6.3179125141 1.0909335795 0.1021706296
H -5.7545722592 3.5141646118 -0.2648561272
H -4.6538610831 3.1579544871 1.100761361
H -3.9263193528 3.6409770536 -1.7899848489
H -2.7854518655 3.4406097105 -0.4231909597
H -2.9174490806 1.3421752048 -2.276277063
H -5.9417834545 -3.2030385794 0.0170771291
H -7.5867298464 -2.5168388789 0.3266246576
H 0.7550975976 2.9438165845 1.005002844
H 2.3414238067 3.6275817962 1.5523903043
H 1.7119983066 2.1112467495 2.2943807844
H 0.5771645427 -1.2064056438 1.6886334903
H 1.0353116269 -2.9352155519 1.4940253548
H -0.646518751 -2.3941432222 -0.8023007176
H -1.158939861 -3.2895289206 0.6972513201
$end

$rem
JOBTYPE                   OPT
METHOD                    B3LYP
DFT_D                     d3_op
BASIS                     STO-3G
GEOM_OPT_MAX_CYCLES       100
GEOM_OPT_TOL_GRADIENT     300
GEOM_OPT_TOL_DISPLACEMENT 1200
GEOM_OPT_TOL_ENERGY       100
SYMMETRY                  False
THRESH                    12
SCF_CONVERGENCE           8
MAX_SUB_FILE_NUM          128
MEM_STATIC                400
MEM_TOTAL                 4000
$end
--------------------------------------------------------------

   16   -1510.2755699244      5.52E-09 Convergence criterion met
 Total energy in the final basis set = -1510.27556992
   14   -1510.2772228945      2.61E-09 Convergence criterion met
 Total energy in the final basis set = -1510.27722289
   13   -1510.2787487017      8.67E-09 Convergence criterion met
 Total energy in the final basis set = -1510.27874870
   14   -1510.2804195505      3.52E-09 Convergence criterion met
 Total energy in the final basis set = -1510.28041955
   14   -1510.2809432789      5.40E-09 Convergence criterion met
 Total energy in the final basis set = -1510.28094328
   13   -1510.2827140190      8.35E-09 Convergence criterion met
 Total energy in the final basis set = -1510.28271402
   13   -1510.2835935321      8.68E-09 Convergence criterion met
 Total energy in the final basis set = -1510.28359353
   13   -1510.2847181264      8.18E-09 Convergence criterion met
   12   -1510.2974375770      5.47E-09 Convergence criterion met
 Total energy in the final basis set = -1510.29743758
   12   -1510.2974598951      4.66E-09 Convergence criterion met
 Total energy in the final basis set = -1510.29745990
   11   -1510.2974608647      5.42E-09 Convergence criterion met
 Total energy in the final basis set = -1510.29746086
   11   -1510.2974627632      6.20E-09 Convergence criterion met
 Total energy in the final basis set = -1510.29746276
   11   -1510.2974616125      2.92E-09 Convergence criterion met
 Total energy in the final basis set = -1510.29746161
   10   -1510.2974605363      9.23E-09 Convergence criterion met
 Total energy in the final basis set = -1510.29746054

             Standard Nuclear Orientation (Angstroms)
    I     Atom           X                Y                Z
 ----------------------------------------------------------------
    1      O       3.3210531042    -2.1587782637    -0.1446001819
    2      C       3.8169489399    -1.1220557872     0.3521598113
    3      C       3.4509650226     0.3579646287    -0.0014314780
    4      C       2.0931141161     0.4934211091    -0.8047203176
    5      C       1.2588237591    -0.8377134217    -0.8072965929
    6      O       1.2448831362    -1.3564626661    -2.1474221163
    7      C       0.5446598521    -2.6608366907    -2.2050366725
    8      C      -1.0118758576    -2.5214334294    -2.4128224584
    9      O      -1.6901357313    -2.2228945096    -1.1296370257
   10      C      -1.8911228723    -0.8168729192    -0.9834994055
   11      C      -2.3347734748    -0.5220061790     0.4861468679
   12      C      -2.7755307709     0.9819305809     0.7030594382
   13      C      -2.6777931264     1.8737898559    -0.5869112850
   14      O      -3.5936945181     2.1746084440    -1.3793496169
   15      O       4.8533640949    -1.1244176155     1.3354159236
   16      O      -1.3553446930     2.4485553266    -0.6365177837
   17      O      -1.7175176090     0.0207359712    -1.8993206879
   18      C      -1.1851441131     3.2081444639    -1.8936510256
   19      C      -3.6643350180    -1.2908569084     0.8859042914
   20      C      -3.8288991265    -1.2190046486     2.4549621871
   21      C      -4.2921916454     0.2732809964     2.6460956665
   22      C      -4.2844371164     0.7865345782     1.1533043156
   23      O      -4.7296036753    -0.3961884355     0.3784804264
   24      H      -1.4830838989    -0.8008050414     1.1355244042
   25      H      -2.1658602403     1.4542437484     1.4934370542
   26      H      -3.7525849430    -2.3018648127     0.4431083936
   27      H      -4.6006364524    -1.9285779817     2.7935824183
   28      H      -2.8865962222    -1.4440074301     2.9797224698
   29      H      -5.3086034336     0.3295811237     3.0670922017
   30      H      -3.6096005378     0.8527925059     3.2879099586
   31      H      -4.9388969649     1.6535248435     0.9395747226
   32      O       0.6402106305    -1.3445731178     0.1532668308
   33      C       5.2206340103    -2.5178534996     1.6802776934
   34      C       3.1512840940     1.2731506573     1.2673104231
   35      C       3.3603982868     2.7711512322     0.8226680710
   36      C       2.1064552856     2.9743190941    -0.1052938251
   37      C       1.3516579790     1.5940137738     0.0648044497
   38      O       1.6856231501     1.1750944055     1.4471589864
   39      H       4.2932199287     0.7785964495    -0.5814005595
   40      H       2.2626954898     0.8074843152    -1.8490917680
   41      H       5.6102684599    -3.0672290703     0.7989044824
   42      H       3.6863256630     0.9636663188     2.1858955886
   43      H       3.3260728233     3.4387015383     1.6985027254
   44      H       4.3159412271     2.9249189677     0.2963238769
   45      H       1.4715613688     3.8030185761     0.2457511021
   46      H       2.3841701811     3.1643437580    -1.1545215677
   47      H       0.2492282768     1.6693889763    -0.0960051843
   48      H       4.3547613414    -3.0772438082     2.0896353376
   49      H       6.0113258201    -2.4434311182     2.4492704762
   50      H      -0.1837811385     3.6724475601    -1.8420347369
   51      H      -1.9592708337     3.9945547561    -1.9998819477
   52      H      -1.2388404277     2.5332857161    -2.7724654014
   53      H      -1.2281270154    -1.7201655600    -3.1518178780
   54      H      -1.4202160256    -3.4891078891    -2.7698929195
   55      H       0.7368902641    -3.2487973652    -1.2818454661
   56      H       0.9739577291    -3.1916902505    -3.0796600641
 ----------------------------------------------------------------

    9   -1510.2974605152      6.54E-09 Convergence criterion met
 Total energy in the final basis set = -1510.29746052
 Final energy is   -1510.29746051516
 **  OPTIMIZATION CONVERGED  **

                    Orbital Energies (a.u.)
 --------------------------------------------------------------

 Alpha MOs
 -- Occupied --
-18.941 -18.936 -18.926 -18.923 -18.881 -18.881 -18.880 -18.878
-18.864 -18.861 -10.103 -10.103 -10.092 -10.092 -10.070 -10.068
-10.067 -10.056 -10.054 -10.054 -10.053 -10.039 -10.036 -10.032
-10.029 -10.029 -10.015 -10.015 -10.014 -10.012  -1.018  -1.016
 -1.001  -0.997  -0.964  -0.962  -0.941  -0.940  -0.927  -0.927
 -0.758  -0.757  -0.722  -0.717  -0.710  -0.700  -0.691  -0.664
 -0.655  -0.616  -0.593  -0.574  -0.541  -0.539  -0.532  -0.530
 -0.509  -0.506  -0.482  -0.473  -0.456  -0.454  -0.448  -0.445
 -0.429  -0.427  -0.425  -0.415  -0.412  -0.406  -0.404  -0.401
 -0.393  -0.377  -0.375  -0.364  -0.357  -0.353  -0.349  -0.346
 -0.344  -0.337  -0.329  -0.327  -0.323  -0.319  -0.319  -0.310
 -0.309  -0.300  -0.300  -0.296  -0.294  -0.278  -0.274  -0.271
 -0.271  -0.257  -0.249  -0.244  -0.239  -0.229  -0.225  -0.188
 -0.182  -0.169  -0.160  -0.158  -0.156  -0.143  -0.142  -0.139
 -0.136

          Ground-State Mulliken Net Atomic Charges

     Atom                 Charge (a.u.)
  ----------------------------------------
      1 O                    -0.211739
      2 C                     0.212614
      3 C                    -0.079639
      4 C                    -0.081065
      5 C                     0.215293
      6 O                    -0.173492
      7 C                    -0.050831
      8 C                    -0.054125
      9 O                    -0.168270
     10 C                     0.219637
     11 C                    -0.079984
     12 C                    -0.082959
     13 C                     0.219443
     14 O                    -0.213370
     15 O                    -0.169097
     16 O                    -0.175701
     17 O                    -0.214195
     18 C                    -0.128188
     19 C                     0.024754
     20 C                    -0.143577
     21 C                    -0.143951
     22 C                     0.025101
     23 O                    -0.190039
     24 H                     0.103948
     25 H                     0.087124
     26 H                     0.087597
     27 H                     0.076945
     28 H                     0.076250
     29 H                     0.076940
     30 H                     0.074011
     31 H                     0.086322
     32 O                    -0.222740
     33 C                    -0.127964
     34 C                     0.024608
     35 C                    -0.143339
     36 C                    -0.146414
     37 C                     0.008793
     38 O                    -0.192282
     39 H                     0.084621
     40 H                     0.084038
     41 H                     0.089334
     42 H                     0.086097
     43 H                     0.076075
     44 H                     0.071206
     45 H                     0.075313
     46 H                     0.068848
     47 H                     0.107358
     48 H                     0.092030
     49 H                     0.091623
     50 H                     0.086528
     51 H                     0.089330
     52 H                     0.094113
     53 H                     0.100618
     54 H                     0.088721
     55 H                     0.099805
     56 H                     0.087927
  ----------------------------------------
  Sum of atomic charges =     0.000000

                    Cartesian Multipole Moments
 -----------------------------------------------------------------
    Charge (ESU x 10^10)
                 0.0000
    Dipole Moment (Debye)
         X       3.2438      Y      -0.3326      Z       0.4751
       Tot       3.2953
    Quadrupole Moments (Debye-Ang)
        XX    -159.4603     XY       1.3424     YY    -149.6415
        XZ      -6.1732     YZ       1.2586     ZZ    -155.3740

 Total job time:  107.78s(wall), 5135.71s(cpu)
        *  Thank you very much for using Q-Chem.  Have a nice day.  *
