 Q-Chem 5.0, Q-Chem, Inc., Pleasanton, CA (2017)
 Q-Chem 5.0.1 for Intel X86 EM64T Linux

User input:
--------------------------------------------------------------
$molecule
0  1
O -3.94934 -3.66094 2.70899
C -3.26408 -4.56952 2.26188
C -3.36658 -6.02376 2.66595
C -4.74512 -6.69269 2.53939
C -5.82642 -5.88515 1.85619
O -6.00627 -4.70119 2.51294
C -7.14258 -3.96571 2.04697
C -8.19348 -3.8687 3.14802
O -9.33053 -4.67937 2.81211
C -10.06748 -5.1147 3.86403
C -11.25976 -5.94151 3.4451
C -11.7434 -6.95646 4.49116
C -11.21635 -6.75739 5.89804
O -11.88303 -6.8234 6.92066
O -2.38467 -4.2692 1.26834
O -9.86449 -6.8533 6.03129
O -10.05015 -4.50975 4.93102
C -9.19126 -6.8335 7.23529
C -12.54614 -5.11014 3.25367
C -13.48131 -5.83845 2.29071
C -13.89942 -7.0192 3.1445
C -13.25011 -6.63439 4.48087
O -13.24205 -5.22762 4.47072
H -11.01005 -6.42606 2.47267
H -11.49627 -8.00026 4.19772
H -12.35313 -4.07451 2.89741
H -14.36358 -5.17445 2.14385
H -13.05535 -6.0996 1.29814
H -15.00958 -7.02312 3.2165
H -13.53309 -8.00966 2.79712
H -13.79604 -7.11365 5.32276
O -6.4093 -6.22803 0.83335
C -2.1923 -3.00533 0.75051
C -2.51675 -6.99164 1.81154
C -2.22903 -8.27218 2.59621
C -3.58732 -8.93766 2.56191
C -4.3683 -7.93464 1.70897
O -3.40465 -7.43395 0.81349
H -3.01203 -6.05338 3.72054
H -5.15768 -6.96961 3.53546
H -1.84523 -2.31385 1.5478
H -1.55619 -6.55751 1.46003
H -1.52156 -8.88612 1.99388
H -1.8035 -8.10929 3.60978
H -3.49207 -9.90262 2.01551
H -4.05861 -9.11027 3.55364
H -5.25104 -8.43469 1.25377
H -3.13804 -2.62523 0.30825
H -1.41964 -3.05166 -0.04402
H -8.1022 -6.92164 7.04379
H -9.51305 -7.68714 7.86927
H -9.38545 -5.87652 7.7651
H -7.7519 -4.05299 4.15492
H -8.5749 -2.8234 3.14523
H -7.59791 -4.25367 1.07253
H -6.74721 -2.94153 1.87233
$end

$opt
CONSTRAINT
tors           1           2           3           4     +55.243
tors           3           4           5           6     -57.677
tors           4           5           6           7    -171.449
tors           5           6           7           8    +114.466
tors           6           7           8           9    -109.673
tors           7           8           9          10    +154.713
tors           8           9          10          11    +179.054
tors           9          10          11          12    +153.503
tors          11          12          13          14    +135.660
ENDCONSTRAINT
$end

$rem
JOBTYPE                   OPT
METHOD                    B3LYP
DFT_D                     d3_op
BASIS                     STO-3G
GEOM_OPT_MAX_CYCLES       100
GEOM_OPT_TOL_GRADIENT     300
GEOM_OPT_TOL_DISPLACEMENT 1200
GEOM_OPT_TOL_ENERGY       100
SYMMETRY                  False
THRESH                    12
SCF_CONVERGENCE           8
MAX_SUB_FILE_NUM          128
MEM_STATIC                400
MEM_TOTAL                 4000
$end
--------------------------------------------------------------

   15   -1510.1336808703      6.59E-09 Convergence criterion met
 Total energy in the final basis set = -1510.13368087
   14   -1510.2037259409      5.45E-09 Convergence criterion met
 Total energy in the final basis set = -1510.20372594
   14   -1510.2404192610      7.18E-09 Convergence criterion met
 Total energy in the final basis set = -1510.24041926
   14   -1510.2574191755      6.96E-09 Convergence criterion met
 Total energy in the final basis set = -1510.25741918
   14   -1510.2650221311      2.98E-09 Convergence criterion met
 Total energy in the final basis set = -1510.26502213
   13   -1510.2685590140      3.56E-09 Convergence criterion met
 Total energy in the final basis set = -1510.26855901
   13   -1510.2707264091      2.31E-09 Convergence criterion met
 Total energy in the final basis set = -1510.27072641
   12   -1510.2720154981      7.27E-09 Convergence criterion met
   11   -1510.2754749899      4.01E-09 Convergence criterion met
 Total energy in the final basis set = -1510.27547499
    9   -1510.2754801288      6.49E-09 Convergence criterion met
 Total energy in the final basis set = -1510.27548013
    9   -1510.2754811593      5.00E-09 Convergence criterion met
 Total energy in the final basis set = -1510.27548116
    9   -1510.2754827850      3.35E-09 Convergence criterion met
 Total energy in the final basis set = -1510.27548278
    9   -1510.2754841732      2.70E-09 Convergence criterion met
 Total energy in the final basis set = -1510.27548417
    9   -1510.2754858170      2.96E-09 Convergence criterion met
 Total energy in the final basis set = -1510.27548582

             Standard Nuclear Orientation (Angstroms)
    I     Atom           X                Y                Z
 ----------------------------------------------------------------
    1      O      -4.0484139916    -1.9721200910     1.3557913270
    2      C      -4.7028371359    -0.9991966381     0.9244374494
    3      C      -4.2301796883     0.4996884760     0.7717441660
    4      C      -2.9101343878     0.7253950750    -0.0911592745
    5      C      -2.0813224262    -0.5352995148    -0.5189465822
    6      O      -1.6957130704    -1.2588266655     0.6519771174
    7      C      -0.7413825384    -2.3396046999     0.3049447370
    8      C       0.6547558919    -2.0392867876     0.9564819227
    9      O       1.5922056242    -1.6822711692    -0.1384529523
   10      C       2.6519667965    -0.8603334311     0.3565712418
   11      C       3.6223650713    -0.5333802217    -0.8290036551
   12      C       4.3940621345     0.8279795685    -0.6075869107
   13      C       3.8022902120     1.7314629768     0.5330524679
   14      O       4.4320912869     2.3437661963     1.4202850020
   15      O      -6.0688030827    -1.1107486033     0.5025273790
   16      O       2.3977028091     1.8960029240     0.2760076015
   17      O       2.7724625676    -0.5056954471     1.5506462848
   18      C       1.7748961392     2.6955675388     1.3529058112
   19      C       4.8413148575    -1.5560419707    -0.7797538228
   20      C       5.7432179052    -1.3572664800    -2.0632691787
   21      C       6.5353960250    -0.0498082499    -1.6854227346
   22      C       5.8634155040     0.3152354995    -0.3062761684
   23      O       5.6612771187    -1.0105043840     0.3260576429
   24      H       3.0704377983    -0.5716842798    -1.7840245578
   25      H       4.3726701687     1.4271065078    -1.5370654664
   26      H       4.5492141987    -2.6033617597    -0.5689783766
   27      H       6.4178768174    -2.2174524238    -2.1979201272
   28      H       5.1372963615    -1.2372769275    -2.9758057941
   29      H       7.6087360077    -0.2565985119    -1.5468948354
   30      H       6.4223975574     0.7504114839    -2.4339883794
   31      H       6.4455660758     0.9809746092     0.3604816226
   32      O      -1.7569383095    -0.8538786297    -1.6850506195
   33      C      -6.5301696847    -2.5096466768     0.6521072707
   34      C      -5.2596009601     1.3555002339    -0.0802657867
   35      C      -4.9074654585     2.8910511557     0.0623101382
   36      C      -3.6793666190     3.0220051587    -0.9126565113
   37      C      -3.4845580791     1.5168459203    -1.3409298559
   38      O      -4.8746659321     1.0236423573    -1.4725760090
   39      H      -4.0922674680     0.9086039470     1.7900659063
   40      H      -2.2174030789     1.3671837940     0.4854583399
   41      H      -6.4619260595    -2.8534064507     1.7045169111
   42      H      -6.3179125141     1.0909335795     0.1021706296
   43      H      -5.7545722592     3.5141646118    -0.2648561272
   44      H      -4.6538610831     3.1579544871     1.1007613610
   45      H      -3.9263193528     3.6409770536    -1.7899848489
   46      H      -2.7854518655     3.4406097105    -0.4231909597
   47      H      -2.9174490806     1.3421752048    -2.2762770630
   48      H      -5.9417834545    -3.2030385794     0.0170771291
   49      H      -7.5867298464    -2.5168388789     0.3266246576
   50      H       0.7550975976     2.9438165845     1.0050028440
   51      H       2.3414238067     3.6275817962     1.5523903043
   52      H       1.7119983066     2.1112467495     2.2943807844
   53      H       0.5771645427    -1.2064056438     1.6886334903
   54      H       1.0353116269    -2.9352155519     1.4940253548
   55      H      -0.6465187510    -2.3941432222    -0.8023007176
   56      H      -1.1589398610    -3.2895289206     0.6972513201
 ----------------------------------------------------------------

    9   -1510.2754865689      2.64E-09 Convergence criterion met
 Total energy in the final basis set = -1510.27548657
 Final energy is   -1510.27548656890
 **  OPTIMIZATION CONVERGED  **

                    Orbital Energies (a.u.)
 --------------------------------------------------------------

 Alpha MOs
 -- Occupied --
-18.935 -18.934 -18.934 -18.925 -18.886 -18.885 -18.877 -18.875
-18.874 -18.871 -10.101 -10.099 -10.099 -10.095 -10.072 -10.068
-10.065 -10.060 -10.060 -10.057 -10.056 -10.056 -10.041 -10.039
-10.037 -10.034 -10.020 -10.020 -10.019 -10.018  -1.016  -1.013
 -1.009  -1.003  -0.969  -0.968  -0.940  -0.936  -0.933  -0.930
 -0.763  -0.762  -0.727  -0.722  -0.713  -0.705  -0.696  -0.661
 -0.659  -0.616  -0.597  -0.579  -0.545  -0.542  -0.537  -0.536
 -0.513  -0.511  -0.486  -0.474  -0.463  -0.456  -0.451  -0.445
 -0.434  -0.430  -0.428  -0.415  -0.412  -0.411  -0.408  -0.403
 -0.397  -0.376  -0.373  -0.370  -0.361  -0.356  -0.350  -0.347
 -0.342  -0.339  -0.334  -0.333  -0.330  -0.327  -0.324  -0.312
 -0.310  -0.306  -0.303  -0.297  -0.292  -0.284  -0.281  -0.276
 -0.270  -0.256  -0.253  -0.249  -0.246  -0.233  -0.232  -0.185
 -0.178  -0.172  -0.168  -0.159  -0.155  -0.149  -0.147  -0.143
 -0.142

          Ground-State Mulliken Net Atomic Charges

     Atom                 Charge (a.u.)
  ----------------------------------------
      1 O                    -0.208955
      2 C                     0.206884
      3 C                    -0.076220
      4 C                    -0.079077
      5 C                     0.209706
      6 O                    -0.164658
      7 C                    -0.054904
      8 C                    -0.051687
      9 O                    -0.172939
     10 C                     0.214571
     11 C                    -0.077424
     12 C                    -0.079601
     13 C                     0.216494
     14 O                    -0.212134
     15 O                    -0.169084
     16 O                    -0.176715
     17 O                    -0.213959
     18 C                    -0.129324
     19 C                     0.024956
     20 C                    -0.144456
     21 C                    -0.142939
     22 C                     0.024167
     23 O                    -0.188808
     24 H                     0.088465
     25 H                     0.083953
     26 H                     0.082156
     27 H                     0.078157
     28 H                     0.074106
     29 H                     0.078155
     30 H                     0.073211
     31 H                     0.091213
     32 O                    -0.213183
     33 C                    -0.127648
     34 C                     0.022948
     35 C                    -0.145598
     36 C                    -0.143027
     37 C                     0.022846
     38 O                    -0.190301
     39 H                     0.084708
     40 H                     0.082894
     41 H                     0.088504
     42 H                     0.093207
     43 H                     0.077774
     44 H                     0.071956
     45 H                     0.078150
     46 H                     0.071621
     47 H                     0.090541
     48 H                     0.090019
     49 H                     0.090883
     50 H                     0.084361
     51 H                     0.091081
     52 H                     0.090080
     53 H                     0.100277
     54 H                     0.085382
     55 H                     0.108145
     56 H                     0.091071
  ----------------------------------------
  Sum of atomic charges =    -0.000000

                    Cartesian Multipole Moments
 -----------------------------------------------------------------
    Charge (ESU x 10^10)
                 0.0000
    Dipole Moment (Debye)
         X      -1.5874      Y       0.4688      Z      -0.6868
       Tot       1.7920
    Quadrupole Moments (Debye-Ang)
        XX    -158.2804     XY      -2.5075     YY    -150.2045
        XZ     -21.5757     YZ      -0.2140     ZZ    -165.2574

 Total job time:  82.47s(wall), 3927.95s(cpu)
        *  Thank you very much for using Q-Chem.  Have a nice day.  *
