 Q-Chem 5.0, Q-Chem, Inc., Pleasanton, CA (2017)
 Q-Chem 5.0.1 for Intel X86 EM64T Linux

User input:
--------------------------------------------------------------
$molecule
0  1
O -3.94934 -3.66094 2.70899
C -3.26408 -4.56952 2.26188
C -3.36658 -6.02376 2.66595
C -4.77843 -6.6154 2.80909
C -5.92601 -5.73807 2.36026
O -6.50945 -5.14662 3.44433
C -7.83103 -4.66443 3.17946
C -8.86592 -5.61225 3.77678
O -8.42608 -6.97175 3.6312
C -8.91813 -7.84481 4.54487
C -8.65391 -9.28687 4.1825
C -9.14511 -10.31379 5.21325
C -10.1208 -9.7945 6.25011
O -10.69553 -10.47605 7.08662
O -2.43936 -4.28315 1.2186
O -10.90087 -8.73579 5.87485
O -8.87659 -7.49065 5.71957
C -11.97631 -8.2243 6.57714
C -9.40915 -9.75225 2.92394
C -8.68544 -10.94992 2.31129
C -8.98955 -12.01986 3.34125
C -9.9324 -11.24628 4.27121
O -10.58712 -10.33947 3.41678
H -7.55639 -9.37595 4.01094
H -8.32256 -10.8316 5.7532
H -9.54129 -8.95033 2.1652
H -9.21958 -11.20316 1.36742
H -7.60694 -10.79598 2.09081
H -9.52835 -12.85079 2.8341
H -8.10832 -12.4146 3.89196
H -10.59087 -11.95008 4.82694
O -6.09916 -5.39004 1.19759
C -2.27255 -3.02634 0.67521
C -2.75824 -7.02072 1.6547
C -2.42628 -8.3433 2.35049
C -3.81166 -8.92707 2.53005
C -4.66147 -7.83499 1.87911
O -3.84608 -7.36492 0.83111
H -2.82807 -6.08522 3.63785
H -4.98079 -6.93116 3.85905
H -1.88271 -2.32576 1.4443
H -1.8499 -6.64151 1.13971
H -1.86637 -8.98415 1.63243
H -1.8333 -8.22758 3.28323
H -3.88446 -9.85588 1.92092
H -4.10716 -9.14256 3.57964
H -5.65446 -8.24271 1.58531
H -3.23945 -2.64948 0.27836
H -1.54296 -3.08455 -0.15832
H -12.39048 -7.35696 6.02377
H -11.64646 -7.88371 7.58179
H -12.77209 -8.99244 6.68073
H -8.86569 -5.33177 4.85379
H -9.89347 -5.44916 3.3855
H -8.07252 -4.63797 2.09298
H -7.96002 -3.62086 3.53768
$end

$opt
CONSTRAINT
tors           1           2           3           4     +43.385
tors           3           4           5           6    -100.129
tors           4           5           6           7    -160.885
tors           5           6           7           8    +103.128
tors           6           7           8           9     -37.495
tors           7           8           9          10    +154.109
tors           8           9          10          11    +168.300
tors           9          10          11          12    +177.780
tors          11          12          13          14    +174.323
ENDCONSTRAINT
$end

$rem
JOBTYPE                   OPT
METHOD                    B3LYP
DFT_D                     d3_op
BASIS                     STO-3G
GEOM_OPT_MAX_CYCLES       100
GEOM_OPT_TOL_GRADIENT     300
GEOM_OPT_TOL_DISPLACEMENT 1200
GEOM_OPT_TOL_ENERGY       100
SYMMETRY                  False
THRESH                    12
SCF_CONVERGENCE           8
MAX_SUB_FILE_NUM          128
MEM_STATIC                400
MEM_TOTAL                 4000
$end
--------------------------------------------------------------

   16   -1510.0992875884      2.74E-09 Convergence criterion met
 Total energy in the final basis set = -1510.09928759
   14   -1510.1750803693      8.11E-09 Convergence criterion met
 Total energy in the final basis set = -1510.17508037
   14   -1510.2182967130      7.04E-09 Convergence criterion met
 Total energy in the final basis set = -1510.21829671
   14   -1510.2408261562      5.46E-09 Convergence criterion met
 Total energy in the final basis set = -1510.24082616
   13   -1510.2522374739      9.61E-09 Convergence criterion met
 Total energy in the final basis set = -1510.25223747
   13   -1510.2586670027      5.70E-09 Convergence criterion met
 Total energy in the final basis set = -1510.25866700
   13   -1510.2623480273      2.89E-09 Convergence criterion met
 Total energy in the final basis set = -1510.26234803
   13   -1510.2643389460      5.34E-09 Convergence criterion met
   11   -1510.2664119950      8.63E-09 Convergence criterion met
 Total energy in the final basis set = -1510.26641200
   11   -1510.2664290637      5.81E-09 Convergence criterion met
 Total energy in the final basis set = -1510.26642906
    9   -1510.2664345386      5.40E-09 Convergence criterion met
 Total energy in the final basis set = -1510.26643454
    9   -1510.2664403589      5.64E-09 Convergence criterion met
 Total energy in the final basis set = -1510.26644036
    9   -1510.2664430114      7.88E-09 Convergence criterion met
 Total energy in the final basis set = -1510.26644301
    9   -1510.2664441484      6.77E-09 Convergence criterion met
 Total energy in the final basis set = -1510.26644415

             Standard Nuclear Orientation (Angstroms)
    I     Atom           X                Y                Z
 ----------------------------------------------------------------
    1      O       4.6399246459    -1.6617845594    -0.0466876501
    2      C       4.7911076208    -0.4321582082    -0.2236878191
    3      C       3.7695339205     0.5287374237    -0.9352799073
    4      C       2.2772128160     0.2458983817    -0.4755408946
    5      C       2.0998086637    -0.9816848374     0.4833934506
    6      O       1.6377689298    -2.0971996840    -0.2958776912
    7      C       1.0274439788    -3.1097353009     0.5968635382
    8      C      -0.5354845361    -2.9942805159     0.4667093593
    9      O      -0.8338899893    -1.5469248677     0.3327262015
   10      C      -2.0727167190    -1.3458548462    -0.3697479265
   11      C      -2.4276580361     0.1712684885    -0.1814168432
   12      C      -3.7168747429     0.7584284359    -0.8755177635
   13      C      -5.0102361725    -0.1431448650    -0.9688902206
   14      O      -6.1154068041     0.2530431611    -1.4043065858
   15      O       5.9639602304     0.2885284580     0.1566424320
   16      O      -4.8438203095    -1.3695438664    -0.2613271364
   17      O      -2.6305382898    -2.2273271499    -1.0548749664
   18      C      -6.1210336024    -2.1184378398    -0.2382828272
   19      C      -2.5880520695     0.7095466381     1.3150053587
   20      C      -1.9464204212     2.1492785328     1.3315048934
   21      C      -2.9679005802     2.9209007415     0.4146779082
   22      C      -4.1080152938     1.8407343852     0.2309296782
   23      O      -4.0306234453     1.0095042111     1.4602587212
   24      H      -1.5580830995     0.6956421416    -0.6231080339
   25      H      -3.5015888418     1.2001967076    -1.8646192627
   26      H      -2.2425914507     0.0129048704     2.1030737341
   27      H      -1.9387412735     2.5552458822     2.3560403764
   28      H      -0.9198001799     2.1622368829     0.9337697005
   29      H      -3.3637145395     3.8216677802     0.9093131914
   30      H      -2.5270786335     3.2157399574    -0.5513759404
   31      H      -5.1283422762     2.2522087830     0.1037642003
   32      O       2.2256996747    -0.9946594641     1.7272907708
   33      C       6.9279727060    -0.6268599939     0.8110918246
   34      C       3.9358425190     2.0371021633    -0.4791794250
   35      C       3.0568200734     2.9568889293    -1.4178594018
   36      C       1.6127333171     2.6887196398    -0.8520241700
   37      C       1.9244059515     1.6101312943     0.2566228393
   38      O       3.2179691757     2.0611548937     0.8173364498
   39      H       3.8815497777     0.4075881615    -2.0288004371
   40      H       1.6268847559     0.0730839768    -1.3511892690
   41      H       7.3004970316    -1.3973022999     0.1050411204
   42      H       4.9881243312     2.3526418432    -0.3471655481
   43      H       3.3465403610     4.0135738002    -1.3058354581
   44      H       3.1534460362     2.6742397834    -2.4782847169
   45      H       1.1825114269     3.5951932233    -0.3964713733
   46      H       0.9159831396     2.3133172589    -1.6187794734
   47      H       1.1696419433     1.5120172452     1.0602987791
   48      H       6.4732762246    -1.1378765017     1.6837974229
   49      H       7.7695927621     0.0068899157     1.1458320199
   50      H      -5.9261407905    -3.0279803920     0.3590175804
   51      H      -6.4420008368    -2.4080749189    -1.2596067319
   52      H      -6.9322774092    -1.5268811938     0.2331821914
   53      H      -0.9140716196    -3.5341566977    -0.4274296034
   54      H      -1.0359941331    -3.4086432482     1.3695276209
   55      H       1.3541444230    -2.9030196429     1.6389879439
   56      H       1.3729696272    -4.1152729317     0.2815560144
 ----------------------------------------------------------------

    9   -1510.2664442857      3.75E-09 Convergence criterion met
 Total energy in the final basis set = -1510.26644429
 Final energy is   -1510.26644428575
 **  OPTIMIZATION CONVERGED  **

                    Orbital Energies (a.u.)
 --------------------------------------------------------------

 Alpha MOs
 -- Occupied --
-18.941 -18.932 -18.926 -18.924 -18.888 -18.888 -18.880 -18.878
-18.870 -18.863 -10.102 -10.101 -10.096 -10.094 -10.068 -10.067
-10.065 -10.061 -10.061 -10.060 -10.059 -10.058 -10.041 -10.039
-10.037 -10.036 -10.023 -10.022 -10.022 -10.021  -1.016  -1.013
 -1.006  -1.000  -0.971  -0.971  -0.940  -0.938  -0.929  -0.925
 -0.765  -0.763  -0.727  -0.723  -0.716  -0.706  -0.694  -0.664
 -0.657  -0.616  -0.600  -0.577  -0.546  -0.543  -0.539  -0.537
 -0.514  -0.509  -0.481  -0.480  -0.469  -0.462  -0.451  -0.440
 -0.436  -0.434  -0.423  -0.415  -0.412  -0.410  -0.404  -0.404
 -0.393  -0.378  -0.375  -0.367  -0.364  -0.356  -0.356  -0.348
 -0.344  -0.338  -0.334  -0.333  -0.331  -0.327  -0.317  -0.313
 -0.312  -0.308  -0.304  -0.299  -0.294  -0.293  -0.282  -0.276
 -0.269  -0.257  -0.253  -0.243  -0.240  -0.235  -0.234  -0.181
 -0.177  -0.169  -0.167  -0.157  -0.152  -0.150  -0.146  -0.145
 -0.143

          Ground-State Mulliken Net Atomic Charges

     Atom                 Charge (a.u.)
  ----------------------------------------
      1 O                    -0.211637
      2 C                     0.212113
      3 C                    -0.077153
      4 C                    -0.079708
      5 C                     0.218004
      6 O                    -0.170859
      7 C                    -0.053461
      8 C                    -0.052575
      9 O                    -0.181396
     10 C                     0.213916
     11 C                    -0.079738
     12 C                    -0.076560
     13 C                     0.211700
     14 O                    -0.221261
     15 O                    -0.167249
     16 O                    -0.160129
     17 O                    -0.202872
     18 C                    -0.125515
     19 C                     0.026228
     20 C                    -0.141238
     21 C                    -0.146221
     22 C                     0.023508
     23 O                    -0.191006
     24 H                     0.081643
     25 H                     0.084417
     26 H                     0.087700
     27 H                     0.078919
     28 H                     0.072701
     29 H                     0.079229
     30 H                     0.073014
     31 H                     0.086852
     32 O                    -0.214789
     33 C                    -0.127360
     34 C                     0.023075
     35 C                    -0.144640
     36 C                    -0.144363
     37 C                     0.024576
     38 O                    -0.188014
     39 H                     0.085784
     40 H                     0.085295
     41 H                     0.088633
     42 H                     0.092683
     43 H                     0.078312
     44 H                     0.073214
     45 H                     0.077093
     46 H                     0.071163
     47 H                     0.085242
     48 H                     0.094460
     49 H                     0.091898
     50 H                     0.090436
     51 H                     0.088999
     52 H                     0.089934
     53 H                     0.095212
     54 H                     0.082726
     55 H                     0.101117
     56 H                     0.087950
  ----------------------------------------
  Sum of atomic charges =     0.000000

                    Cartesian Multipole Moments
 -----------------------------------------------------------------
    Charge (ESU x 10^10)
                 0.0000
    Dipole Moment (Debye)
         X       1.8052      Y       0.6418      Z      -1.1352
       Tot       2.2269
    Quadrupole Moments (Debye-Ang)
        XX    -160.9932     XY       2.8013     YY    -152.6049
        XZ      -7.9579     YZ      -6.6135     ZZ    -163.0723

 Total job time:  62.27s(wall), 2966.18s(cpu)
        *  Thank you very much for using Q-Chem.  Have a nice day.  *
