 Q-Chem 5.0, Q-Chem, Inc., Pleasanton, CA (2017)
 Q-Chem 5.0.1 for Intel X86 EM64T Linux

User input:
--------------------------------------------------------------
$molecule
0  1
O 4.6399246459 -1.6617845594 -0.0466876501
C 4.7911076208 -0.4321582082 -0.2236878191
C 3.7695339205 0.5287374237 -0.9352799073
C 2.277212816 0.2458983817 -0.4755408946
C 2.0998086637 -0.9816848374 0.4833934506
O 1.6377689298 -2.097199684 -0.2958776912
C 1.0274439788 -3.1097353009 0.5968635382
C -0.5354845361 -2.9942805159 0.4667093593
O -0.8338899893 -1.5469248677 0.3327262015
C -2.072716719 -1.3458548462 -0.3697479265
C -2.4276580361 0.1712684885 -0.1814168432
C -3.7168747429 0.7584284359 -0.8755177635
C -5.0102361725 -0.143144865 -0.9688902206
O -6.1154068041 0.2530431611 -1.4043065858
O 5.9639602304 0.288528458 0.156642432
O -4.8438203095 -1.3695438664 -0.2613271364
O -2.6305382898 -2.2273271499 -1.0548749664
C -6.1210336024 -2.1184378398 -0.2382828272
C -2.5880520695 0.7095466381 1.3150053587
C -1.9464204212 2.1492785328 1.3315048934
C -2.9679005802 2.9209007415 0.4146779082
C -4.1080152938 1.8407343852 0.2309296782
O -4.0306234453 1.0095042111 1.4602587212
H -1.5580830995 0.6956421416 -0.6231080339
H -3.5015888418 1.2001967076 -1.8646192627
H -2.2425914507 0.0129048704 2.1030737341
H -1.9387412735 2.5552458822 2.3560403764
H -0.9198001799 2.1622368829 0.9337697005
H -3.3637145395 3.8216677802 0.9093131914
H -2.5270786335 3.2157399574 -0.5513759404
H -5.1283422762 2.252208783 0.1037642003
O 2.2256996747 -0.9946594641 1.7272907708
C 6.927972706 -0.6268599939 0.8110918246
C 3.935842519 2.0371021633 -0.479179425
C 3.0568200734 2.9568889293 -1.4178594018
C 1.6127333171 2.6887196398 -0.85202417
C 1.9244059515 1.6101312943 0.2566228393
O 3.2179691757 2.0611548937 0.8173364498
H 3.8815497777 0.4075881615 -2.0288004371
H 1.6268847559 0.0730839768 -1.351189269
H 7.3004970316 -1.3973022999 0.1050411204
H 4.9881243312 2.3526418432 -0.3471655481
H 3.346540361 4.0135738002 -1.3058354581
H 3.1534460362 2.6742397834 -2.4782847169
H 1.1825114269 3.5951932233 -0.3964713733
H 0.9159831396 2.3133172589 -1.6187794734
H 1.1696419433 1.5120172452 1.0602987791
H 6.4732762246 -1.1378765017 1.6837974229
H 7.7695927621 0.0068899157 1.1458320199
H -5.9261407905 -3.027980392 0.3590175804
H -6.4420008368 -2.4080749189 -1.2596067319
H -6.9322774092 -1.5268811938 0.2331821914
H -0.9140716196 -3.5341566977 -0.4274296034
H -1.0359941331 -3.4086432482 1.3695276209
H 1.354144423 -2.9030196429 1.6389879439
H 1.3729696272 -4.1152729317 0.2815560144
$end

$rem
JOBTYPE                   OPT
METHOD                    B3LYP
DFT_D                     d3_op
BASIS                     STO-3G
GEOM_OPT_MAX_CYCLES       100
GEOM_OPT_TOL_GRADIENT     300
GEOM_OPT_TOL_DISPLACEMENT 1200
GEOM_OPT_TOL_ENERGY       100
SYMMETRY                  False
THRESH                    12
SCF_CONVERGENCE           8
MAX_SUB_FILE_NUM          128
MEM_STATIC                400
MEM_TOTAL                 4000
$end
--------------------------------------------------------------

   16   -1510.2665394305      6.07E-09 Convergence criterion met
 Total energy in the final basis set = -1510.26653943
   13   -1510.2697984968      9.45E-09 Convergence criterion met
 Total energy in the final basis set = -1510.26979850
   14   -1510.2721686213      1.63E-09 Convergence criterion met
 Total energy in the final basis set = -1510.27216862
   13   -1510.2744493211      5.18E-09 Convergence criterion met
 Total energy in the final basis set = -1510.27444932
   13   -1510.2766370148      2.24E-09 Convergence criterion met
 Total energy in the final basis set = -1510.27663701
   13   -1510.2785404757      2.43E-09 Convergence criterion met
 Total energy in the final basis set = -1510.27854048
   12   -1510.2802553761      8.70E-09 Convergence criterion met
 Total energy in the final basis set = -1510.28025538
   12   -1510.2819192119      6.12E-09 Convergence criterion met
   12   -1510.2932564638      5.22E-09 Convergence criterion met
 Total energy in the final basis set = -1510.29325646
   12   -1510.2933140689      4.35E-09 Convergence criterion met
 Total energy in the final basis set = -1510.29331407
   12   -1510.2932932199      3.04E-09 Convergence criterion met
 Total energy in the final basis set = -1510.29329322
   11   -1510.2933130924      8.18E-09 Convergence criterion met
 Total energy in the final basis set = -1510.29331309
   11   -1510.2933159248      8.69E-09 Convergence criterion met
 Total energy in the final basis set = -1510.29331592
   11   -1510.2933231101      2.41E-09 Convergence criterion met
 Total energy in the final basis set = -1510.29332311

             Standard Nuclear Orientation (Angstroms)
    I     Atom           X                Y                Z
 ----------------------------------------------------------------
    1      O       3.7120801181    -1.2373491487     1.0170545620
    2      C       4.1562953539    -0.6671244454    -0.0058028432
    3      C       3.3711427955     0.3064104265    -0.9457615018
    4      C       1.8401872160     0.3867366095    -0.5649973633
    5      C       1.3668509336    -0.6348139905     0.5343739993
    6      O       1.2803119763    -1.9246324042    -0.0942235046
    7      C       0.5806138933    -2.8868703643     0.7854932480
    8      C      -0.9554661046    -2.8788319765     0.4387231494
    9      O      -1.4962522752    -1.5287942711     0.7089154742
   10      C      -1.5728396383    -0.7610277495    -0.4991585678
   11      C      -1.9195368360     0.7322675413    -0.1432845558
   12      C      -3.4528249939     1.1007656557    -0.3325566374
   13      C      -4.3259418365    -0.0201955943    -0.9830563598
   14      O      -5.1381492372     0.1071577822    -1.9251508721
   15      O       5.4959598513    -0.7960737570    -0.4800351029
   16      O      -4.0609373165    -1.2596811203    -0.3169542897
   17      O      -1.3479319761    -1.2162647202    -1.6429461231
   18      C      -4.8079019865    -2.3619280290    -0.9629538102
   19      C      -1.7230609642     1.0370476620     1.3983078951
   20      C      -1.7846818735     2.6024711195     1.6176871803
   21      C      -3.3307913953     2.8735286445     1.5105399048
   22      C      -3.8624976164     1.4249500810     1.1765463487
   23      O      -2.9922429436     0.5478357201     1.9876680821
   24      H      -1.2880100451     1.3755904878    -0.7823969361
   25      H      -3.5634909530     1.9995055393    -0.9641106457
   26      H      -0.8405620331     0.5247740077     1.8403654835
   27      H      -1.3926457990     2.8672523719     2.6122846960
   28      H      -1.2081582641     3.1505432720     0.8552197178
   29      H      -3.7469696697     3.2223088807     2.4692617352
   30      H      -3.5852448455     3.6047203819     0.7267301228
   31      H      -4.9289629243     1.2450382622     1.4141511663
   32      O       0.9739494094    -0.3732756405     1.6932325873
   33      C       6.2635885221    -1.6988590200     0.4104558358
   34      C       3.8178300842     1.8104254569    -0.6882581473
   35      C       3.1891934118     2.7257156250    -1.8138777078
   36      C       1.6932951758     2.8212037444    -1.3337051761
   37      C       1.7271367355     1.8862362629    -0.0635341755
   38      O       3.0564313034     2.1674842733     0.5293516648
   39      H       3.5300325161     0.0038348206    -1.9963019875
   40      H       1.2118753475     0.2110079007    -1.4573186417
   41      H       5.8413132801    -2.7245968884     0.4094751656
   42      H       4.9056826447     1.9391205423    -0.5255541313
   43      H       3.6765175141     3.7135449948    -1.8242656577
   44      H       3.2859579833     2.2732789481    -2.8138164728
   45      H       1.4275493166     3.8511654718    -1.0466125156
   46      H       0.9781791899     2.4690896575    -2.0945144226
   47      H       0.9313977866     2.0552590044     0.6857200800
   48      H       6.2792794423    -1.3246774750     1.4543468211
   49      H       7.2926256241    -1.7216260324     0.0071027575
   50      H      -4.5862795029    -3.2673858746    -0.3687051539
   51      H      -4.4765866952    -2.5153944059    -2.0105646743
   52      H      -5.9005638370    -2.1726018826    -0.9612790369
   53      H      -1.1057441815    -3.1348147755    -0.6321396109
   54      H      -1.5003574982    -3.5929778571     1.0894399748
   55      H       0.7263044900    -2.6076807247     1.8504492042
   56      H       1.0126482167    -3.8887757774     0.5868001781
 ----------------------------------------------------------------

    9   -1510.2933226440      3.92E-09 Convergence criterion met
 Total energy in the final basis set = -1510.29332264
 Final energy is   -1510.29332264402
 **  OPTIMIZATION CONVERGED  **

                    Orbital Energies (a.u.)
 --------------------------------------------------------------

 Alpha MOs
 -- Occupied --
-18.945 -18.935 -18.926 -18.923 -18.889 -18.887 -18.881 -18.873
-18.868 -18.864 -10.107 -10.097 -10.097 -10.094 -10.070 -10.066
-10.064 -10.063 -10.063 -10.059 -10.055 -10.044 -10.042 -10.035
-10.034 -10.032 -10.023 -10.022 -10.015 -10.012  -1.021  -1.013
 -1.008  -0.996  -0.972  -0.962  -0.944  -0.934  -0.933  -0.928
 -0.765  -0.758  -0.727  -0.720  -0.712  -0.703  -0.692  -0.668
 -0.659  -0.613  -0.598  -0.578  -0.547  -0.541  -0.537  -0.530
 -0.513  -0.507  -0.486  -0.478  -0.466  -0.461  -0.454  -0.434
 -0.430  -0.427  -0.421  -0.417  -0.415  -0.411  -0.410  -0.402
 -0.397  -0.380  -0.372  -0.367  -0.357  -0.355  -0.354  -0.345
 -0.343  -0.342  -0.339  -0.335  -0.329  -0.320  -0.318  -0.314
 -0.308  -0.303  -0.300  -0.298  -0.296  -0.287  -0.278  -0.275
 -0.271  -0.260  -0.247  -0.244  -0.238  -0.236  -0.225  -0.187
 -0.182  -0.175  -0.161  -0.156  -0.154  -0.147  -0.146  -0.144
 -0.136

          Ground-State Mulliken Net Atomic Charges

     Atom                 Charge (a.u.)
  ----------------------------------------
      1 O                    -0.204418
      2 C                     0.215901
      3 C                    -0.077374
      4 C                    -0.082703
      5 C                     0.219610
      6 O                    -0.177203
      7 C                    -0.051921
      8 C                    -0.052933
      9 O                    -0.164211
     10 C                     0.210879
     11 C                    -0.079730
     12 C                    -0.080579
     13 C                     0.207763
     14 O                    -0.212570
     15 O                    -0.167921
     16 O                    -0.165321
     17 O                    -0.225248
     18 C                    -0.127652
     19 C                     0.016904
     20 C                    -0.146495
     21 C                    -0.143174
     22 C                     0.026309
     23 O                    -0.184517
     24 H                     0.079066
     25 H                     0.083738
     26 H                     0.105807
     27 H                     0.078800
     28 H                     0.069205
     29 H                     0.077320
     30 H                     0.072107
     31 H                     0.081273
     32 O                    -0.217694
     33 C                    -0.128037
     34 C                     0.025054
     35 C                    -0.143754
     36 C                    -0.144372
     37 C                     0.022225
     38 O                    -0.189561
     39 H                     0.088861
     40 H                     0.088343
     41 H                     0.090607
     42 H                     0.085312
     43 H                     0.078572
     44 H                     0.074827
     45 H                     0.077138
     46 H                     0.073436
     47 H                     0.088828
     48 H                     0.092644
     49 H                     0.092421
     50 H                     0.090781
     51 H                     0.090121
     52 H                     0.090260
     53 H                     0.097381
     54 H                     0.087881
     55 H                     0.101225
     56 H                     0.086790
  ----------------------------------------
  Sum of atomic charges =    -0.000000

                    Cartesian Multipole Moments
 -----------------------------------------------------------------
    Charge (ESU x 10^10)
                -0.0000
    Dipole Moment (Debye)
         X       1.8403      Y      -0.4053      Z      -1.3746
       Tot       2.3325
    Quadrupole Moments (Debye-Ang)
        XX    -149.8529     XY      -1.8929     YY    -145.3022
        XZ      -6.6931     YZ      -2.8635     ZZ    -170.0648

 Total job time:  104.18s(wall), 4970.10s(cpu)
        *  Thank you very much for using Q-Chem.  Have a nice day.  *
