 Q-Chem 5.0, Q-Chem, Inc., Pleasanton, CA (2017)
 Q-Chem 5.0.1 for Intel X86 EM64T Linux

User input:
--------------------------------------------------------------
$molecule
0  1
O -3.94934 -3.66094 2.70899
C -3.26408 -4.56952 2.26188
C -3.36658 -6.02376 2.66595
C -4.71828 -6.50621 3.21732
C -5.8678 -5.52628 3.13726
O -5.72781 -4.56719 4.09954
C -6.81439 -3.63565 4.12843
C -8.07859 -4.31839 4.6401
O -8.93535 -4.65216 3.53672
C -10.07035 -5.31982 3.86097
C -10.93834 -5.62139 2.6625
C -12.07597 -6.61976 2.92196
C -12.40015 -6.88842 4.37779
O -13.38357 -7.48924 4.78578
O -2.19449 -4.24263 1.48826
O -12.20975 -5.81234 5.20691
O -9.96385 -6.10338 4.79928
C -12.61015 -5.69909 6.5274
C -11.72743 -4.39544 2.16732
C -12.1001 -4.58911 0.69865
C -13.14448 -5.68099 0.81563
C -13.2481 -5.79806 2.34135
O -12.97544 -4.49727 2.80326
H -10.26116 -5.97182 1.84998
H -11.95359 -7.5995 2.41101
H -11.183 -3.43577 2.30626
H -12.60105 -3.65176 0.36567
H -11.25387 -4.8137 0.01424
H -14.09646 -5.30245 0.38158
H -12.87142 -6.65321 0.35101
H -14.23924 -6.21436 2.62774
O -6.79933 -5.60641 2.34425
C -1.89212 -2.96126 1.07706
C -3.24568 -6.9485 1.42872
C -2.78766 -8.34103 1.8596
C -4.04197 -8.85143 2.53043
C -4.99295 -7.68197 2.25637
O -4.5688 -7.17531 1.01837
H -2.50446 -6.23316 3.33759
H -4.66577 -6.87427 4.2663
H -1.71229 -2.30817 1.95764
H -2.55792 -6.56432 0.64448
H -2.61747 -8.93385 0.93216
H -1.86866 -8.36615 2.4839
H -4.38267 -9.76343 1.99136
H -3.94794 -9.06511 3.61717
H -6.0468 -8.03573 2.30488
H -2.7246 -2.54953 0.46722
H -0.97276 -2.98576 0.45688
H -12.28234 -4.71559 6.92161
H -12.14229 -6.50259 7.1352
H -13.71641 -5.76006 6.60651
H -7.81218 -5.17349 5.30226
H -8.64157 -3.57476 5.24909
H -6.95664 -3.06202 3.18519
H -6.52005 -2.89876 4.90638
$end

$opt
CONSTRAINT
tors           1           2           3           4     +25.428
tors           3           4           5           6     -75.607
tors           4           5           6           7    -177.224
tors           5           6           7           8     +69.765
tors           6           7           8           9    -101.014
tors           7           8           9          10    +177.220
tors           8           9          10          11    +179.054
tors           9          10          11          12    +167.781
tors          11          12          13          14    +168.696
ENDCONSTRAINT
$end

$rem
JOBTYPE                   OPT
METHOD                    B3LYP
DFT_D                     d3_op
BASIS                     STO-3G
GEOM_OPT_MAX_CYCLES       100
GEOM_OPT_TOL_GRADIENT     300
GEOM_OPT_TOL_DISPLACEMENT 1200
GEOM_OPT_TOL_ENERGY       100
SYMMETRY                  False
THRESH                    12
SCF_CONVERGENCE           8
MAX_SUB_FILE_NUM          128
MEM_STATIC                400
MEM_TOTAL                 4000
$end
--------------------------------------------------------------

   15   -1510.0864290264      8.69E-09 Convergence criterion met
 Total energy in the final basis set = -1510.08642903
   15   -1510.1650011998      1.55E-09 Convergence criterion met
 Total energy in the final basis set = -1510.16500120
   14   -1510.2086122868      8.67E-09 Convergence criterion met
 Total energy in the final basis set = -1510.20861229
   15   -1510.2312157347      1.90E-09 Convergence criterion met
 Total energy in the final basis set = -1510.23121573
   13   -1510.2446815812      9.33E-09 Convergence criterion met
 Total energy in the final basis set = -1510.24468158
   13   -1510.2517518399      6.19E-09 Convergence criterion met
 Total energy in the final basis set = -1510.25175184
   13   -1510.2563144737      7.03E-09 Convergence criterion met
 Total energy in the final basis set = -1510.25631447
   13   -1510.2594248043      3.90E-09 Convergence criterion met
   11   -1510.2649926167      8.24E-09 Convergence criterion met
 Total energy in the final basis set = -1510.26499262
   11   -1510.2650042000      5.83E-09 Convergence criterion met
 Total energy in the final basis set = -1510.26500420
   11   -1510.2650129021      5.01E-09 Convergence criterion met
 Total energy in the final basis set = -1510.26501290
   11   -1510.2650193685      3.68E-09 Convergence criterion met
 Total energy in the final basis set = -1510.26501937
   11   -1510.2650226502      2.27E-09 Convergence criterion met
 Total energy in the final basis set = -1510.26502265
    9   -1510.2650239162      6.25E-09 Convergence criterion met
 Total energy in the final basis set = -1510.26502392

             Standard Nuclear Orientation (Angstroms)
    I     Atom           X                Y                Z
 ----------------------------------------------------------------
    1      O       3.5801915050    -1.8730108214     0.2129612013
    2      C       4.5474311644    -1.0949885585     0.3693296130
    3      C       4.7205756844     0.3429659547    -0.2432803072
    4      C       3.3301098605     1.0246058019    -0.5712245375
    5      C       2.1007649846     0.0453025205    -0.5955048433
    6      O       2.1716193575    -0.6992680968    -1.8220140832
    7      C       1.0125449670    -1.6072938879    -1.9676108468
    8      C      -0.3488334328    -0.8590629582    -2.2255822668
    9      O      -1.0895635772    -0.8160743104    -0.9446990588
   10      C      -2.3183648333    -0.0855418029    -1.1001308506
   11      C      -2.9940877711    -0.1475703942     0.3160013658
   12      C      -4.2310066950     0.7618472496     0.6867038061
   13      C      -5.3479809931     1.0498835746    -0.3929012194
   14      O      -6.4517815692     1.5824407564    -0.1348422776
   15      O       5.7193358851    -1.4293276582     1.1158662235
   16      O      -5.0523705738     0.4345166386    -1.6430337046
   17      O      -2.6233936040     0.5158147753    -2.1500949937
   18      C      -6.1910372571     0.6067756391    -2.5746151778
   19      C      -3.4909143367    -1.5870272030     0.8088875127
   20      C      -3.0897757396    -1.6874859025     2.3293153591
   21      C      -4.0365806599    -0.5848159876     2.9362790203
   22      C      -4.9570698556    -0.2374738625     1.6975720730
   23      O      -4.9655531172    -1.4793955837     0.8818556202
   24      H      -2.1707528141     0.1539846917     0.9909798492
   25      H      -3.9211194037     1.7115137199     1.1583705115
   26      H      -3.1859668143    -2.4367867727     0.1683603859
   27      H      -3.3324793927    -2.6869432102     2.7252737848
   28      H      -2.0207849096    -1.4826287735     2.4994825418
   29      H      -4.6403773885    -0.9768495664     3.7696063132
   30      H      -3.4818221594     0.2989298979     3.2900024002
   31      H      -5.9911403193     0.0688659995     1.9496809775
   32      O       1.1826894865    -0.0363544800     0.2462104737
   33      C       5.5863539936    -2.7907196372     1.6848907636
   34      C       5.2578818845     1.3283449436     0.8779433961
   35      C       5.5644740479     2.7438196068     0.2446567117
   36      C       4.1164374531     3.3504054113     0.1206754871
   37      C       3.2437925845     2.1179006113     0.5757949085
   38      O       4.0371514262     1.5477348367     1.6902865164
   39      H       5.3821282636     0.2871114893    -1.1271128215
   40      H       3.3800889497     1.5064638621    -1.5644775413
   41      H       5.4619823077    -3.5545928328     0.8903580904
   42      H       6.0665739108     0.8947186960     1.4967655995
   43      H       6.2001457980     3.3404590056     0.9177781215
   44      H       6.0700815386     2.6543976704    -0.7303871298
   45      H       3.9755194380     4.1961175667     0.8125557311
   46      H       3.8762853885     3.6839676645    -0.9015198406
   47      H       2.2133254323     2.3464256671     0.9106783015
   48      H       4.7232906948    -2.8592069895     2.3781725185
   49      H       6.5234726509    -2.9811858128     2.2396537854
   50      H      -5.8949064443     0.0933294687    -3.5076777056
   51      H      -6.3881566746     1.6771925895    -2.7870186591
   52      H      -7.1187162972     0.1496581495    -2.1733890716
   53      H      -0.1594977167     0.1653230836    -2.6164465904
   54      H      -0.9396133061    -1.4060366920    -2.9935014783
   55      H       0.8984015621    -2.2542248720    -1.0699726354
   56      H       1.2602781659    -2.2407193963    -2.8426330801
 ----------------------------------------------------------------

    9   -1510.2650243033      3.09E-09 Convergence criterion met
 Total energy in the final basis set = -1510.26502430
 Final energy is   -1510.26502430331
 **  OPTIMIZATION CONVERGED  **

                    Orbital Energies (a.u.)
 --------------------------------------------------------------

 Alpha MOs
 -- Occupied --
-18.942 -18.928 -18.922 -18.922 -18.885 -18.883 -18.881 -18.870
-18.867 -18.858 -10.105 -10.094 -10.091 -10.088 -10.069 -10.069
-10.067 -10.059 -10.057 -10.054 -10.054 -10.053 -10.041 -10.033
-10.032 -10.029 -10.021 -10.019 -10.015 -10.013  -1.019  -1.007
 -1.002  -0.997  -0.969  -0.965  -0.942  -0.931  -0.928  -0.922
 -0.763  -0.756  -0.725  -0.717  -0.712  -0.703  -0.689  -0.665
 -0.653  -0.614  -0.595  -0.577  -0.543  -0.538  -0.536  -0.532
 -0.511  -0.509  -0.482  -0.475  -0.464  -0.454  -0.446  -0.434
 -0.431  -0.427  -0.420  -0.416  -0.412  -0.406  -0.401  -0.398
 -0.389  -0.378  -0.373  -0.365  -0.359  -0.355  -0.350  -0.344
 -0.338  -0.333  -0.332  -0.330  -0.325  -0.325  -0.312  -0.309
 -0.307  -0.305  -0.300  -0.296  -0.291  -0.288  -0.277  -0.274
 -0.263  -0.259  -0.247  -0.243  -0.240  -0.234  -0.228  -0.184
 -0.174  -0.168  -0.165  -0.157  -0.146  -0.144  -0.141  -0.139
 -0.136

          Ground-State Mulliken Net Atomic Charges

     Atom                 Charge (a.u.)
  ----------------------------------------
      1 O                    -0.209106
      2 C                     0.214732
      3 C                    -0.076150
      4 C                    -0.082132
      5 C                     0.214120
      6 O                    -0.175703
      7 C                    -0.047163
      8 C                    -0.049459
      9 O                    -0.171304
     10 C                     0.209489
     11 C                    -0.081186
     12 C                    -0.076643
     13 C                     0.210138
     14 O                    -0.223124
     15 O                    -0.169138
     16 O                    -0.156936
     17 O                    -0.205457
     18 C                    -0.125704
     19 C                     0.026577
     20 C                    -0.140930
     21 C                    -0.146375
     22 C                     0.023368
     23 O                    -0.193149
     24 H                     0.090084
     25 H                     0.084107
     26 H                     0.083968
     27 H                     0.076245
     28 H                     0.078734
     29 H                     0.077640
     30 H                     0.074271
     31 H                     0.086594
     32 O                    -0.211134
     33 C                    -0.127627
     34 C                     0.022981
     35 C                    -0.145208
     36 C                    -0.142710
     37 C                     0.023365
     38 O                    -0.192142
     39 H                     0.087071
     40 H                     0.082687
     41 H                     0.089903
     42 H                     0.090164
     43 H                     0.078010
     44 H                     0.073006
     45 H                     0.077854
     46 H                     0.073123
     47 H                     0.088249
     48 H                     0.092492
     49 H                     0.091787
     50 H                     0.090657
     51 H                     0.087900
     52 H                     0.088929
     53 H                     0.088555
     54 H                     0.083963
     55 H                     0.099555
     56 H                     0.088161
  ----------------------------------------
  Sum of atomic charges =    -0.000000

                    Cartesian Multipole Moments
 -----------------------------------------------------------------
    Charge (ESU x 10^10)
                 0.0000
    Dipole Moment (Debye)
         X       3.7797      Y      -0.4789      Z      -0.7135
       Tot       3.8762
    Quadrupole Moments (Debye-Ang)
        XX    -159.2829     XY       1.5920     YY    -153.4223
        XZ      -1.9805     YZ      -1.3676     ZZ    -154.4776

 Total job time:  78.57s(wall), 3740.57s(cpu)
        *  Thank you very much for using Q-Chem.  Have a nice day.  *
