 Q-Chem 5.0, Q-Chem, Inc., Pleasanton, CA (2017)
 Q-Chem 5.0.1 for Intel X86 EM64T Linux

User input:
--------------------------------------------------------------
$molecule
0  1
O 3.580191505 -1.8730108214 0.2129612013
C 4.5474311644 -1.0949885585 0.369329613
C 4.7205756844 0.3429659547 -0.2432803072
C 3.3301098605 1.0246058019 -0.5712245375
C 2.1007649846 0.0453025205 -0.5955048433
O 2.1716193575 -0.6992680968 -1.8220140832
C 1.012544967 -1.6072938879 -1.9676108468
C -0.3488334328 -0.8590629582 -2.2255822668
O -1.0895635772 -0.8160743104 -0.9446990588
C -2.3183648333 -0.0855418029 -1.1001308506
C -2.9940877711 -0.1475703942 0.3160013658
C -4.231006695 0.7618472496 0.6867038061
C -5.3479809931 1.0498835746 -0.3929012194
O -6.4517815692 1.5824407564 -0.1348422776
O 5.7193358851 -1.4293276582 1.1158662235
O -5.0523705738 0.4345166386 -1.6430337046
O -2.623393604 0.5158147753 -2.1500949937
C -6.1910372571 0.6067756391 -2.5746151778
C -3.4909143367 -1.587027203 0.8088875127
C -3.0897757396 -1.6874859025 2.3293153591
C -4.0365806599 -0.5848159876 2.9362790203
C -4.9570698556 -0.2374738625 1.697572073
O -4.9655531172 -1.4793955837 0.8818556202
H -2.1707528141 0.1539846917 0.9909798492
H -3.9211194037 1.7115137199 1.1583705115
H -3.1859668143 -2.4367867727 0.1683603859
H -3.3324793927 -2.6869432102 2.7252737848
H -2.0207849096 -1.4826287735 2.4994825418
H -4.6403773885 -0.9768495664 3.7696063132
H -3.4818221594 0.2989298979 3.2900024002
H -5.9911403193 0.0688659995 1.9496809775
O 1.1826894865 -0.03635448 0.2462104737
C 5.5863539936 -2.7907196372 1.6848907636
C 5.2578818845 1.3283449436 0.8779433961
C 5.5644740479 2.7438196068 0.2446567117
C 4.1164374531 3.3504054113 0.1206754871
C 3.2437925845 2.1179006113 0.5757949085
O 4.0371514262 1.5477348367 1.6902865164
H 5.3821282636 0.2871114893 -1.1271128215
H 3.3800889497 1.5064638621 -1.5644775413
H 5.4619823077 -3.5545928328 0.8903580904
H 6.0665739108 0.894718696 1.4967655995
H 6.200145798 3.3404590056 0.9177781215
H 6.0700815386 2.6543976704 -0.7303871298
H 3.975519438 4.1961175667 0.8125557311
H 3.8762853885 3.6839676645 -0.9015198406
H 2.2133254323 2.3464256671 0.9106783015
H 4.7232906948 -2.8592069895 2.3781725185
H 6.5234726509 -2.9811858128 2.2396537854
H -5.8949064443 0.0933294687 -3.5076777056
H -6.3881566746 1.6771925895 -2.7870186591
H -7.1187162972 0.1496581495 -2.1733890716
H -0.1594977167 0.1653230836 -2.6164465904
H -0.9396133061 -1.406036692 -2.9935014783
H 0.8984015621 -2.254224872 -1.0699726354
H 1.2602781659 -2.2407193963 -2.8426330801
$end

$rem
JOBTYPE                   OPT
METHOD                    B3LYP
DFT_D                     d3_op
BASIS                     STO-3G
GEOM_OPT_MAX_CYCLES       100
GEOM_OPT_TOL_GRADIENT     300
GEOM_OPT_TOL_DISPLACEMENT 1200
GEOM_OPT_TOL_ENERGY       100
SYMMETRY                  False
THRESH                    12
SCF_CONVERGENCE           8
MAX_SUB_FILE_NUM          128
MEM_STATIC                400
MEM_TOTAL                 4000
$end
--------------------------------------------------------------

   16   -1510.2649068335      5.67E-09 Convergence criterion met
 Total energy in the final basis set = -1510.26490683
   13   -1510.2672507997      2.75E-09 Convergence criterion met
 Total energy in the final basis set = -1510.26725080
   13   -1510.2692831064      4.14E-09 Convergence criterion met
 Total energy in the final basis set = -1510.26928311
   13   -1510.2713432951      2.95E-09 Convergence criterion met
 Total energy in the final basis set = -1510.27134330
   13   -1510.2733554928      3.87E-09 Convergence criterion met
 Total energy in the final basis set = -1510.27335549
   13   -1510.2752729300      4.30E-09 Convergence criterion met
 Total energy in the final basis set = -1510.27527293
   13   -1510.2771668098      2.71E-09 Convergence criterion met
 Total energy in the final basis set = -1510.27716681
   13   -1510.2789269003      4.75E-09 Convergence criterion met
   13   -1510.3017399014      3.63E-09 Convergence criterion met
 Total energy in the final basis set = -1510.30173990
   13   -1510.3016363927      3.10E-09 Convergence criterion met
 Total energy in the final basis set = -1510.30163639
   13   -1510.3018622300      2.33E-09 Convergence criterion met
 Total energy in the final basis set = -1510.30186223
   12   -1510.3018841200      4.33E-09 Convergence criterion met
 Total energy in the final basis set = -1510.30188412
   11   -1510.3019025442      7.46E-09 Convergence criterion met
 Total energy in the final basis set = -1510.30190254
   11   -1510.3019038768      3.40E-09 Convergence criterion met
 Total energy in the final basis set = -1510.30190388

             Standard Nuclear Orientation (Angstroms)
    I     Atom           X                Y                Z
 ----------------------------------------------------------------
    1      O      -3.7554370936    -1.0378731459     1.5633757098
    2      C      -3.9519772358     0.0965063065     1.0709143880
    3      C      -3.0047881875     0.8814170461     0.1053481203
    4      C      -1.6197226683     0.1507945257    -0.0965366223
    5      C      -1.3835190743    -1.0911546842     0.8297536080
    6      O      -1.1101575436    -0.6055523081     2.1629447703
    7      C      -0.7257525189    -1.7256965352     3.0467968598
    8      C       0.8441304826    -1.8055999903     3.1549336819
    9      O       1.4157577049    -2.0543512808     1.8087122985
   10      C       1.6573975707    -0.8203419983     1.1346055231
   11      C       1.9757548558    -1.1251501023    -0.3654786462
   12      C       2.0970713966     0.1944676275    -1.2335472543
   13      C       1.7695296474     1.5147569515    -0.4402035641
   14      O       0.6359236297     2.0524597505    -0.3421800559
   15      O      -5.1349273674     0.8676656454     1.2909977679
   16      O       2.9725703196     2.1189223666     0.0269695269
   17      O       1.6280031876     0.3104921738     1.6744203396
   18      C       2.6488249261     3.3244960720     0.8235699885
   19      C       3.4292326680    -1.7416100190    -0.5485701294
   20      C       3.5430899985    -2.3168883722    -2.0147072482
   21      C       3.6908062907    -0.9923532616    -2.8514257671
   22      C       3.6084682481     0.0982797067    -1.7113403740
   23      O       4.2984984757    -0.5443147126    -0.5683353780
   24      H       1.1957604781    -1.8076504450    -0.7496503544
   25      H       1.4008164841     0.1520810049    -2.0894025949
   26      H       3.7330184762    -2.4366937604     0.2581617543
   27      H       4.4351786492    -2.9562240026    -2.1085641838
   28      H       2.6554821454    -2.9049258703    -2.2978295260
   29      H       4.6663261926    -0.9429673523    -3.3606855695
   30      H       2.8931011160    -0.8705149093    -3.6013309435
   31      H       4.0778771113     1.0720544697    -1.9478341184
   32      O      -1.2896665713    -2.2892896246     0.4867736806
   33      C      -6.0731310551     0.1187953070     2.1596825239
   34      C      -3.5807710343     0.8434447796    -1.3786984118
   35      C      -2.7468515959     1.8452631590    -2.2713814284
   36      C      -1.4039348350     1.0471115768    -2.4583932061
   37      C      -1.7163559836    -0.2575496500    -1.6255478406
   38      O      -3.1612237811    -0.4910190407    -1.8574178534
   39      H      -2.8873545372     1.9171644347     0.4713620054
   40      H      -0.7757641841     0.8644808940     0.0396813853
   41      H      -5.6310800562    -0.0867984933     3.1559697301
   42      H      -4.6809063917     0.9565705083    -1.4411416625
   43      H      -3.2579015150     2.0176475298    -3.2321263004
   44      H      -2.5959568941     2.8151344181    -1.7708526956
   45      H      -1.2116094584     0.8109531100    -3.5168044497
   46      H      -0.5414661117     1.5842559499    -2.0259589092
   47      H      -1.1358525914    -1.1612178280    -1.8947667238
   48      H      -6.3703240403    -0.8463371653     1.7009157611
   49      H      -6.9631956347     0.7641161671     2.2756586690
   50      H       3.6190079180     3.7560962480     1.1305800347
   51      H       2.0563315931     3.0558670465     1.7217023655
   52      H       2.0786629149     4.0664627796     0.2281415044
   53      H       1.2476426032    -0.8576214520     3.5695872797
   54      H       1.1428453554    -2.6622916107     3.7922494240
   55      H      -1.1180860979    -2.6803877113     2.6356479304
   56      H      -1.1591756729    -1.5289797800     4.0488491741
 ----------------------------------------------------------------

   11   -1510.3019042734      5.37E-09 Convergence criterion met
 Total energy in the final basis set = -1510.30190427
 Final energy is   -1510.30190427342
 **  OPTIMIZATION CONVERGED  **

                    Orbital Energies (a.u.)
 --------------------------------------------------------------

 Alpha MOs
 -- Occupied --
-18.941 -18.937 -18.935 -18.914 -18.889 -18.887 -18.877 -18.875
-18.871 -18.857 -10.108 -10.105 -10.097 -10.085 -10.072 -10.064
-10.063 -10.063 -10.061 -10.060 -10.051 -10.044 -10.041 -10.038
-10.029 -10.021 -10.020 -10.011 -10.009 -10.002  -1.023  -1.012
 -1.010  -0.993  -0.972  -0.960  -0.945  -0.935  -0.935  -0.922
 -0.765  -0.752  -0.726  -0.716  -0.710  -0.701  -0.691  -0.660
 -0.659  -0.615  -0.594  -0.573  -0.547  -0.539  -0.534  -0.527
 -0.514  -0.502  -0.489  -0.471  -0.468  -0.454  -0.444  -0.442
 -0.435  -0.423  -0.421  -0.415  -0.411  -0.409  -0.408  -0.403
 -0.395  -0.377  -0.370  -0.369  -0.359  -0.356  -0.350  -0.347
 -0.339  -0.336  -0.334  -0.330  -0.327  -0.322  -0.315  -0.314
 -0.307  -0.301  -0.298  -0.295  -0.290  -0.285  -0.281  -0.269
 -0.263  -0.257  -0.250  -0.248  -0.235  -0.234  -0.224  -0.192
 -0.178  -0.175  -0.164  -0.154  -0.152  -0.151  -0.145  -0.139
 -0.134

          Ground-State Mulliken Net Atomic Charges

     Atom                 Charge (a.u.)
  ----------------------------------------
      1 O                    -0.208268
      2 C                     0.214693
      3 C                    -0.077421
      4 C                    -0.096594
      5 C                     0.211032
      6 O                    -0.178971
      7 C                    -0.053332
      8 C                    -0.052033
      9 O                    -0.168542
     10 C                     0.214469
     11 C                    -0.079720
     12 C                    -0.082904
     13 C                     0.223670
     14 O                    -0.227826
     15 O                    -0.169376
     16 O                    -0.162426
     17 O                    -0.206712
     18 C                    -0.126367
     19 C                     0.025865
     20 C                    -0.143711
     21 C                    -0.144141
     22 C                     0.025895
     23 O                    -0.187940
     24 H                     0.093679
     25 H                     0.084987
     26 H                     0.086731
     27 H                     0.078730
     28 H                     0.076289
     29 H                     0.078225
     30 H                     0.073866
     31 H                     0.088463
     32 O                    -0.221936
     33 C                    -0.128229
     34 C                     0.025027
     35 C                    -0.143413
     36 C                    -0.152198
     37 C                     0.022062
     38 O                    -0.193897
     39 H                     0.088434
     40 H                     0.108393
     41 H                     0.089252
     42 H                     0.081673
     43 H                     0.074277
     44 H                     0.074274
     45 H                     0.068602
     46 H                     0.085734
     47 H                     0.079198
     48 H                     0.090710
     49 H                     0.090695
     50 H                     0.090781
     51 H                     0.096406
     52 H                     0.088225
     53 H                     0.097467
     54 H                     0.089979
     55 H                     0.101908
     56 H                     0.086264
  ----------------------------------------
  Sum of atomic charges =    -0.000000

                    Cartesian Multipole Moments
 -----------------------------------------------------------------
    Charge (ESU x 10^10)
                -0.0000
    Dipole Moment (Debye)
         X       0.5168      Y       1.1369      Z       0.4786
       Tot       1.3374
    Quadrupole Moments (Debye-Ang)
        XX    -156.3621     XY      -5.3320     YY    -158.7531
        XZ      -8.4273     YZ      -3.2209     ZZ    -147.9788

 Total job time:  122.17s(wall), 5819.54s(cpu)
        *  Thank you very much for using Q-Chem.  Have a nice day.  *
