 Q-Chem 5.0, Q-Chem, Inc., Pleasanton, CA (2017)
 Q-Chem 5.0.1 for Intel X86 EM64T Linux

User input:
--------------------------------------------------------------
$molecule
0  1
O 5.5285840409 -1.2920661108 -0.2071325728
C 5.1261814506 -0.1529553945 -0.524546686
C 3.7550963819 0.2416150758 -1.1814273094
C 2.5527931847 -0.753185534 -0.9214006297
C 2.7009739516 -1.6506054774 0.3595637549
O 1.7099467347 -2.7172858245 0.3462531487
C 0.9516228829 -2.7521230856 1.6148656655
C -0.5705830094 -2.401557028 1.4371656762
O -0.7239460159 -1.1143416558 0.7236361203
C -2.0983065513 -0.8783589732 0.3701472367
C -2.3394114926 0.6646651177 0.2977247882
C -3.7337193786 1.0366898785 -0.3476042888
C -4.4886012161 -0.1689838451 -1.0164165455
O -5.6353782761 -0.5832604972 -0.7466582292
O 5.9085144859 1.0385716268 -0.370436244
O -3.6966985326 -0.6275735231 -2.1223613058
O -2.9575892502 -1.7808614075 0.2765198224
C -4.3537213005 -1.7891152793 -2.7609048062
C -2.550154665 1.2138140773 1.7775585848
C -2.559965895 2.7930596043 1.7330310003
C -4.0028538803 3.0773356972 1.1707090309
C -4.5145293305 1.6086869464 0.9081518016
O -3.9570253024 0.8488686843 2.053643483
H -1.4896042521 1.1550322589 -0.2081956839
H -3.5964313763 1.8164157893 -1.1185389758
H -1.8706836548 0.7675477383 2.5297583221
H -2.428485392 3.2064482528 2.7454686535
H -1.7627100306 3.1895206328 1.0841332323
H -4.6356613985 3.5768616997 1.9214915667
H -3.9924586476 3.6869977051 0.253192452
H -5.6124177216 1.4741504051 0.8534326448
O 3.3772784409 -1.3875205001 1.376105645
C 7.2200142755 0.704046033 0.2296650213
C 3.1281910508 1.6283434379 -0.7158860186
C 2.2533388664 2.1647428555 -1.9133433556
C 1.062475206 1.1348646061 -1.8833296856
C 1.401567949 0.2946378515 -0.5870779529
O 2.1090113419 1.2553875303 0.2902289634
H 3.9497177755 0.2851247007 -2.2703582014
H 2.3163851436 -1.3801282639 -1.7991939343
H 7.8048831809 0.0208449803 -0.419819977
H 3.8637316254 2.3403463837 -0.2948311399
H 1.9043633151 3.1887851221 -1.7039993763
H 2.7981853439 2.1644662445 -2.870593336
H 0.090281296 1.641853292 -1.7744260624
H 1.0241061348 0.5028583757 -2.7850842708
H 0.5337454748 -0.1692419373 -0.0628824544
H 7.1029192764 0.2273834519 1.2243014854
H 7.7596549373 1.6627826276 0.3387060175
H -3.7399970409 -2.0423285157 -3.6450175411
H -5.3887058014 -1.5507732708 -3.0806612745
H -4.3880338864 -2.6579716262 -2.071834408
H -1.0874356372 -3.2069566421 0.8708472236
H -1.0383874137 -2.334307473 2.4448498679
H 1.419143009 -2.0656847862 2.3537657863
H 0.9977429053 -3.7825679538 2.0324420627
$end

$rem
JOBTYPE                   OPT
METHOD                    B3LYP
DFT_D                     d3_op
BASIS                     STO-3G
GEOM_OPT_MAX_CYCLES       100
GEOM_OPT_TOL_GRADIENT     300
GEOM_OPT_TOL_DISPLACEMENT 1200
GEOM_OPT_TOL_ENERGY       100
SYMMETRY                  False
THRESH                    12
SCF_CONVERGENCE           8
MAX_SUB_FILE_NUM          128
MEM_STATIC                400
MEM_TOTAL                 4000
$end
--------------------------------------------------------------

   15   -1510.2694876143      9.13E-09 Convergence criterion met
 Total energy in the final basis set = -1510.26948761
   14   -1510.2736767371      2.10E-09 Convergence criterion met
 Total energy in the final basis set = -1510.27367674
   14   -1510.2792649607      1.82E-09 Convergence criterion met
 Total energy in the final basis set = -1510.27926496
   14   -1510.2826572190      2.81E-09 Convergence criterion met
 Total energy in the final basis set = -1510.28265722
   14   -1510.2848087309      2.17E-09 Convergence criterion met
 Total energy in the final basis set = -1510.28480873
   14   -1510.2868329941      2.09E-09 Convergence criterion met
 Total energy in the final basis set = -1510.28683299
   14   -1510.2869032355      3.55E-09 Convergence criterion met
 Total energy in the final basis set = -1510.28690324
   14   -1510.2893152140      1.75E-09 Convergence criterion met
   12   -1510.3064205773      3.42E-09 Convergence criterion met
 Total energy in the final basis set = -1510.30642058
   11   -1510.3064225991      5.33E-09 Convergence criterion met
 Total energy in the final basis set = -1510.30642260
   11   -1510.3064377445      5.70E-09 Convergence criterion met
 Total energy in the final basis set = -1510.30643774
   12   -1510.3064333926      2.48E-09 Convergence criterion met
 Total energy in the final basis set = -1510.30643339
   10   -1510.3064428814      6.67E-09 Convergence criterion met
 Total energy in the final basis set = -1510.30644288
    9   -1510.3064408115      6.88E-09 Convergence criterion met
 Total energy in the final basis set = -1510.30644081

             Standard Nuclear Orientation (Angstroms)
    I     Atom           X                Y                Z
 ----------------------------------------------------------------
    1      O       4.3202957984     0.8977154056     0.6940620201
    2      C       3.1671001751     0.8600115639     0.2156013325
    3      C       2.7872130881     0.6499357281    -1.2954146904
    4      C       1.8854178581    -0.6298455219    -1.5512736454
    5      C       1.8119393858    -1.5555090888    -0.2885515486
    6      O       0.7858888745    -2.5420204369    -0.4457936881
    7      C       0.8240498062    -3.4814720002     0.7049864034
    8      C      -0.0259041276    -2.9345802594     1.9249443128
    9      O       0.0143439711    -1.4542035389     1.9278530603
   10      C      -1.1753079915    -0.9485288497     1.3020228215
   11      C      -1.0240445539     0.5771949459     1.0515876185
   12      C      -2.0575655947     1.1073178914    -0.0241853458
   13      C      -2.9836664699    -0.0007079947    -0.6386260980
   14      O      -4.2147800300    -0.1402331321    -0.4921440557
   15      O       1.9730955493     1.1194625997     0.9817465590
   16      O      -2.1999122223    -0.7972656378    -1.5553211700
   17      O      -2.1602596050    -1.6669320802     1.0105434385
   18      C      -3.0052342960    -1.9139246879    -2.0888792280
   19      C      -1.4465248390     1.4481008936     2.3127523688
   20      C      -0.9393046137     2.9251766196     2.0593344337
   21      C      -2.0031172702     3.4393891461     1.0200609594
   22      C      -2.8889757310     2.1475682193     0.8306085075
   23      O      -2.9167124819     1.5482538949     2.1866612688
   24      H       0.0241552056     0.7904101907     0.7448945057
   25      H      -1.4841688930     1.5890944996    -0.8395197087
   26      H      -1.1684151891     1.0119486023     3.2921131136
   27      H      -0.9636594468     3.5114175858     2.9916796119
   28      H       0.0841319873     2.9379257422     1.6520282343
   29      H      -2.6043894494     4.2649609049     1.4330599255
   30      H      -1.5447823859     3.7693322845     0.0742435950
   31      H      -3.9206106576     2.3153099240     0.4651856225
   32      O       2.6031978879    -1.5238790768     0.6822160245
   33      C       2.3076815854     1.1136121260     2.4234825601
   34      C       1.8275246576     1.7917346370    -1.8318267927
   35      C       1.7236506056     1.6742964224    -3.4048362350
   36      C       0.7414492168     0.4533738238    -3.5573786348
   37      C       0.5286674140     0.0344577536    -2.0502495083
   38      O       0.4997708602     1.3452590090    -1.3602562375
   39      H       3.7306361868     0.5992423884    -1.8664538116
   40      H       2.3165679040    -1.2465841761    -2.3624640739
   41      H       3.0719846737     1.8782300984     2.6696996010
   42      H       2.0572301277     2.8042900976    -1.4470867224
   43      H       1.2995407742     2.5952342709    -3.8354088988
   44      H       2.7059317870     1.4883968514    -3.8676615439
   45      H      -0.2180870366     0.7638699847    -4.0011282690
   46      H       1.1630582939    -0.3613618899    -4.1670421391
   47      H      -0.4197686082    -0.5174465538    -1.8366295859
   48      H       2.6825721224     0.1166864055     2.7326476627
   49      H       1.3690725353     1.3360183590     2.9605903171
   50      H      -2.3591994229    -2.4420186830    -2.8142493200
   51      H      -3.9205636976    -1.5500077008    -2.5986919890
   52      H      -3.3032393880    -2.6111456909    -1.2791307815
   53      H      -1.0842879587    -3.2574256010     1.8305423768
   54      H       0.4066148049    -3.2889294039     2.8816062771
   55      H       1.8759526437    -3.6385793468     1.0213443745
   56      H       0.3928987215    -4.4336424237     0.3364208499
 ----------------------------------------------------------------

    9   -1510.3064414241      4.94E-09 Convergence criterion met
 Total energy in the final basis set = -1510.30644142
 Final energy is   -1510.30644142410
 **  OPTIMIZATION CONVERGED  **

                    Orbital Energies (a.u.)
 --------------------------------------------------------------

 Alpha MOs
 -- Occupied --
-18.945 -18.936 -18.927 -18.925 -18.891 -18.885 -18.880 -18.877
-18.867 -18.864 -10.109 -10.099 -10.096 -10.091 -10.077 -10.071
-10.064 -10.058 -10.056 -10.052 -10.048 -10.047 -10.041 -10.037
-10.022 -10.019 -10.018 -10.017 -10.011 -10.010  -1.026  -1.012
 -1.003  -0.999  -0.974  -0.961  -0.946  -0.937  -0.929  -0.926
 -0.765  -0.753  -0.726  -0.719  -0.709  -0.702  -0.692  -0.655
 -0.654  -0.619  -0.596  -0.575  -0.546  -0.539  -0.538  -0.529
 -0.512  -0.502  -0.489  -0.481  -0.464  -0.457  -0.445  -0.441
 -0.428  -0.426  -0.419  -0.417  -0.411  -0.407  -0.405  -0.403
 -0.396  -0.381  -0.371  -0.367  -0.360  -0.356  -0.347  -0.347
 -0.342  -0.339  -0.333  -0.329  -0.324  -0.323  -0.316  -0.315
 -0.306  -0.304  -0.301  -0.295  -0.293  -0.284  -0.279  -0.271
 -0.266  -0.258  -0.247  -0.246  -0.242  -0.236  -0.220  -0.195
 -0.174  -0.171  -0.168  -0.163  -0.157  -0.148  -0.146  -0.141
 -0.135

          Ground-State Mulliken Net Atomic Charges

     Atom                 Charge (a.u.)
  ----------------------------------------
      1 O                    -0.213372
      2 C                     0.216080
      3 C                    -0.080632
      4 C                    -0.080445
      5 C                     0.215676
      6 O                    -0.168384
      7 C                    -0.052436
      8 C                    -0.056662
      9 O                    -0.171552
     10 C                     0.212574
     11 C                    -0.092735
     12 C                    -0.088128
     13 C                     0.219110
     14 O                    -0.212288
     15 O                    -0.175661
     16 O                    -0.180037
     17 O                    -0.212036
     18 C                    -0.126492
     19 C                     0.023604
     20 C                    -0.145135
     21 C                    -0.143008
     22 C                     0.024067
     23 O                    -0.191199
     24 H                     0.117511
     25 H                     0.100926
     26 H                     0.078159
     27 H                     0.073619
     28 H                     0.079155
     29 H                     0.075022
     30 H                     0.074592
     31 H                     0.086592
     32 O                    -0.209477
     33 C                    -0.128392
     34 C                     0.026099
     35 C                    -0.145020
     36 C                    -0.144055
     37 C                     0.007130
     38 O                    -0.195776
     39 H                     0.084719
     40 H                     0.085517
     41 H                     0.087448
     42 H                     0.082241
     43 H                     0.076892
     44 H                     0.073643
     45 H                     0.076954
     46 H                     0.071791
     47 H                     0.115625
     48 H                     0.095530
     49 H                     0.088447
     50 H                     0.086465
     51 H                     0.088621
     52 H                     0.093484
     53 H                     0.100982
     54 H                     0.089254
     55 H                     0.094944
     56 H                     0.090449
  ----------------------------------------
  Sum of atomic charges =    -0.000000

                    Cartesian Multipole Moments
 -----------------------------------------------------------------
    Charge (ESU x 10^10)
                -0.0000
    Dipole Moment (Debye)
         X       1.7407      Y      -0.8908      Z      -2.0315
       Tot       2.8197
    Quadrupole Moments (Debye-Ang)
        XX    -183.4302     XY      -0.6361     YY    -145.7897
        XZ       0.6849     YZ      -1.1587     ZZ    -150.3335

 Total job time:  157.08s(wall), 7489.91s(cpu)
        *  Thank you very much for using Q-Chem.  Have a nice day.  *
