 Q-Chem 5.0, Q-Chem, Inc., Pleasanton, CA (2017)
 Q-Chem 5.0.1 for Intel X86 EM64T Linux

User input:
--------------------------------------------------------------
$molecule
0  1
O -3.94934 -3.66094 2.70899
C -3.26408 -4.56952 2.26188
C -3.36658 -6.02376 2.66595
C -4.71828 -6.50621 3.21732
C -5.8678 -5.52628 3.13726
O -6.91011 -5.97041 3.9
C -8.15165 -6.01035 3.18851
C -8.6285 -7.45183 3.04396
O -7.58712 -8.25645 2.46865
C -7.81882 -9.59265 2.4623
C -7.11353 -10.30674 1.33389
C -7.12415 -11.83931 1.43079
C -8.11542 -12.43254 2.41169
O -8.99064 -13.23971 2.13415
O -2.19211 -4.24477 1.49102
O -7.84734 -12.20754 3.72763
O -8.8867 -10.01029 2.8982
C -8.57273 -12.73876 4.77378
C -7.79027 -10.10826 -0.03877
C -6.75724 -10.30489 -1.1464
C -6.51131 -11.79695 -1.03854
C -7.57924 -12.17686 -0.00319
O -8.60873 -11.23978 -0.20735
H -6.07633 -9.92164 1.26206
H -6.12424 -12.25324 1.68775
H -8.29058 -9.12101 -0.14681
H -7.28046 -10.09789 -2.10773
H -5.84743 -9.66949 -1.08444
H -6.72137 -12.25836 -2.02878
H -5.49727 -12.08649 -0.68675
H -7.86134 -13.24635 -0.11922
O -6.04425 -4.86426 2.11906
C -1.88765 -2.96423 1.07892
C -3.20465 -6.98536 1.45222
C -2.4803 -8.23142 1.92873
C -3.52272 -8.77497 2.87413
C -4.72429 -7.86366 2.51946
O -4.49443 -7.49142 1.19343
H -2.5135 -6.19372 3.36372
H -4.59208 -6.67291 4.3113
H -1.70976 -2.31002 1.95906
H -2.67813 -6.55277 0.57407
H -2.39704 -8.90189 1.04247
H -1.47277 -8.08826 2.3753
H -3.69403 -9.8446 2.6169
H -3.27662 -8.67776 3.95424
H -5.54173 -8.46915 2.80729
H -2.71809 -2.55278 0.46614
H -0.96658 -2.99029 0.46132
H -8.13814 -12.38825 5.73226
H -8.52942 -13.84851 4.74585
H -9.62981 -12.40187 4.7155
H -8.83926 -7.81108 4.07757
H -9.56224 -7.50157 2.44026
H -8.13382 -5.60687 2.15273
H -8.91039 -5.41583 3.74021
$end

$opt
CONSTRAINT
tors           1           2           3           4     +25.428
tors           3           4           5           6    -167.454
tors           4           5           6           7    -128.111
tors           5           6           7           8    +114.466
tors           6           7           8           9     -52.966
tors           7           8           9          10    +171.090
tors           8           9          10          11    +152.165
tors           9          10          11          12    +169.050
tors          11          12          13          14    +122.758
ENDCONSTRAINT
$end

$rem
JOBTYPE                   OPT
METHOD                    B3LYP
DFT_D                     d3_op
BASIS                     STO-3G
GEOM_OPT_MAX_CYCLES       100
GEOM_OPT_TOL_GRADIENT     300
GEOM_OPT_TOL_DISPLACEMENT 1200
GEOM_OPT_TOL_ENERGY       100
SYMMETRY                  False
THRESH                    12
SCF_CONVERGENCE           8
MAX_SUB_FILE_NUM          128
MEM_STATIC                400
MEM_TOTAL                 4000
$end
--------------------------------------------------------------

   15   -1510.0905463035      7.55E-09 Convergence criterion met
 Total energy in the final basis set = -1510.09054630
   13   -1510.1671220737      8.92E-09 Convergence criterion met
 Total energy in the final basis set = -1510.16712207
   13   -1510.2119296675      8.13E-09 Convergence criterion met
 Total energy in the final basis set = -1510.21192967
   14   -1510.2369635798      4.43E-09 Convergence criterion met
 Total energy in the final basis set = -1510.23696358
   14   -1510.2525944054      1.65E-09 Convergence criterion met
 Total energy in the final basis set = -1510.25259441
   13   -1510.2602002752      3.75E-09 Convergence criterion met
 Total energy in the final basis set = -1510.26020028
   12   -1510.2639574683      9.17E-09 Convergence criterion met
 Total energy in the final basis set = -1510.26395747
   13   -1510.2658175277      3.71E-09 Convergence criterion met
   10   -1510.2694094474      9.28E-09 Convergence criterion met
 Total energy in the final basis set = -1510.26940945
   11   -1510.2694648513      6.21E-09 Convergence criterion met
 Total energy in the final basis set = -1510.26946485
   10   -1510.2694983955      8.26E-09 Convergence criterion met
 Total energy in the final basis set = -1510.26949840
    9   -1510.2695136417      9.10E-09 Convergence criterion met
 Total energy in the final basis set = -1510.26951364
    9   -1510.2695167339      6.77E-09 Convergence criterion met
 Total energy in the final basis set = -1510.26951673
    9   -1510.2695178617      4.59E-09 Convergence criterion met
 Total energy in the final basis set = -1510.26951786

             Standard Nuclear Orientation (Angstroms)
    I     Atom           X                Y                Z
 ----------------------------------------------------------------
    1      O       5.5285840409    -1.2920661108    -0.2071325728
    2      C       5.1261814506    -0.1529553945    -0.5245466860
    3      C       3.7550963819     0.2416150758    -1.1814273094
    4      C       2.5527931847    -0.7531855340    -0.9214006297
    5      C       2.7009739516    -1.6506054774     0.3595637549
    6      O       1.7099467347    -2.7172858245     0.3462531487
    7      C       0.9516228829    -2.7521230856     1.6148656655
    8      C      -0.5705830094    -2.4015570280     1.4371656762
    9      O      -0.7239460159    -1.1143416558     0.7236361203
   10      C      -2.0983065513    -0.8783589732     0.3701472367
   11      C      -2.3394114926     0.6646651177     0.2977247882
   12      C      -3.7337193786     1.0366898785    -0.3476042888
   13      C      -4.4886012161    -0.1689838451    -1.0164165455
   14      O      -5.6353782761    -0.5832604972    -0.7466582292
   15      O       5.9085144859     1.0385716268    -0.3704362440
   16      O      -3.6966985326    -0.6275735231    -2.1223613058
   17      O      -2.9575892502    -1.7808614075     0.2765198224
   18      C      -4.3537213005    -1.7891152793    -2.7609048062
   19      C      -2.5501546650     1.2138140773     1.7775585848
   20      C      -2.5599658950     2.7930596043     1.7330310003
   21      C      -4.0028538803     3.0773356972     1.1707090309
   22      C      -4.5145293305     1.6086869464     0.9081518016
   23      O      -3.9570253024     0.8488686843     2.0536434830
   24      H      -1.4896042521     1.1550322589    -0.2081956839
   25      H      -3.5964313763     1.8164157893    -1.1185389758
   26      H      -1.8706836548     0.7675477383     2.5297583221
   27      H      -2.4284853920     3.2064482528     2.7454686535
   28      H      -1.7627100306     3.1895206328     1.0841332323
   29      H      -4.6356613985     3.5768616997     1.9214915667
   30      H      -3.9924586476     3.6869977051     0.2531924520
   31      H      -5.6124177216     1.4741504051     0.8534326448
   32      O       3.3772784409    -1.3875205001     1.3761056450
   33      C       7.2200142755     0.7040460330     0.2296650213
   34      C       3.1281910508     1.6283434379    -0.7158860186
   35      C       2.2533388664     2.1647428555    -1.9133433556
   36      C       1.0624752060     1.1348646061    -1.8833296856
   37      C       1.4015679490     0.2946378515    -0.5870779529
   38      O       2.1090113419     1.2553875303     0.2902289634
   39      H       3.9497177755     0.2851247007    -2.2703582014
   40      H       2.3163851436    -1.3801282639    -1.7991939343
   41      H       7.8048831809     0.0208449803    -0.4198199770
   42      H       3.8637316254     2.3403463837    -0.2948311399
   43      H       1.9043633151     3.1887851221    -1.7039993763
   44      H       2.7981853439     2.1644662445    -2.8705933360
   45      H       0.0902812960     1.6418532920    -1.7744260624
   46      H       1.0241061348     0.5028583757    -2.7850842708
   47      H       0.5337454748    -0.1692419373    -0.0628824544
   48      H       7.1029192764     0.2273834519     1.2243014854
   49      H       7.7596549373     1.6627826276     0.3387060175
   50      H      -3.7399970409    -2.0423285157    -3.6450175411
   51      H      -5.3887058014    -1.5507732708    -3.0806612745
   52      H      -4.3880338864    -2.6579716262    -2.0718344080
   53      H      -1.0874356372    -3.2069566421     0.8708472236
   54      H      -1.0383874137    -2.3343074730     2.4448498679
   55      H       1.4191430090    -2.0656847862     2.3537657863
   56      H       0.9977429053    -3.7825679538     2.0324420627
 ----------------------------------------------------------------

    9   -1510.2695182876      2.38E-09 Convergence criterion met
 Total energy in the final basis set = -1510.26951829
 Final energy is   -1510.26951828760
 **  OPTIMIZATION CONVERGED  **

                    Orbital Energies (a.u.)
 --------------------------------------------------------------

 Alpha MOs
 -- Occupied --
-18.951 -18.929 -18.925 -18.911 -18.900 -18.891 -18.884 -18.880
-18.870 -18.869 -10.117 -10.098 -10.096 -10.095 -10.085 -10.077
-10.066 -10.060 -10.060 -10.059 -10.054 -10.046 -10.041 -10.038
-10.034 -10.032 -10.024 -10.022 -10.018 -10.017  -1.028  -1.008
 -1.004  -1.001  -0.974  -0.965  -0.955  -0.933  -0.930  -0.927
 -0.768  -0.758  -0.731  -0.722  -0.716  -0.706  -0.698  -0.659
 -0.657  -0.619  -0.599  -0.579  -0.549  -0.541  -0.539  -0.533
 -0.517  -0.512  -0.487  -0.477  -0.464  -0.461  -0.455  -0.448
 -0.434  -0.431  -0.426  -0.416  -0.408  -0.407  -0.406  -0.405
 -0.401  -0.382  -0.378  -0.371  -0.363  -0.359  -0.356  -0.352
 -0.345  -0.344  -0.338  -0.337  -0.331  -0.327  -0.316  -0.315
 -0.311  -0.307  -0.304  -0.298  -0.292  -0.285  -0.283  -0.274
 -0.269  -0.253  -0.250  -0.248  -0.240  -0.238  -0.227  -0.193
 -0.174  -0.171  -0.170  -0.164  -0.156  -0.150  -0.147  -0.144
 -0.139

          Ground-State Mulliken Net Atomic Charges

     Atom                 Charge (a.u.)
  ----------------------------------------
      1 O                    -0.210457
      2 C                     0.212422
      3 C                    -0.080640
      4 C                    -0.077225
      5 C                     0.219860
      6 O                    -0.188516
      7 C                    -0.047942
      8 C                    -0.046717
      9 O                    -0.176797
     10 C                     0.222442
     11 C                    -0.077448
     12 C                    -0.081131
     13 C                     0.215629
     14 O                    -0.213409
     15 O                    -0.173233
     16 O                    -0.177161
     17 O                    -0.196183
     18 C                    -0.128672
     19 C                     0.025368
     20 C                    -0.143694
     21 C                    -0.143330
     22 C                     0.024154
     23 O                    -0.189770
     24 H                     0.089282
     25 H                     0.084230
     26 H                     0.083576
     27 H                     0.079903
     28 H                     0.076070
     29 H                     0.079102
     30 H                     0.073786
     31 H                     0.092140
     32 O                    -0.194273
     33 C                    -0.128149
     34 C                     0.024046
     35 C                    -0.142912
     36 C                    -0.146042
     37 C                     0.001179
     38 O                    -0.196495
     39 H                     0.082025
     40 H                     0.085620
     41 H                     0.087323
     42 H                     0.090002
     43 H                     0.074909
     44 H                     0.072439
     45 H                     0.069882
     46 H                     0.073028
     47 H                     0.107404
     48 H                     0.091973
     49 H                     0.088839
     50 H                     0.087277
     51 H                     0.088457
     52 H                     0.091461
     53 H                     0.096244
     54 H                     0.088278
     55 H                     0.094667
     56 H                     0.087177
  ----------------------------------------
  Sum of atomic charges =     0.000000

                    Cartesian Multipole Moments
 -----------------------------------------------------------------
    Charge (ESU x 10^10)
                 0.0000
    Dipole Moment (Debye)
         X       0.5231      Y       1.9383      Z      -1.6550
       Tot       2.6019
    Quadrupole Moments (Debye-Ang)
        XX    -172.0520     XY       1.2648     YY    -155.6934
        XZ       0.2513     YZ      -1.1894     ZZ    -153.7668

 Total job time:  58.69s(wall), 2794.03s(cpu)
        *  Thank you very much for using Q-Chem.  Have a nice day.  *
