 Q-Chem 5.0, Q-Chem, Inc., Pleasanton, CA (2017)
 Q-Chem 5.0.1 for Intel X86 EM64T Linux

User input:
--------------------------------------------------------------
$molecule
0  1
O -3.94934 -3.66094 2.70899
C -3.26408 -4.56952 2.26188
C -3.36658 -6.02376 2.66595
C -4.60954 -6.44446 3.46714
C -5.69628 -5.40372 3.62187
O -6.03805 -5.28196 4.93861
C -7.45316 -5.27257 5.15454
C -7.98499 -6.70068 5.21597
O -8.46227 -7.10127 3.9219
C -8.78656 -8.41244 3.8002
C -9.41601 -8.74161 2.4675
C -9.61739 -10.24019 2.19922
C -9.50224 -11.14893 3.40655
O -9.92059 -12.29572 3.47299
O -2.25465 -4.2606 1.40543
O -8.30377 -11.01403 4.05072
O -9.20638 -8.95228 4.81924
C -7.81733 -11.79681 5.08478
C -10.86291 -8.22883 2.33121
C -11.2104 -8.07185 0.8523
C -11.28596 -9.52395 0.42533
C -11.10023 -10.21866 1.78018
O -11.66319 -9.32178 2.70685
H -8.78334 -8.26391 1.6847
H -8.94172 -10.63934 1.41094
H -11.04645 -7.27673 2.87565
H -12.2335 -7.63401 0.80679
H -10.51602 -7.43873 0.25906
H -12.30224 -9.71557 0.01501
H -10.51122 -9.84648 -0.30372
H -11.55067 -11.23539 1.75426
O -6.33668 -4.9219 2.69396
C -1.98365 -2.98766 0.94911
C -3.53734 -6.93528 1.4283
C -3.09353 -8.35954 1.7625
C -4.23428 -8.80861 2.64972
C -5.1422 -7.57799 2.57408
O -4.92765 -7.07691 1.27896
H -2.41078 -6.28245 3.17429
H -4.32501 -6.82428 4.4756
H -1.74088 -2.31827 1.80194
H -2.98798 -6.57342 0.53186
H -3.1287 -8.94923 0.8184
H -2.07982 -8.44316 2.20999
H -4.73172 -9.68087 2.16974
H -3.95491 -9.05992 3.69577
H -6.18671 -7.85881 2.82044
H -2.85828 -2.58669 0.39348
H -1.11174 -3.02468 0.26438
H -7.60144 -11.14732 5.95799
H -6.87421 -12.28357 4.76146
H -8.53676 -12.57953 5.40717
H -7.21108 -7.38537 5.63342
H -8.86707 -6.70374 5.89619
H -8.03621 -4.57318 4.51426
H -7.55898 -4.88454 6.19052
$end

$opt
CONSTRAINT
tors           1           2           3           4     +13.703
tors           3           4           5           6    -128.914
tors           4           5           6           7    -133.618
tors           5           6           7           8     +83.817
tors           6           7           8           9     -94.766
tors           7           8           9          10    +171.090
tors           8           9          10          11    +173.958
tors           9          10          11          12    +171.642
tors          11          12          13          14    +162.159
ENDCONSTRAINT
$end

$rem
JOBTYPE                   OPT
METHOD                    B3LYP
DFT_D                     d3_op
BASIS                     STO-3G
GEOM_OPT_MAX_CYCLES       100
GEOM_OPT_TOL_GRADIENT     300
GEOM_OPT_TOL_DISPLACEMENT 1200
GEOM_OPT_TOL_ENERGY       100
SYMMETRY                  False
THRESH                    12
SCF_CONVERGENCE           8
MAX_SUB_FILE_NUM          128
MEM_STATIC                400
MEM_TOTAL                 4000
$end
--------------------------------------------------------------

   16   -1510.0979773458      2.72E-09 Convergence criterion met
 Total energy in the final basis set = -1510.09797735
   14   -1510.1731074246      5.70E-09 Convergence criterion met
 Total energy in the final basis set = -1510.17310742
   14   -1510.2153707758      1.74E-09 Convergence criterion met
 Total energy in the final basis set = -1510.21537078
   14   -1510.2376186442      6.09E-09 Convergence criterion met
 Total energy in the final basis set = -1510.23761864
   14   -1510.2493976867      4.87E-09 Convergence criterion met
 Total energy in the final basis set = -1510.24939769
   13   -1510.2558679896      5.86E-09 Convergence criterion met
 Total energy in the final basis set = -1510.25586799
   13   -1510.2598461769      2.70E-09 Convergence criterion met
 Total energy in the final basis set = -1510.25984618
   13   -1510.2624389183      2.53E-09 Convergence criterion met
   12   -1510.2694845209      1.95E-09 Convergence criterion met
 Total energy in the final basis set = -1510.26948452
   11   -1510.2695460644      6.59E-09 Convergence criterion met
 Total energy in the final basis set = -1510.26954606
   10   -1510.2695691949      8.23E-09 Convergence criterion met
 Total energy in the final basis set = -1510.26956919
    9   -1510.2695884255      9.47E-09 Convergence criterion met
 Total energy in the final basis set = -1510.26958843
    9   -1510.2696040379      6.46E-09 Convergence criterion met
 Total energy in the final basis set = -1510.26960404
    9   -1510.2696074152      4.11E-09 Convergence criterion met
 Total energy in the final basis set = -1510.26960742

             Standard Nuclear Orientation (Angstroms)
    I     Atom           X                Y                Z
 ----------------------------------------------------------------
    1      O       4.9044562427    -1.1126836594    -0.5231836124
    2      C       4.8434512065     0.0019760285     0.0416412002
    3      C       3.7413190897     1.0973919564    -0.1566008609
    4      C       2.4645751204     0.5572785323    -0.9101605293
    5      C       2.3384695111    -1.0095331903    -0.9752236343
    6      O       2.1057580154    -1.4226586973    -2.3513514103
    7      C       0.9995997499    -2.4059150067    -2.3517719845
    8      C      -0.3745487989    -1.6398879863    -2.3573590898
    9      O      -0.8038557363    -1.5343985891    -0.9407747503
   10      C      -1.9438825446    -0.6713738991    -0.8235244351
   11      C      -2.4230163265    -0.7413863955     0.6714253819
   12      C      -3.5435895192     0.3052216067     1.0380768875
   13      C      -3.6066854375     1.6382471612     0.2142025138
   14      O      -4.5893186403     2.4110006841     0.1550904268
   15      O       5.8104923693     0.4826004816     0.9777477690
   16      O      -2.2913162666     1.9909154567    -0.2387904148
   17      O      -2.4900233075    -0.1076094627    -1.7950002982
   18      C      -2.3356824168     3.2579980252    -1.0033562233
   19      C      -3.2735652771    -2.0848642303     0.7825134996
   20      C      -3.7378908442    -2.3195423691     2.2749334288
   21      C      -4.9566151249    -1.3283746437     2.3828218026
   22      C      -4.8556292379    -0.5932922413     0.9907416526
   23      O      -4.5156640845    -1.7019673048     0.0673963957
   24      H      -1.5565067972    -0.7137735424     1.3548196820
   25      H      -3.3803480321     0.6336974240     2.0829674355
   26      H      -2.7958485209    -2.9578344131     0.2963464687
   27      H      -4.0479694597    -3.3658691620     2.4234204352
   28      H      -2.9363344638    -2.0849322220     2.9938089634
   29      H      -5.9113442868    -1.8731751950     2.4591592279
   30      H      -4.8728748848    -0.6348789672     3.2346889981
   31      H      -5.7661702618    -0.0605757283     0.6539058366
   32      O       2.2354261373    -1.7820911004     0.0005306067
   33      C       6.8647806174    -0.5383310790     1.1824604026
   34      C       3.0987910021     1.6556981534     1.1887203068
   35      C       2.4668936506     3.0645585374     0.8606784547
   36      C       1.2171593099     2.6360615575     0.0042727928
   37      C       1.3179409837     1.0623452744     0.0717345750
   38      O       1.9107148512     0.7984213558     1.4033926199
   39      H       4.2043838166     1.9267906785    -0.7235525508
   40      H       2.3722574885     0.9666632112    -1.9304465829
   41      H       7.4129648037    -0.7522826741     0.2421176897
   42      H       3.7742755397     1.6224303032     2.0652715187
   43      H       2.1613845115     3.5727164609     1.7892811654
   44      H       3.1605845593     3.7197453489     0.3102458064
   45      H       0.2744614672     2.9735298815     0.4619765384
   46      H       1.2612810704     3.0070001647    -1.0321608901
   47      H       0.3571410785     0.5228551121    -0.0411242647
   48      H       6.4413545103    -1.4885763967     1.5670295164
   49      H       7.5608975038    -0.1127896521     1.9283706324
   50      H      -2.0724426005     3.0515418618    -2.0596992914
   51      H      -1.5977154367     3.9610380842    -0.5715562370
   52      H      -3.3554988991     3.6891168905    -0.9415521621
   53      H      -0.2515821041    -0.6361577258    -2.8188827038
   54      H      -1.1355107270    -2.1988418926    -2.9458242077
   55      H       1.0534392982    -3.0755342424    -1.4663357514
   56      H       1.1025188660    -3.0048510266    -3.2793769857
 ----------------------------------------------------------------

    8   -1510.2696081097      7.12E-09 Convergence criterion met
 Total energy in the final basis set = -1510.26960811
 Final energy is   -1510.26960810972
 **  OPTIMIZATION CONVERGED  **

                    Orbital Energies (a.u.)
 --------------------------------------------------------------

 Alpha MOs
 -- Occupied --
-18.939 -18.931 -18.930 -18.909 -18.888 -18.887 -18.880 -18.875
-18.873 -18.872 -10.102 -10.100 -10.099 -10.091 -10.070 -10.067
-10.066 -10.060 -10.060 -10.059 -10.058 -10.056 -10.039 -10.038
-10.037 -10.033 -10.021 -10.020 -10.020 -10.019  -1.015  -1.014
 -1.007  -0.997  -0.970  -0.970  -0.940  -0.938  -0.932  -0.924
 -0.763  -0.762  -0.726  -0.722  -0.712  -0.706  -0.694  -0.664
 -0.658  -0.615  -0.598  -0.576  -0.544  -0.544  -0.537  -0.536
 -0.514  -0.511  -0.485  -0.471  -0.460  -0.458  -0.451  -0.448
 -0.435  -0.432  -0.426  -0.415  -0.413  -0.411  -0.408  -0.400
 -0.393  -0.377  -0.375  -0.367  -0.360  -0.358  -0.353  -0.349
 -0.343  -0.340  -0.333  -0.330  -0.329  -0.322  -0.321  -0.313
 -0.312  -0.307  -0.303  -0.300  -0.294  -0.289  -0.277  -0.274
 -0.270  -0.256  -0.254  -0.246  -0.239  -0.234  -0.233  -0.182
 -0.180  -0.170  -0.161  -0.157  -0.156  -0.150  -0.146  -0.144
 -0.141

          Ground-State Mulliken Net Atomic Charges

     Atom                 Charge (a.u.)
  ----------------------------------------
      1 O                    -0.206396
      2 C                     0.212851
      3 C                    -0.079516
      4 C                    -0.080743
      5 C                     0.216755
      6 O                    -0.183455
      7 C                    -0.051586
      8 C                    -0.052349
      9 O                    -0.177715
     10 C                     0.212803
     11 C                    -0.076931
     12 C                    -0.079601
     13 C                     0.216021
     14 O                    -0.216470
     15 O                    -0.170225
     16 O                    -0.172593
     17 O                    -0.209704
     18 C                    -0.135886
     19 C                     0.024603
     20 C                    -0.145255
     21 C                    -0.141739
     22 C                     0.024761
     23 O                    -0.190921
     24 H                     0.091486
     25 H                     0.085339
     26 H                     0.084716
     27 H                     0.078791
     28 H                     0.075683
     29 H                     0.078325
     30 H                     0.073923
     31 H                     0.090162
     32 O                    -0.201106
     33 C                    -0.128114
     34 C                     0.025066
     35 C                    -0.143137
     36 C                    -0.145014
     37 C                     0.024530
     38 O                    -0.187201
     39 H                     0.084626
     40 H                     0.084280
     41 H                     0.089421
     42 H                     0.088748
     43 H                     0.077431
     44 H                     0.073111
     45 H                     0.079925
     46 H                     0.072740
     47 H                     0.086794
     48 H                     0.092844
     49 H                     0.091037
     50 H                     0.086930
     51 H                     0.082364
     52 H                     0.102894
     53 H                     0.091730
     54 H                     0.085740
     55 H                     0.101797
     56 H                     0.087428
  ----------------------------------------
  Sum of atomic charges =     0.000000

                    Cartesian Multipole Moments
 -----------------------------------------------------------------
    Charge (ESU x 10^10)
                -0.0000
    Dipole Moment (Debye)
         X       1.8062      Y       1.4058      Z       0.7207
       Tot       2.3996
    Quadrupole Moments (Debye-Ang)
        XX    -160.5654     XY       9.9915     YY    -154.7776
        XZ      -4.4405     YZ      -1.5276     ZZ    -156.2372

 Total job time:  65.51s(wall), 3119.12s(cpu)
        *  Thank you very much for using Q-Chem.  Have a nice day.  *
