 Q-Chem 5.0, Q-Chem, Inc., Pleasanton, CA (2017)
 Q-Chem 5.0.1 for Intel X86 EM64T Linux

User input:
--------------------------------------------------------------
$molecule
0  1
O 4.9044562427 -1.1126836594 -0.5231836124
C 4.8434512065 0.0019760285 0.0416412002
C 3.7413190897 1.0973919564 -0.1566008609
C 2.4645751204 0.5572785323 -0.9101605293
C 2.3384695111 -1.0095331903 -0.9752236343
O 2.1057580154 -1.4226586973 -2.3513514103
C 0.9995997499 -2.4059150067 -2.3517719845
C -0.3745487989 -1.6398879863 -2.3573590898
O -0.8038557363 -1.5343985891 -0.9407747503
C -1.9438825446 -0.6713738991 -0.8235244351
C -2.4230163265 -0.7413863955 0.6714253819
C -3.5435895192 0.3052216067 1.0380768875
C -3.6066854375 1.6382471612 0.2142025138
O -4.5893186403 2.4110006841 0.1550904268
O 5.8104923693 0.4826004816 0.977747769
O -2.2913162666 1.9909154567 -0.2387904148
O -2.4900233075 -0.1076094627 -1.7950002982
C -2.3356824168 3.2579980252 -1.0033562233
C -3.2735652771 -2.0848642303 0.7825134996
C -3.7378908442 -2.3195423691 2.2749334288
C -4.9566151249 -1.3283746437 2.3828218026
C -4.8556292379 -0.5932922413 0.9907416526
O -4.5156640845 -1.7019673048 0.0673963957
H -1.5565067972 -0.7137735424 1.354819682
H -3.3803480321 0.633697424 2.0829674355
H -2.7958485209 -2.9578344131 0.2963464687
H -4.0479694597 -3.365869162 2.4234204352
H -2.9363344638 -2.084932222 2.9938089634
H -5.9113442868 -1.873175195 2.4591592279
H -4.8728748848 -0.6348789672 3.2346889981
H -5.7661702618 -0.0605757283 0.6539058366
O 2.2354261373 -1.7820911004 0.0005306067
C 6.8647806174 -0.538331079 1.1824604026
C 3.0987910021 1.6556981534 1.1887203068
C 2.4668936506 3.0645585374 0.8606784547
C 1.2171593099 2.6360615575 0.0042727928
C 1.3179409837 1.0623452744 0.071734575
O 1.9107148512 0.7984213558 1.4033926199
H 4.2043838166 1.9267906785 -0.7235525508
H 2.3722574885 0.9666632112 -1.9304465829
H 7.4129648037 -0.7522826741 0.2421176897
H 3.7742755397 1.6224303032 2.0652715187
H 2.1613845115 3.5727164609 1.7892811654
H 3.1605845593 3.7197453489 0.3102458064
H 0.2744614672 2.9735298815 0.4619765384
H 1.2612810704 3.0070001647 -1.0321608901
H 0.3571410785 0.5228551121 -0.0411242647
H 6.4413545103 -1.4885763967 1.5670295164
H 7.5608975038 -0.1127896521 1.9283706324
H -2.0724426005 3.0515418618 -2.0596992914
H -1.5977154367 3.9610380842 -0.571556237
H -3.3554988991 3.6891168905 -0.9415521621
H -0.2515821041 -0.6361577258 -2.8188827038
H -1.135510727 -2.1988418926 -2.9458242077
H 1.0534392982 -3.0755342424 -1.4663357514
H 1.102518866 -3.0048510266 -3.2793769857
$end

$rem
JOBTYPE                   OPT
METHOD                    B3LYP
DFT_D                     d3_op
BASIS                     STO-3G
GEOM_OPT_MAX_CYCLES       100
GEOM_OPT_TOL_GRADIENT     300
GEOM_OPT_TOL_DISPLACEMENT 1200
GEOM_OPT_TOL_ENERGY       100
SYMMETRY                  False
THRESH                    12
SCF_CONVERGENCE           8
MAX_SUB_FILE_NUM          128
MEM_STATIC                400
MEM_TOTAL                 4000
$end
--------------------------------------------------------------

   16   -1510.2693870595      5.63E-09 Convergence criterion met
 Total energy in the final basis set = -1510.26938706
   13   -1510.2734237467      5.70E-09 Convergence criterion met
 Total energy in the final basis set = -1510.27342375
   13   -1510.2761484352      9.74E-09 Convergence criterion met
 Total energy in the final basis set = -1510.27614844
   13   -1510.2798832381      9.99E-09 Convergence criterion met
 Total energy in the final basis set = -1510.27988324
   13   -1510.2833234955      4.75E-09 Convergence criterion met
 Total energy in the final basis set = -1510.28332350
   13   -1510.2858892720      5.86E-09 Convergence criterion met
 Total energy in the final basis set = -1510.28588927
   13   -1510.2878785558      5.10E-09 Convergence criterion met
 Total energy in the final basis set = -1510.28787856
   13   -1510.2892971139      7.55E-09 Convergence criterion met
   12   -1510.2972879810      7.84E-09 Convergence criterion met
 Total energy in the final basis set = -1510.29728798
   12   -1510.2972852028      8.22E-09 Convergence criterion met
 Total energy in the final basis set = -1510.29728520
   13   -1510.2973561998      2.77E-09 Convergence criterion met
 Total energy in the final basis set = -1510.29735620
   12   -1510.2974128001      6.43E-09 Convergence criterion met
 Total energy in the final basis set = -1510.29741280
   11   -1510.2974211087      9.48E-09 Convergence criterion met
 Total energy in the final basis set = -1510.29742111
   11   -1510.2974352341      2.54E-09 Convergence criterion met
 Total energy in the final basis set = -1510.29743523

             Standard Nuclear Orientation (Angstroms)
    I     Atom           X                Y                Z
 ----------------------------------------------------------------
    1      O       3.6287879407    -1.3722113756     0.0534223110
    2      C       3.9869674168    -0.2101561801     0.3528508249
    3      C       3.3298797942     1.1290508326    -0.1197584235
    4      C       1.9317258025     0.9179395827    -0.8314503796
    5      C       1.3895291997    -0.5505412657    -0.6987838627
    6      O       1.5334745968    -1.1957259462    -1.9756596973
    7      C       1.1079662377    -2.6125452441    -1.9037325688
    8      C      -0.4392446527    -2.8095134920    -2.1372312950
    9      O      -1.2009395181    -2.6008922202    -0.8828882174
   10      C      -1.6848909880    -1.2600847855    -0.8053436625
   11      C      -2.2675152940    -1.0174689685     0.6250828373
   12      C      -3.0199410974     0.3691232340     0.7502989235
   13      C      -3.0257445486     1.2223796761    -0.5685294078
   14      O      -3.9391386827     1.3009576669    -1.4168513218
   15      O       5.1088569858     0.0881440401     1.1850918382
   16      O      -1.8533106288     2.0668510407    -0.5687117475
   17      O      -1.6397346930    -0.4340270739    -1.7464880408
   18      C      -1.7822661699     2.8376452337    -1.8296454590
   19      C      -3.4355644503    -2.0331956760     0.9744028917
   20      C      -3.7207625012    -1.9550063731     2.5258761561
   21      C      -4.4891052850    -0.5845976424     2.6253985566
   22      C      -4.4840793433    -0.1226792652     1.1163697353
   23      O      -4.6229367430    -1.3918244859     0.3642918588
   24      H      -1.4235004208    -1.0937791305     1.3357655701
   25      H      -2.5737373973     0.9829244594     1.5527529106
   26      H      -3.2835773657    -3.0515226084     0.5670858390
   27      H      -4.3535734436    -2.7986290393     2.8442318501
   28      H      -2.7916861527    -1.9662241477     3.1178176038
   29      H      -5.5220302420    -0.7262141722     2.9812426311
   30      H      -3.9846262259     0.1401077329     3.2840829775
   31      H      -5.2860412157     0.5837369210     0.8274614602
   32      O       0.8332752977    -1.0660245966     0.2946277864
   33      C       5.7523666589    -1.1684940604     1.6356776347
   34      C       2.9224455116     2.0974007979     1.0781101502
   35      C       2.7725728954     3.5512210375     0.4851521116
   36      C       1.4414714353     3.3947681759    -0.3376934070
   37      C       1.0225641105     1.9098009910     0.0080999429
   38      O       1.5281958556     1.7113954623     1.3880817557
   39      H       4.0463154708     1.6327810561    -0.7947713836
   40      H       1.9773701248     1.1778669952    -1.9031378983
   41      H       6.1513290315    -1.7508624390     0.7800545407
   42      H       3.5692656787     2.0074684387     1.9723863021
   43      H       2.6603210967     4.2853188488     1.2990423752
   44      H       3.6333500590     3.8426185833    -0.1376263703
   45      H       0.6680512555     4.1001725691     0.0046668748
   46      H       1.5927309045     3.5376841933    -1.4195768206
   47      H      -0.0760024597     1.7254481376    -0.0612557742
   48      H       5.0437256915    -1.8096980991     2.1984934697
   49      H       6.5843836975    -0.8645475686     2.2969818477
   50      H      -0.9988292702     2.4066987321    -2.4848701642
   51      H      -1.5225193873     3.8845188337    -1.5827839416
   52      H      -2.7629028166     2.7881385531    -2.3439902392
   53      H      -0.7954905097    -2.1057492397    -2.9201124386
   54      H      -0.6315179164    -3.8561452780    -2.4504207345
   55      H       1.3886082041    -3.0574077428    -0.9250270625
   56      H       1.6575310260    -3.1296234765    -2.7171122916
 ----------------------------------------------------------------

   10   -1510.2974350522      7.96E-09 Convergence criterion met
 Total energy in the final basis set = -1510.29743505
 Final energy is   -1510.29743505225
 **  OPTIMIZATION CONVERGED  **

                    Orbital Energies (a.u.)
 --------------------------------------------------------------

 Alpha MOs
 -- Occupied --
-18.942 -18.935 -18.925 -18.921 -18.883 -18.882 -18.879 -18.878
-18.865 -18.859 -10.104 -10.103 -10.093 -10.091 -10.069 -10.069
-10.066 -10.055 -10.054 -10.053 -10.051 -10.038 -10.036 -10.032
-10.030 -10.028 -10.015 -10.015 -10.014 -10.011  -1.018  -1.016
 -1.000  -0.996  -0.965  -0.961  -0.942  -0.939  -0.927  -0.925
 -0.758  -0.757  -0.722  -0.717  -0.710  -0.700  -0.691  -0.664
 -0.653  -0.615  -0.593  -0.574  -0.541  -0.539  -0.532  -0.529
 -0.508  -0.506  -0.481  -0.473  -0.455  -0.453  -0.448  -0.446
 -0.428  -0.426  -0.426  -0.415  -0.413  -0.406  -0.404  -0.400
 -0.393  -0.377  -0.374  -0.363  -0.357  -0.352  -0.349  -0.345
 -0.345  -0.335  -0.329  -0.327  -0.324  -0.320  -0.319  -0.310
 -0.309  -0.300  -0.300  -0.296  -0.294  -0.277  -0.276  -0.271
 -0.270  -0.257  -0.249  -0.242  -0.238  -0.229  -0.224  -0.187
 -0.182  -0.166  -0.160  -0.158  -0.155  -0.147  -0.141  -0.139
 -0.136

          Ground-State Mulliken Net Atomic Charges

     Atom                 Charge (a.u.)
  ----------------------------------------
      1 O                    -0.210460
      2 C                     0.213100
      3 C                    -0.079459
      4 C                    -0.081470
      5 C                     0.216909
      6 O                    -0.174586
      7 C                    -0.050789
      8 C                    -0.054159
      9 O                    -0.168575
     10 C                     0.221408
     11 C                    -0.078906
     12 C                    -0.081890
     13 C                     0.221083
     14 O                    -0.214670
     15 O                    -0.168797
     16 O                    -0.176109
     17 O                    -0.214067
     18 C                    -0.133879
     19 C                     0.024499
     20 C                    -0.143667
     21 C                    -0.144039
     22 C                     0.025348
     23 O                    -0.189940
     24 H                     0.102545
     25 H                     0.087402
     26 H                     0.087733
     27 H                     0.077176
     28 H                     0.075876
     29 H                     0.077105
     30 H                     0.073958
     31 H                     0.086600
     32 O                    -0.223954
     33 C                    -0.128000
     34 C                     0.024758
     35 C                    -0.143548
     36 C                    -0.145764
     37 C                     0.009940
     38 O                    -0.191810
     39 H                     0.084977
     40 H                     0.083595
     41 H                     0.089293
     42 H                     0.085269
     43 H                     0.076146
     44 H                     0.071247
     45 H                     0.074907
     46 H                     0.069573
     47 H                     0.107600
     48 H                     0.092336
     49 H                     0.091861
     50 H                     0.085159
     51 H                     0.082573
     52 H                     0.102518
     53 H                     0.100552
     54 H                     0.088361
     55 H                     0.099744
     56 H                     0.087386
  ----------------------------------------
  Sum of atomic charges =     0.000000

                    Cartesian Multipole Moments
 -----------------------------------------------------------------
    Charge (ESU x 10^10)
                 0.0000
    Dipole Moment (Debye)
         X       3.1492      Y       0.2130      Z       0.5004
       Tot       3.1958
    Quadrupole Moments (Debye-Ang)
        XX    -157.4476     XY      -1.1987     YY    -149.5499
        XZ      -7.2851     YZ      -0.5085     ZZ    -156.1392

 Total job time:  89.06s(wall), 4245.08s(cpu)
        *  Thank you very much for using Q-Chem.  Have a nice day.  *
