 Q-Chem 5.0, Q-Chem, Inc., Pleasanton, CA (2017)
 Q-Chem 5.0.1 for Intel X86 EM64T Linux

User input:
--------------------------------------------------------------
$molecule
0  1
O 4.8284422706 -1.4621494862 0.7246222112
C 4.5666951599 -0.3459994452 0.2241329359
C 3.9067602419 -0.0959570528 -1.1825721009
C 2.4221604613 -0.6574591096 -1.26307638
C 1.9187798416 -1.280271943 0.0817190823
O 1.5328601709 -2.6382782954 -0.1861754388
C 0.8680173669 -3.2335243945 0.9948174491
C -0.649753755 -2.8271896771 1.0524980223
O -0.7139084451 -1.3571411158 0.871692618
C -2.0661218127 -0.9276936566 0.7054260853
C -2.0693960793 0.6303651096 0.5441255786
C -3.3972643314 1.1547460955 -0.13079979
C -4.2565343644 0.0513151951 -0.8447766554
O -5.4952205904 -0.0963339415 -0.7853094424
O 4.8275125667 0.8988714807 0.8746548036
O -3.4029799048 -0.6539886754 -1.7603269381
O -3.057471026 -1.6896639345 0.7418512745
C -4.1720037449 -1.7117420645 -2.4512553187
C -2.2196961913 1.2758058768 1.9915267191
C -2.0760356997 2.8459047958 1.8800594184
C -3.4926790859 3.2492809568 1.3231091552
C -4.1367978674 1.8265078835 1.099913555
O -3.6574641576 1.0603220039 2.2752352736
H -1.1521860381 0.9586647952 0.0258708683
H -3.1531859694 1.9149918334 -0.8962614917
H -1.5901115842 0.7998552686 2.7684345609
H -1.8871371566 3.2876062113 2.8711103682
H -1.2549652434 3.1338868973 1.2039203058
H -4.0698568554 3.8190347694 2.0688600789
H -3.4375194962 3.8364519673 0.3925809346
H -5.2419538108 1.7922928836 1.0348835926
O 1.9121286453 -0.7458224263 1.2110151922
C 5.3827917707 0.6514670465 2.2252043865
C 3.6647453665 1.4336526945 -1.5227100392
C 3.368038875 1.5590109579 -3.0700497164
C 1.8969356779 1.0056616283 -3.1462595838
C 1.6230113518 0.6669318218 -1.628206235
O 2.3536643682 1.723574648 -0.8944530624
H 4.5413950393 -0.5869200994 -1.9429046313
H 2.321920072 -1.4235415752 -2.0517020846
H 6.3407758475 0.094194487 2.1776240363
H 4.4409478636 2.1166782418 -1.1291488509
H 3.4201772022 2.6128673815 -3.3866826576
H 4.075265149 0.9722110849 -3.6777816646
H 1.1926261255 1.7743215671 -3.5025234206
H 1.8073890462 0.1174295396 -3.7915328394
H 0.5560858217 0.6517225256 -1.3320297966
H 4.671092927 0.078931495 2.8541957092
H 5.5540467674 1.6483859402 2.6709465371
H -3.4871932067 -2.1516248466 -3.1995573327
H -5.0680028129 -1.3017299255 -2.960462634
H -4.4992668864 -2.4987547895 -1.7408584664
H -1.2230006676 -3.3366816083 0.247789546
H -1.0856084617 -3.1295246824 2.03041651
H 1.3761097153 -2.9003669248 1.9250821906
H 0.956226479 -4.3334591101 0.8906237659
$end

$rem
JOBTYPE                   OPT
METHOD                    B3LYP
DFT_D                     d3_op
BASIS                     STO-3G
GEOM_OPT_MAX_CYCLES       100
GEOM_OPT_TOL_GRADIENT     300
GEOM_OPT_TOL_DISPLACEMENT 1200
GEOM_OPT_TOL_ENERGY       100
SYMMETRY                  False
THRESH                    12
SCF_CONVERGENCE           8
MAX_SUB_FILE_NUM          128
MEM_STATIC                400
MEM_TOTAL                 4000
$end
--------------------------------------------------------------

   16   -1510.2828255011      6.06E-09 Convergence criterion met
 Total energy in the final basis set = -1510.28282550
   13   -1510.2841652837      6.11E-09 Convergence criterion met
 Total energy in the final basis set = -1510.28416528
   13   -1510.2852465910      8.99E-09 Convergence criterion met
 Total energy in the final basis set = -1510.28524659
   14   -1510.2862857948      1.62E-09 Convergence criterion met
 Total energy in the final basis set = -1510.28628579
   14   -1510.2877628385      2.13E-09 Convergence criterion met
 Total energy in the final basis set = -1510.28776284
   15   -1510.2864461940      7.43E-09 Convergence criterion met
 Total energy in the final basis set = -1510.28644619
   14   -1510.2898490808      5.61E-09 Convergence criterion met
 Total energy in the final basis set = -1510.28984908
   14   -1510.2918624480      3.29E-09 Convergence criterion met
   12   -1510.3071069075      4.83E-09 Convergence criterion met
 Total energy in the final basis set = -1510.30710691
   11   -1510.3071389214      8.38E-09 Convergence criterion met
 Total energy in the final basis set = -1510.30713892
   11   -1510.3071553413      7.55E-09 Convergence criterion met
 Total energy in the final basis set = -1510.30715534
   10   -1510.3071464964      6.18E-09 Convergence criterion met
 Total energy in the final basis set = -1510.30714650
   10   -1510.3071476209      6.04E-09 Convergence criterion met
 Total energy in the final basis set = -1510.30714762
    9   -1510.3071491271      9.25E-09 Convergence criterion met
 Total energy in the final basis set = -1510.30714913

             Standard Nuclear Orientation (Angstroms)
    I     Atom           X                Y                Z
 ----------------------------------------------------------------
    1      O       4.3318010608     0.6218346076     1.1422451744
    2      C       3.2520673492     0.6021527880     0.5147358875
    3      C       3.0496671804     0.2905988534    -1.0107564846
    4      C       2.0919024527    -0.9453702751    -1.2783177572
    5      C       1.7786596142    -1.7622837132     0.0240695403
    6      O       0.5616246825    -2.4963161304    -0.1511643715
    7      C       0.3040358935    -3.3646258111     1.0241624177
    8      C      -0.0327366376    -2.5371837424     2.3425938154
    9      O      -0.0724997739    -1.0843619233     2.0728462558
   10      C      -1.1844034231    -0.7713914675     1.2237447571
   11      C      -1.0560678953     0.7122493406     0.7743813488
   12      C      -1.9939797923     1.0611699517    -0.4494668320
   13      C      -2.8269743288    -0.1560138923    -0.9868114077
   14      O      -4.0570584746    -0.3454729935    -0.9030186709
   15      O       1.9805795908     0.9444887912     1.0918524472
   16      O      -1.9400433109    -1.0080130710    -1.7454139748
   17      O      -2.0801546279    -1.5926527131     0.9220031370
   18      C      -2.6349463405    -2.2449934749    -2.1538924820
   19      C      -1.6132263117     1.7165062096     1.8716413243
   20      C      -1.1173239510     3.1674982445     1.4904919540
   21      C      -2.0747744081     3.5081988530     0.2876493462
   22      C      -2.9196840261     2.1780784538     0.1844541583
   23      O      -3.0667675237     1.7533686090     1.5969464038
   24      H       0.0103188357     0.9096244946     0.5266805682
   25      H      -1.3708486244     1.4562264482    -1.2731245964
   26      H      -1.4231096533     1.4096430928     2.9186842691
   27      H      -1.2602916200     3.8622387342     2.3334186539
   28      H      -0.0545457649     3.1704367778     1.2000352254
   29      H      -2.7278093425     4.3643152786     0.5212143554
   30      H      -1.5255964347     3.7227781390    -0.6429599117
   31      H      -3.9142394196     2.2730238865    -0.2928077276
   32      O       2.5021460300    -1.8424227137     1.0417912030
   33      C       2.1213103142     1.1056832967     2.5550585854
   34      C       2.2407597605     1.4428283754    -1.7428329671
   35      C       2.3131213380     1.2034347809    -3.3038835327
   36      C       1.2726621756     0.0350647139    -3.4840044758
   37      C       0.8547970189    -0.2419622077    -1.9875517753
   38      O       0.8378231944     1.1220477289    -1.4064528536
   39      H       4.0480071397     0.1362192787    -1.4556060492
   40      H       2.5701453790    -1.6525329089    -1.9823281819
   41      H       2.8575829510     1.8947196135     2.8109935943
   42      H       2.4973848642     2.4673128519    -1.4097900289
   43      H       2.0051207892     2.1101274429    -3.8483055006
   44      H       3.3278129277     0.9239023480    -3.6298344184
   45      H       0.3976717306     0.3653431293    -4.0664537697
   46      H       1.7061978078    -0.8523231649    -3.9721871297
   47      H      -0.1446327315    -0.7237057881    -1.8458504200
   48      H       2.4361207228     0.1538100806     3.0285999846
   49      H       1.1219916444     1.3891918337     2.9303024296
   50      H      -1.9141805536    -2.8165058645    -2.7671901549
   51      H      -3.5439378759    -2.0254227278    -2.7504346603
   52      H      -2.9268879319    -2.8439238960    -1.2668034972
   53      H      -0.9983646248    -2.8911517664     2.7624842085
   54      H       0.7705874320    -2.6684350966     3.0928141187
   55      H       1.1758773773    -4.0253110130     1.2163204015
   56      H      -0.5675782667    -3.9797206610     0.7277335652
 ----------------------------------------------------------------

    9   -1510.3071490263      2.20E-09 Convergence criterion met
 Total energy in the final basis set = -1510.30714903
 Final energy is   -1510.30714902627
 **  OPTIMIZATION CONVERGED  **

                    Orbital Energies (a.u.)
 --------------------------------------------------------------

 Alpha MOs
 -- Occupied --
-18.944 -18.936 -18.929 -18.926 -18.890 -18.882 -18.878 -18.877
-18.870 -18.865 -10.107 -10.098 -10.096 -10.091 -10.078 -10.075
-10.063 -10.058 -10.058 -10.052 -10.049 -10.044 -10.039 -10.037
-10.021 -10.021 -10.017 -10.017 -10.012 -10.011  -1.026  -1.010
 -1.004  -0.999  -0.972  -0.961  -0.944  -0.937  -0.931  -0.927
 -0.764  -0.753  -0.726  -0.719  -0.710  -0.702  -0.691  -0.656
 -0.655  -0.621  -0.596  -0.577  -0.545  -0.538  -0.538  -0.530
 -0.513  -0.502  -0.483  -0.476  -0.466  -0.458  -0.444  -0.441
 -0.428  -0.427  -0.421  -0.418  -0.410  -0.407  -0.405  -0.403
 -0.393  -0.378  -0.371  -0.367  -0.361  -0.355  -0.348  -0.343
 -0.343  -0.342  -0.331  -0.329  -0.324  -0.322  -0.317  -0.313
 -0.305  -0.303  -0.299  -0.296  -0.292  -0.285  -0.278  -0.273
 -0.268  -0.260  -0.249  -0.246  -0.244  -0.235  -0.221  -0.196
 -0.173  -0.172  -0.168  -0.161  -0.154  -0.147  -0.147  -0.141
 -0.136

          Ground-State Mulliken Net Atomic Charges

     Atom                 Charge (a.u.)
  ----------------------------------------
      1 O                    -0.211656
      2 C                     0.214196
      3 C                    -0.080402
      4 C                    -0.080259
      5 C                     0.214606
      6 O                    -0.167730
      7 C                    -0.050821
      8 C                    -0.050306
      9 O                    -0.171031
     10 C                     0.213013
     11 C                    -0.093007
     12 C                    -0.085237
     13 C                     0.219699
     14 O                    -0.211432
     15 O                    -0.173417
     16 O                    -0.178336
     17 O                    -0.214080
     18 C                    -0.125983
     19 C                     0.023468
     20 C                    -0.144038
     21 C                    -0.143077
     22 C                     0.024328
     23 O                    -0.191236
     24 H                     0.119957
     25 H                     0.095395
     26 H                     0.078055
     27 H                     0.074151
     28 H                     0.077458
     29 H                     0.075239
     30 H                     0.074413
     31 H                     0.086234
     32 O                    -0.212422
     33 C                    -0.126040
     34 C                     0.026068
     35 C                    -0.144937
     36 C                    -0.144177
     37 C                     0.005862
     38 O                    -0.195927
     39 H                     0.084809
     40 H                     0.084606
     41 H                     0.086518
     42 H                     0.081394
     43 H                     0.076556
     44 H                     0.073399
     45 H                     0.076473
     46 H                     0.071396
     47 H                     0.117024
     48 H                     0.093871
     49 H                     0.089770
     50 H                     0.086627
     51 H                     0.088719
     52 H                     0.093551
     53 H                     0.090789
     54 H                     0.094377
     55 H                     0.088702
     56 H                     0.094830
  ----------------------------------------
  Sum of atomic charges =    -0.000000

                    Cartesian Multipole Moments
 -----------------------------------------------------------------
    Charge (ESU x 10^10)
                -0.0000
    Dipole Moment (Debye)
         X       1.7454      Y      -0.7749      Z      -1.6659
       Tot       2.5342
    Quadrupole Moments (Debye-Ang)
        XX    -182.6445     XY       0.7070     YY    -146.3771
        XZ      -3.3353     YZ      -0.8686     ZZ    -150.2119

 Total job time:  181.25s(wall), 8647.65s(cpu)
        *  Thank you very much for using Q-Chem.  Have a nice day.  *
