 Q-Chem 5.0, Q-Chem, Inc., Pleasanton, CA (2017)
 Q-Chem 5.0.1 for Intel X86 EM64T Linux

User input:
--------------------------------------------------------------
$molecule
0  1
O -3.94934 -3.66094 2.70899
C -3.26408 -4.56952 2.26188
C -3.36658 -6.02376 2.66595
C -4.68014 -6.7529 2.33918
C -5.67643 -5.99827 1.48711
O -6.86822 -5.89707 2.14652
C -7.91643 -5.35618 1.33538
C -8.52448 -6.45026 0.46395
O -7.48292 -7.17794 -0.20576
C -7.88186 -8.29527 -0.8627
C -6.74662 -9.00233 -1.5641
C -7.01506 -10.47472 -1.90805
C -8.46257 -10.91733 -1.83384
O -9.03353 -11.61537 -2.65925
O -2.33644 -4.2564 1.31677
O -9.03016 -10.83383 -0.59835
O -9.03475 -8.37205 -1.2737
C -10.28361 -11.31224 -0.27644
C -6.44763 -8.43881 -2.96903
C -4.99712 -8.74252 -3.33837
C -5.06366 -10.24582 -3.52256
C -6.57566 -10.47253 -3.38515
O -7.14973 -9.27682 -3.85442
H -5.83448 -8.88213 -0.94755
H -6.43137 -11.1646 -1.25977
H -6.65063 -7.34921 -3.06003
H -4.81723 -8.26904 -4.33045
H -4.22558 -8.38717 -2.6216
H -4.70669 -10.48857 -4.54788
H -4.50353 -10.84145 -2.76931
H -6.87302 -11.40024 -3.92125
O -5.42491 -5.53307 0.38014
C -2.12001 -2.98662 0.8236
C -2.36721 -6.94768 1.92684
C -2.13355 -8.22589 2.73326
C -3.44234 -8.94712 2.50323
C -4.14091 -7.96151 1.56326
O -3.08759 -7.41179 0.8111
H -3.13851 -6.04697 3.75503
H -5.19218 -7.08543 3.27203
H -1.8132 -2.30407 1.64473
H -1.38607 -6.46999 1.71601
H -1.32229 -8.80109 2.23207
H -1.86247 -8.05763 3.79774
H -3.23135 -9.8956 1.96026
H -4.03584 -9.16093 3.41831
H -4.93843 -8.48233 1.0017
H -3.04319 -2.60213 0.33955
H -1.30908 -3.0236 0.06765
H -10.48877 -11.10231 0.79326
H -10.32949 -12.41008 -0.44036
H -11.05536 -10.80644 -0.89516
H -9.05195 -7.14962 1.15275
H -9.25966 -6.01895 -0.25084
H -7.56031 -4.49798 0.72064
H -8.71735 -4.95275 1.99064
$end

$opt
CONSTRAINT
tors           1           2           3           4     +64.425
tors           3           4           5           6    -122.819
tors           4           5           6           7    -172.019
tors           5           6           7           8     +82.229
tors           6           7           8           9     -49.287
tors           7           8           9          10    +171.090
tors           8           9          10          11    +179.054
tors           9          10          11          12    +160.169
tors          11          12          13          14    +136.008
ENDCONSTRAINT
$end

$rem
JOBTYPE                   OPT
METHOD                    B3LYP
DFT_D                     d3_op
BASIS                     STO-3G
GEOM_OPT_MAX_CYCLES       100
GEOM_OPT_TOL_GRADIENT     300
GEOM_OPT_TOL_DISPLACEMENT 1200
GEOM_OPT_TOL_ENERGY       100
SYMMETRY                  False
THRESH                    12
SCF_CONVERGENCE           8
MAX_SUB_FILE_NUM          128
MEM_STATIC                400
MEM_TOTAL                 4000
$end
--------------------------------------------------------------

   15   -1510.1434832852      9.56E-09 Convergence criterion met
 Total energy in the final basis set = -1510.14348329
   14   -1510.2136398815      6.62E-09 Convergence criterion met
 Total energy in the final basis set = -1510.21363988
   14   -1510.2514417509      8.31E-09 Convergence criterion met
 Total energy in the final basis set = -1510.25144175
   14   -1510.2687425225      6.64E-09 Convergence criterion met
 Total energy in the final basis set = -1510.26874252
   13   -1510.2749846398      8.66E-09 Convergence criterion met
 Total energy in the final basis set = -1510.27498464
   13   -1510.2775496712      6.05E-09 Convergence criterion met
 Total energy in the final basis set = -1510.27754967
   13   -1510.2789916472      2.57E-09 Convergence criterion met
 Total energy in the final basis set = -1510.27899165
   13   -1510.2799959384      2.23E-09 Convergence criterion met
   12   -1510.2827901469      4.14E-09 Convergence criterion met
 Total energy in the final basis set = -1510.28279015
   11   -1510.2828250420      5.84E-09 Convergence criterion met
 Total energy in the final basis set = -1510.28282504
   10   -1510.2828533497      6.31E-09 Convergence criterion met
 Total energy in the final basis set = -1510.28285335
    9   -1510.2828780941      9.94E-09 Convergence criterion met
 Total energy in the final basis set = -1510.28287809
    9   -1510.2828883449      7.37E-09 Convergence criterion met
 Total energy in the final basis set = -1510.28288834
    9   -1510.2828927469      4.46E-09 Convergence criterion met
 Total energy in the final basis set = -1510.28289275

             Standard Nuclear Orientation (Angstroms)
    I     Atom           X                Y                Z
 ----------------------------------------------------------------
    1      O       4.8284422706    -1.4621494862     0.7246222112
    2      C       4.5666951599    -0.3459994452     0.2241329359
    3      C       3.9067602419    -0.0959570528    -1.1825721009
    4      C       2.4221604613    -0.6574591096    -1.2630763800
    5      C       1.9187798416    -1.2802719430     0.0817190823
    6      O       1.5328601709    -2.6382782954    -0.1861754388
    7      C       0.8680173669    -3.2335243945     0.9948174491
    8      C      -0.6497537550    -2.8271896771     1.0524980223
    9      O      -0.7139084451    -1.3571411158     0.8716926180
   10      C      -2.0661218127    -0.9276936566     0.7054260853
   11      C      -2.0693960793     0.6303651096     0.5441255786
   12      C      -3.3972643314     1.1547460955    -0.1307997900
   13      C      -4.2565343644     0.0513151951    -0.8447766554
   14      O      -5.4952205904    -0.0963339415    -0.7853094424
   15      O       4.8275125667     0.8988714807     0.8746548036
   16      O      -3.4029799048    -0.6539886754    -1.7603269381
   17      O      -3.0574710260    -1.6896639345     0.7418512745
   18      C      -4.1720037449    -1.7117420645    -2.4512553187
   19      C      -2.2196961913     1.2758058768     1.9915267191
   20      C      -2.0760356997     2.8459047958     1.8800594184
   21      C      -3.4926790859     3.2492809568     1.3231091552
   22      C      -4.1367978674     1.8265078835     1.0999135550
   23      O      -3.6574641576     1.0603220039     2.2752352736
   24      H      -1.1521860381     0.9586647952     0.0258708683
   25      H      -3.1531859694     1.9149918334    -0.8962614917
   26      H      -1.5901115842     0.7998552686     2.7684345609
   27      H      -1.8871371566     3.2876062113     2.8711103682
   28      H      -1.2549652434     3.1338868973     1.2039203058
   29      H      -4.0698568554     3.8190347694     2.0688600789
   30      H      -3.4375194962     3.8364519673     0.3925809346
   31      H      -5.2419538108     1.7922928836     1.0348835926
   32      O       1.9121286453    -0.7458224263     1.2110151922
   33      C       5.3827917707     0.6514670465     2.2252043865
   34      C       3.6647453665     1.4336526945    -1.5227100392
   35      C       3.3680388750     1.5590109579    -3.0700497164
   36      C       1.8969356779     1.0056616283    -3.1462595838
   37      C       1.6230113518     0.6669318218    -1.6282062350
   38      O       2.3536643682     1.7235746480    -0.8944530624
   39      H       4.5413950393    -0.5869200994    -1.9429046313
   40      H       2.3219200720    -1.4235415752    -2.0517020846
   41      H       6.3407758475     0.0941944870     2.1776240363
   42      H       4.4409478636     2.1166782418    -1.1291488509
   43      H       3.4201772022     2.6128673815    -3.3866826576
   44      H       4.0752651490     0.9722110849    -3.6777816646
   45      H       1.1926261255     1.7743215671    -3.5025234206
   46      H       1.8073890462     0.1174295396    -3.7915328394
   47      H       0.5560858217     0.6517225256    -1.3320297966
   48      H       4.6710929270     0.0789314950     2.8541957092
   49      H       5.5540467674     1.6483859402     2.6709465371
   50      H      -3.4871932067    -2.1516248466    -3.1995573327
   51      H      -5.0680028129    -1.3017299255    -2.9604626340
   52      H      -4.4992668864    -2.4987547895    -1.7408584664
   53      H      -1.2230006676    -3.3366816083     0.2477895460
   54      H      -1.0856084617    -3.1295246824     2.0304165100
   55      H       1.3761097153    -2.9003669248     1.9250821906
   56      H       0.9562264790    -4.3334591101     0.8906237659
 ----------------------------------------------------------------

    9   -1510.2828929384      3.11E-09 Convergence criterion met
 Total energy in the final basis set = -1510.28289294
 Final energy is   -1510.28289293844
 **  OPTIMIZATION CONVERGED  **

                    Orbital Energies (a.u.)
 --------------------------------------------------------------

 Alpha MOs
 -- Occupied --
-18.937 -18.934 -18.932 -18.924 -18.888 -18.884 -18.877 -18.873
-18.868 -18.868 -10.101 -10.098 -10.096 -10.094 -10.077 -10.075
-10.061 -10.061 -10.058 -10.058 -10.058 -10.054 -10.037 -10.037
-10.036 -10.033 -10.021 -10.020 -10.017 -10.016  -1.019  -1.010
 -1.005  -1.001  -0.970  -0.967  -0.940  -0.934  -0.931  -0.929
 -0.763  -0.761  -0.728  -0.721  -0.714  -0.704  -0.697  -0.658
 -0.657  -0.619  -0.597  -0.577  -0.546  -0.542  -0.537  -0.534
 -0.512  -0.509  -0.485  -0.477  -0.465  -0.456  -0.451  -0.446
 -0.433  -0.429  -0.425  -0.414  -0.410  -0.408  -0.405  -0.403
 -0.393  -0.379  -0.374  -0.365  -0.362  -0.356  -0.352  -0.348
 -0.343  -0.341  -0.336  -0.332  -0.328  -0.323  -0.322  -0.309
 -0.307  -0.304  -0.301  -0.296  -0.291  -0.286  -0.281  -0.275
 -0.269  -0.255  -0.253  -0.248  -0.246  -0.234  -0.231  -0.182
 -0.176  -0.172  -0.168  -0.157  -0.153  -0.147  -0.146  -0.143
 -0.141

          Ground-State Mulliken Net Atomic Charges

     Atom                 Charge (a.u.)
  ----------------------------------------
      1 O                    -0.218525
      2 C                     0.210428
      3 C                    -0.078636
      4 C                    -0.079150
      5 C                     0.215587
      6 O                    -0.171375
      7 C                    -0.049025
      8 C                    -0.047931
      9 O                    -0.172906
     10 C                     0.216312
     11 C                    -0.076394
     12 C                    -0.080319
     13 C                     0.216007
     14 O                    -0.213572
     15 O                    -0.165609
     16 O                    -0.177582
     17 O                    -0.210945
     18 C                    -0.128832
     19 C                     0.025587
     20 C                    -0.144474
     21 C                    -0.142860
     22 C                     0.023970
     23 O                    -0.190118
     24 H                     0.086147
     25 H                     0.083249
     26 H                     0.085325
     27 H                     0.078601
     28 H                     0.076653
     29 H                     0.077856
     30 H                     0.072787
     31 H                     0.091079
     32 O                    -0.209230
     33 C                    -0.126914
     34 C                     0.024524
     35 C                    -0.144422
     36 C                    -0.143763
     37 C                     0.026197
     38 O                    -0.187623
     39 H                     0.083915
     40 H                     0.086278
     41 H                     0.087556
     42 H                     0.091373
     43 H                     0.077416
     44 H                     0.073026
     45 H                     0.077111
     46 H                     0.074188
     47 H                     0.080488
     48 H                     0.093746
     49 H                     0.090544
     50 H                     0.086430
     51 H                     0.088686
     52 H                     0.090908
     53 H                     0.089770
     54 H                     0.089110
     55 H                     0.097661
     56 H                     0.091689
  ----------------------------------------
  Sum of atomic charges =     0.000000

                    Cartesian Multipole Moments
 -----------------------------------------------------------------
    Charge (ESU x 10^10)
                -0.0000
    Dipole Moment (Debye)
         X       2.2899      Y       0.3464      Z      -2.1227
       Tot       3.1416
    Quadrupole Moments (Debye-Ang)
        XX    -171.8619     XY       0.6641     YY    -152.3787
        XZ       3.4779     YZ       0.4341     ZZ    -151.6878

 Total job time:  57.18s(wall), 2722.33s(cpu)
        *  Thank you very much for using Q-Chem.  Have a nice day.  *
