 Q-Chem 5.0, Q-Chem, Inc., Pleasanton, CA (2017)
 Q-Chem 5.0.1 for Intel X86 EM64T Linux

User input:
--------------------------------------------------------------
$molecule
0  1
O -3.94934 -3.66094 2.70899
C -3.26408 -4.56952 2.26188
C -3.36658 -6.02376 2.66595
C -4.71828 -6.50621 3.21732
C -5.8678 -5.52628 3.13726
O -6.31338 -5.23005 4.3939
C -7.66817 -4.76826 4.4167
C -8.4124 -5.38065 5.59875
O -8.15233 -6.79172 5.66292
C -8.73189 -7.44488 6.70053
C -8.43995 -8.92658 6.69989
C -9.03032 -9.70318 7.8859
C -10.09782 -8.98089 8.68306
O -11.23361 -9.38853 8.87896
O -2.20113 -4.24542 1.47828
O -9.62489 -8.04423 9.55415
O -9.42954 -6.82993 7.4905
C -10.39234 -7.3898 10.49633
C -9.052 -9.68604 5.5097
C -8.24953 -10.95982 5.25573
C -8.63223 -11.78041 6.47136
C -9.68679 -10.862 7.10375
O -10.2646 -10.19672 6.00588
H -7.33033 -9.0236 6.67882
H -8.25786 -10.05701 8.6041
H -9.11866 -9.07775 4.58136
H -8.68591 -11.43955 4.35021
H -7.15772 -10.81872 5.10333
H -9.09008 -12.73182 6.12048
H -7.804 -11.99313 7.18157
H -10.38171 -11.46061 7.73275
O -6.31703 -5.05483 2.0978
C -1.90391 -2.96579 1.05808
C -3.27092 -6.9582 1.43073
C -2.82052 -8.35384 1.86384
C -4.07305 -8.85423 2.55027
C -5.02055 -7.6819 2.27935
O -4.60166 -7.18289 1.03495
H -2.49739 -6.2417 3.32596
H -4.60713 -6.83885 4.27529
H -1.71831 -2.30773 1.93372
H -2.58922 -6.58262 0.63707
H -2.66587 -8.95119 0.93654
H -1.8946 -8.38628 2.47732
H -4.42412 -9.76819 2.02144
H -3.96982 -9.0606 3.63767
H -6.08105 -8.01305 2.34482
H -2.74171 -2.55862 0.45246
H -0.98941 -2.9922 0.4308
H -9.75096 -6.68058 11.0585
H -10.82868 -8.1201 11.21078
H -11.20506 -6.81979 9.99746
H -8.00682 -4.90816 6.52228
H -9.50032 -5.15727 5.51973
H -8.23582 -5.07555 3.50652
H -7.70105 -3.66031 4.4947
$end

$opt
CONSTRAINT
tors           1           2           3           4     +25.428
tors           3           4           5           6    -118.155
tors           4           5           6           7    -156.623
tors           5           6           7           8    +138.824
tors           6           7           8           9     -46.723
tors           7           8           9          10    +178.204
tors           8           9          10          11    +179.054
tors           9          10          11          12    +177.780
tors          11          12          13          14    +122.758
ENDCONSTRAINT
$end

$rem
JOBTYPE                   OPT
METHOD                    B3LYP
DFT_D                     d3_op
BASIS                     STO-3G
GEOM_OPT_MAX_CYCLES       100
GEOM_OPT_TOL_GRADIENT     300
GEOM_OPT_TOL_DISPLACEMENT 1200
GEOM_OPT_TOL_ENERGY       100
SYMMETRY                  False
THRESH                    12
SCF_CONVERGENCE           8
MAX_SUB_FILE_NUM          128
MEM_STATIC                400
MEM_TOTAL                 4000
$end
--------------------------------------------------------------

   15   -1510.1432183694      5.90E-09 Convergence criterion met
 Total energy in the final basis set = -1510.14321837
   14   -1510.2134604124      7.80E-09 Convergence criterion met
 Total energy in the final basis set = -1510.21346041
   14   -1510.2499905677      7.35E-09 Convergence criterion met
 Total energy in the final basis set = -1510.24999057
   14   -1510.2656499455      9.42E-09 Convergence criterion met
 Total energy in the final basis set = -1510.26564995
   14   -1510.2722993102      4.44E-09 Convergence criterion met
 Total energy in the final basis set = -1510.27229931
   13   -1510.2749806947      2.71E-09 Convergence criterion met
 Total energy in the final basis set = -1510.27498069
   13   -1510.2765959561      3.54E-09 Convergence criterion met
 Total energy in the final basis set = -1510.27659596
   13   -1510.2775503320      4.66E-09 Convergence criterion met
   11   -1510.2798343361      8.22E-09 Convergence criterion met
 Total energy in the final basis set = -1510.27983434
   11   -1510.2799105838      7.97E-09 Convergence criterion met
 Total energy in the final basis set = -1510.27991058
   11   -1510.2799671764      5.64E-09 Convergence criterion met
 Total energy in the final basis set = -1510.27996718
   10   -1510.2799926654      9.84E-09 Convergence criterion met
 Total energy in the final basis set = -1510.27999267
   10   -1510.2800030930      6.52E-09 Convergence criterion met
 Total energy in the final basis set = -1510.28000309
    9   -1510.2800057621      7.88E-09 Convergence criterion met
 Total energy in the final basis set = -1510.28000576

             Standard Nuclear Orientation (Angstroms)
    I     Atom           X                Y                Z
 ----------------------------------------------------------------
    1      O       4.5153974189    -2.0719395191    -0.0891765524
    2      C       4.9672442268    -0.9924096252    -0.5343197796
    3      C       4.1161351160     0.2137794513    -1.0607256627
    4      C       2.6682981879     0.2450714350    -0.4213992818
    5      C       2.4330712899    -0.8141235595     0.7177082049
    6      O       1.3815373624    -1.6920058660     0.2813707399
    7      C       0.7211752958    -2.3321678808     1.4423426323
    8      C      -0.8154193936    -2.3363271231     1.1511686695
    9      O      -1.1411741883    -0.9663404461     0.6773721721
   10      C      -2.5222267705    -0.8667914510     0.3402586219
   11      C      -2.8118934671     0.6003743780    -0.1277830696
   12      C      -4.3134288166     0.7943089601    -0.5780106377
   13      C      -5.1198033896    -0.5412978985    -0.7815237572
   14      O      -6.1807747037    -0.8746953296    -0.2128899586
   15      O       6.3571260328    -0.7037930578    -0.6832577360
   16      O      -4.5491955817    -1.2315626188    -1.9059849242
   17      O      -3.3485078159    -1.7998766505     0.4608032168
   18      C      -5.2628306774    -2.5091078783    -2.1191281733
   19      C      -2.7676062690     1.5581899528     1.1409511132
   20      C      -2.8826949796     3.0603227235     0.6634204526
   21      C      -4.4222433587     3.1703499183     0.3545956808
   22      C      -4.8819956773     1.6825651632     0.6062568459
   23      O      -4.0732041123     1.2802025048     1.7825627037
   24      H      -2.0852400242     0.8943121974    -0.9059460888
   25      H      -4.3492593208     1.3470470598    -1.5343596512
   26      H      -1.9329785481     1.3455312225     1.8372250620
   27      H      -2.5782898940     3.7466959981     1.4694485212
   28      H      -2.2582393725     3.2583681955    -0.2226162057
   29      H      -4.9252764039     3.8525570392     1.0583616711
   30      H      -4.6287368691     3.5064152354    -0.6741356577
   31      H      -5.9604044240     1.5297678763     0.8067934661
   32      O       2.8860587134    -0.7929258466     1.8827155295
   33      C       7.1651816359    -1.8537675033    -0.2128884239
   34      C       4.6766925553     1.6368350099    -0.6345428566
   35      C       4.0077304230     2.7224369232    -1.5654778479
   36      C       2.5432734090     2.7511501096    -0.9895720259
   37      C       2.6568162258     1.7093808943     0.1933266821
   38      O       4.0443300810     1.8787446215     0.6828165988
   39      H       4.0596233339     0.1284880568    -2.1623121903
   40      H       1.8832891798     0.1042071989    -1.1841455629
   41      H       6.9725321974    -2.7617751320    -0.8203534933
   42      H       5.7799419005     1.6833368360    -0.5560172821
   43      H       4.5093393825     3.6955264094    -1.4421649104
   44      H       4.0436669867     2.4389019866    -2.6295629933
   45      H       2.2803322650     3.7478712881    -0.6011865732
   46      H       1.7877945165     2.4509570047    -1.7333468223
   47      H       1.9348054878     1.8524273576     1.0203282248
   48      H       6.9553616424    -2.0892296318     0.8502787495
   49      H       8.2219762353    -1.5496466456    -0.3256300219
   50      H      -4.8313677425    -2.9549241781    -3.0343328887
   51      H      -6.3523373656    -2.3533285479    -2.2579668294
   52      H      -5.1112561280    -3.1994614885    -1.2639227308
   53      H      -1.0662612152    -3.0828336830     0.3665930301
   54      H      -1.3878610886    -2.5924303710     2.0699554386
   55      H       0.9631129359    -1.7661878441     2.3674944228
   56      H       1.0797874441    -3.3772844270     1.5723387066
 ----------------------------------------------------------------

    9   -1510.2800063974      3.50E-09 Convergence criterion met
 Total energy in the final basis set = -1510.28000640
 Final energy is   -1510.28000639743
 **  OPTIMIZATION CONVERGED  **

                    Orbital Energies (a.u.)
 --------------------------------------------------------------

 Alpha MOs
 -- Occupied --
-18.943 -18.940 -18.922 -18.917 -18.889 -18.885 -18.883 -18.882
-18.865 -18.860 -10.105 -10.104 -10.093 -10.089 -10.078 -10.071
-10.069 -10.061 -10.061 -10.060 -10.055 -10.053 -10.040 -10.039
-10.035 -10.031 -10.022 -10.021 -10.021 -10.019  -1.019  -1.017
 -1.002  -0.996  -0.971  -0.969  -0.944  -0.941  -0.926  -0.923
 -0.764  -0.762  -0.729  -0.723  -0.715  -0.706  -0.698  -0.666
 -0.653  -0.615  -0.598  -0.576  -0.547  -0.543  -0.539  -0.536
 -0.515  -0.509  -0.483  -0.478  -0.466  -0.455  -0.453  -0.452
 -0.435  -0.431  -0.425  -0.415  -0.413  -0.408  -0.403  -0.400
 -0.393  -0.379  -0.377  -0.369  -0.359  -0.357  -0.353  -0.348
 -0.343  -0.339  -0.332  -0.332  -0.331  -0.323  -0.322  -0.314
 -0.311  -0.306  -0.304  -0.300  -0.298  -0.279  -0.276  -0.276
 -0.270  -0.258  -0.255  -0.243  -0.242  -0.235  -0.233  -0.184
 -0.183  -0.167  -0.163  -0.159  -0.157  -0.146  -0.144  -0.144
 -0.140

          Ground-State Mulliken Net Atomic Charges

     Atom                 Charge (a.u.)
  ----------------------------------------
      1 O                    -0.208123
      2 C                     0.214104
      3 C                    -0.078930
      4 C                    -0.079365
      5 C                     0.215894
      6 O                    -0.174044
      7 C                    -0.048474
      8 C                    -0.045192
      9 O                    -0.170855
     10 C                     0.216508
     11 C                    -0.076911
     12 C                    -0.081456
     13 C                     0.216582
     14 O                    -0.217625
     15 O                    -0.168203
     16 O                    -0.177965
     17 O                    -0.207110
     18 C                    -0.128521
     19 C                     0.024136
     20 C                    -0.144558
     21 C                    -0.143066
     22 C                     0.023737
     23 O                    -0.190762
     24 H                     0.086080
     25 H                     0.082683
     26 H                     0.084177
     27 H                     0.078023
     28 H                     0.072376
     29 H                     0.078127
     30 H                     0.072982
     31 H                     0.091256
     32 O                    -0.215887
     33 C                    -0.127671
     34 C                     0.023922
     35 C                    -0.143483
     36 C                    -0.144384
     37 C                     0.026186
     38 O                    -0.186848
     39 H                     0.085117
     40 H                     0.086533
     41 H                     0.089548
     42 H                     0.090742
     43 H                     0.078229
     44 H                     0.073082
     45 H                     0.077629
     46 H                     0.072836
     47 H                     0.084089
     48 H                     0.094146
     49 H                     0.092038
     50 H                     0.085356
     51 H                     0.086981
     52 H                     0.090725
     53 H                     0.090918
     54 H                     0.091229
     55 H                     0.096955
     56 H                     0.086509
  ----------------------------------------
  Sum of atomic charges =    -0.000000

                    Cartesian Multipole Moments
 -----------------------------------------------------------------
    Charge (ESU x 10^10)
                -0.0000
    Dipole Moment (Debye)
         X       2.1418      Y       1.0692      Z      -3.1805
       Tot       3.9807
    Quadrupole Moments (Debye-Ang)
        XX    -166.0686     XY      -7.7459     YY    -150.8801
        XZ      -0.7130     YZ      -2.6733     ZZ    -160.4058

 Total job time:  53.06s(wall), 2525.74s(cpu)
        *  Thank you very much for using Q-Chem.  Have a nice day.  *
