 Q-Chem 5.0, Q-Chem, Inc., Pleasanton, CA (2017)
 Q-Chem 5.0.1 for Intel X86 EM64T Linux

User input:
--------------------------------------------------------------
$molecule
0  1
O 4.5153974189 -2.0719395191 -0.0891765524
C 4.9672442268 -0.9924096252 -0.5343197796
C 4.116135116 0.2137794513 -1.0607256627
C 2.6682981879 0.245071435 -0.4213992818
C 2.4330712899 -0.8141235595 0.7177082049
O 1.3815373624 -1.692005866 0.2813707399
C 0.7211752958 -2.3321678808 1.4423426323
C -0.8154193936 -2.3363271231 1.1511686695
O -1.1411741883 -0.9663404461 0.6773721721
C -2.5222267705 -0.866791451 0.3402586219
C -2.8118934671 0.600374378 -0.1277830696
C -4.3134288166 0.7943089601 -0.5780106377
C -5.1198033896 -0.5412978985 -0.7815237572
O -6.1807747037 -0.8746953296 -0.2128899586
O 6.3571260328 -0.7037930578 -0.683257736
O -4.5491955817 -1.2315626188 -1.9059849242
O -3.3485078159 -1.7998766505 0.4608032168
C -5.2628306774 -2.5091078783 -2.1191281733
C -2.767606269 1.5581899528 1.1409511132
C -2.8826949796 3.0603227235 0.6634204526
C -4.4222433587 3.1703499183 0.3545956808
C -4.8819956773 1.6825651632 0.6062568459
O -4.0732041123 1.2802025048 1.7825627037
H -2.0852400242 0.8943121974 -0.9059460888
H -4.3492593208 1.3470470598 -1.5343596512
H -1.9329785481 1.3455312225 1.837225062
H -2.578289894 3.7466959981 1.4694485212
H -2.2582393725 3.2583681955 -0.2226162057
H -4.9252764039 3.8525570392 1.0583616711
H -4.6287368691 3.5064152354 -0.6741356577
H -5.960404424 1.5297678763 0.8067934661
O 2.8860587134 -0.7929258466 1.8827155295
C 7.1651816359 -1.8537675033 -0.2128884239
C 4.6766925553 1.6368350099 -0.6345428566
C 4.007730423 2.7224369232 -1.5654778479
C 2.543273409 2.7511501096 -0.9895720259
C 2.6568162258 1.7093808943 0.1933266821
O 4.044330081 1.8787446215 0.6828165988
H 4.0596233339 0.1284880568 -2.1623121903
H 1.8832891798 0.1042071989 -1.1841455629
H 6.9725321974 -2.761775132 -0.8203534933
H 5.7799419005 1.683336836 -0.5560172821
H 4.5093393825 3.6955264094 -1.4421649104
H 4.0436669867 2.4389019866 -2.6295629933
H 2.280332265 3.7478712881 -0.6011865732
H 1.7877945165 2.4509570047 -1.7333468223
H 1.9348054878 1.8524273576 1.0203282248
H 6.9553616424 -2.0892296318 0.8502787495
H 8.2219762353 -1.5496466456 -0.3256300219
H -4.8313677425 -2.9549241781 -3.0343328887
H -6.3523373656 -2.3533285479 -2.2579668294
H -5.111256128 -3.1994614885 -1.2639227308
H -1.0662612152 -3.082833683 0.3665930301
H -1.3878610886 -2.592430371 2.0699554386
H 0.9631129359 -1.7661878441 2.3674944228
H 1.0797874441 -3.377284427 1.5723387066
$end

$rem
JOBTYPE                   OPT
METHOD                    B3LYP
DFT_D                     d3_op
BASIS                     STO-3G
GEOM_OPT_MAX_CYCLES       100
GEOM_OPT_TOL_GRADIENT     300
GEOM_OPT_TOL_DISPLACEMENT 1200
GEOM_OPT_TOL_ENERGY       100
SYMMETRY                  False
THRESH                    12
SCF_CONVERGENCE           8
MAX_SUB_FILE_NUM          128
MEM_STATIC                400
MEM_TOTAL                 4000
$end
--------------------------------------------------------------

   16   -1510.2800047326      5.61E-09 Convergence criterion met
 Total energy in the final basis set = -1510.28000473
   14   -1510.2828640305      3.43E-09 Convergence criterion met
 Total energy in the final basis set = -1510.28286403
   14   -1510.2840129922      1.87E-09 Convergence criterion met
 Total energy in the final basis set = -1510.28401299
   14   -1510.2850628477      1.74E-09 Convergence criterion met
 Total energy in the final basis set = -1510.28506285
   14   -1510.2860379851      1.55E-09 Convergence criterion met
 Total energy in the final basis set = -1510.28603799
   13   -1510.2866313268      6.62E-09 Convergence criterion met
 Total energy in the final basis set = -1510.28663133
   13   -1510.2870979557      8.42E-09 Convergence criterion met
 Total energy in the final basis set = -1510.28709796
   13   -1510.2875690686      3.47E-09 Convergence criterion met
   12   -1510.2883570698      6.43E-09 Convergence criterion met
 Total energy in the final basis set = -1510.28835707
   11   -1510.2883556767      5.81E-09 Convergence criterion met
 Total energy in the final basis set = -1510.28835568
   13   -1510.2882959276      3.19E-09 Convergence criterion met
 Total energy in the final basis set = -1510.28829593
   13   -1510.2883287482      2.09E-09 Convergence criterion met
 Total energy in the final basis set = -1510.28832875
   11   -1510.2883734816      8.94E-09 Convergence criterion met
 Total energy in the final basis set = -1510.28837348
   10   -1510.2883693321      3.69E-09 Convergence criterion met
 Total energy in the final basis set = -1510.28836933

             Standard Nuclear Orientation (Angstroms)
    I     Atom           X                Y                Z
 ----------------------------------------------------------------
    1      O       4.1510899124    -1.0512422290     1.1852332652
    2      C       4.7327524687    -0.6287018739     0.1606536174
    3      C       4.1055668636     0.1930258401    -1.0144300347
    4      C       2.5421972153     0.3846294243    -0.8656136806
    5      C       1.9027918238    -0.3248386842     0.3847466988
    6      O       1.6956994468    -1.7082554419     0.0407430343
    7      C       0.9856036792    -2.4005455421     1.1381332756
    8      C      -0.5498989216    -2.4530747815     0.8325474099
    9      O      -1.0004122737    -1.0416305137     0.7422057977
   10      C      -2.3439016114    -0.9686783439     0.2712711651
   11      C      -2.7619820331     0.5391937589     0.2264250258
   12      C      -4.2164669884     0.7602963641    -0.3533001118
   13      C      -4.9220451475    -0.5476473371    -0.8721416566
   14      O      -5.8678851242    -1.1603408552    -0.3335992063
   15      O       6.1228780835    -0.8208961948    -0.1068119251
   16      O      -4.3927729299    -0.8491443476    -2.1734037054
   17      O      -3.0440723350    -1.9643343253    -0.0216459358
   18      C      -4.9922802839    -2.1052859495    -2.6737224296
   19      C      -2.9392052153     1.1075899118     1.7020137303
   20      C      -3.0550587674     2.6811338520     1.6254925569
   21      C      -4.5270706819     2.8548724303     1.0953852787
   22      C      -4.9622196038     1.3483969527     0.9169151870
   23      O      -4.3058363351     0.6659035114     2.0579043617
   24      H      -1.9959083581     1.1029681633    -0.3355219800
   25      H      -4.1929580447     1.4874096550    -1.1846940250
   26      H      -2.1953868607     0.7219749320     2.4264483742
   27      H      -2.9273357319     3.1249580745     2.6255453265
   28      H      -2.3036248446     3.1170350957     0.9479154154
   29      H      -5.1670233425     3.3546557268     1.8398435221
   30      H      -4.5765127446     3.4191035728     0.1503015321
   31      H      -6.0521388095     1.1541368542     0.9297493259
   32      O       1.5234862245     0.2100337080     1.4470836089
   33      C       6.7500489881    -1.5830454534     0.9987993008
   34      C       4.5968890466     1.7060712122    -0.9792795200
   35      C       4.2121069630     2.3887643447    -2.3514085339
   36      C       2.6623185898     2.5917348112    -2.1673375908
   37      C       2.4422452980     1.9616166932    -0.7365172800
   38      O       3.6767422074     2.3305104571    -0.0034962402
   39      H       4.3754064314    -0.2941665092    -1.9686124633
   40      H       2.0211732120     0.0138631635    -1.7662711884
   41      H       6.3151846146    -2.5995260967     1.0884612577
   42      H       5.6511997119     1.8334404257    -0.6654257862
   43      H       4.7364316970     3.3512479695    -2.4627791034
   44      H       4.4587126325     1.7500826440    -3.2146024735
   45      H       2.3926491191     3.6599039913    -2.1643761357
   46      H       2.0703247852     2.0797398081    -2.9426688718
   47      H       1.5492210547     2.3141072580    -0.1853296609
   48      H       6.6328667189    -1.0625184034     1.9710540244
   49      H       7.8231513378    -1.6606557604     0.7448633117
   50      H      -4.5737979444    -2.2657049965    -3.6844499769
   51      H      -6.0978241218    -2.0371537073    -2.7359388248
   52      H      -4.7279541262    -2.9629742014    -2.0216280632
   53      H      -0.7443995132    -2.9870902781    -0.1229378407
   54      H      -1.0879493681    -2.9886815087     1.6462336247
   55      H       1.1569251165    -1.8632713595     2.0952673163
   56      H       1.3888280384    -3.4322264826     1.1990140509
 ----------------------------------------------------------------

    9   -1510.2883694165      5.23E-09 Convergence criterion met
 Total energy in the final basis set = -1510.28836942
 Final energy is   -1510.28836941647
 **  OPTIMIZATION CONVERGED  **

                    Orbital Energies (a.u.)
 --------------------------------------------------------------

 Alpha MOs
 -- Occupied --
-18.943 -18.937 -18.920 -18.915 -18.889 -18.886 -18.882 -18.881
-18.865 -18.857 -10.107 -10.102 -10.093 -10.086 -10.074 -10.070
-10.068 -10.063 -10.059 -10.056 -10.052 -10.051 -10.042 -10.036
-10.035 -10.029 -10.023 -10.021 -10.016 -10.015  -1.020  -1.017
 -0.999  -0.993  -0.972  -0.965  -0.944  -0.940  -0.927  -0.920
 -0.765  -0.759  -0.727  -0.721  -0.713  -0.705  -0.694  -0.668
 -0.651  -0.614  -0.596  -0.576  -0.546  -0.541  -0.538  -0.533
 -0.513  -0.508  -0.482  -0.477  -0.463  -0.455  -0.452  -0.449
 -0.434  -0.428  -0.422  -0.417  -0.413  -0.409  -0.402  -0.399
 -0.393  -0.380  -0.373  -0.365  -0.362  -0.357  -0.348  -0.346
 -0.340  -0.337  -0.334  -0.332  -0.328  -0.326  -0.320  -0.314
 -0.308  -0.307  -0.302  -0.302  -0.297  -0.279  -0.276  -0.272
 -0.268  -0.259  -0.253  -0.241  -0.241  -0.236  -0.230  -0.186
 -0.181  -0.166  -0.161  -0.160  -0.155  -0.146  -0.145  -0.140
 -0.137

          Ground-State Mulliken Net Atomic Charges

     Atom                 Charge (a.u.)
  ----------------------------------------
      1 O                    -0.205856
      2 C                     0.214377
      3 C                    -0.077994
      4 C                    -0.081114
      5 C                     0.220319
      6 O                    -0.179035
      7 C                    -0.049639
      8 C                    -0.047495
      9 O                    -0.171563
     10 C                     0.214832
     11 C                    -0.077368
     12 C                    -0.081890
     13 C                     0.215681
     14 O                    -0.216993
     15 O                    -0.169223
     16 O                    -0.177387
     17 O                    -0.208151
     18 C                    -0.128397
     19 C                     0.025121
     20 C                    -0.143564
     21 C                    -0.144037
     22 C                     0.024708
     23 O                    -0.189676
     24 H                     0.085575
     25 H                     0.082503
     26 H                     0.088420
     27 H                     0.078729
     28 H                     0.073154
     29 H                     0.077604
     30 H                     0.072319
     31 H                     0.088770
     32 O                    -0.212674
     33 C                    -0.128247
     34 C                     0.025137
     35 C                    -0.143680
     36 C                    -0.144212
     37 C                     0.025142
     38 O                    -0.188687
     39 H                     0.087144
     40 H                     0.084092
     41 H                     0.089910
     42 H                     0.085579
     43 H                     0.078411
     44 H                     0.073803
     45 H                     0.077731
     46 H                     0.073217
     47 H                     0.087919
     48 H                     0.092412
     49 H                     0.092070
     50 H                     0.084658
     51 H                     0.085939
     52 H                     0.091727
     53 H                     0.090262
     54 H                     0.088505
     55 H                     0.103818
     56 H                     0.087292
  ----------------------------------------
  Sum of atomic charges =    -0.000000

                    Cartesian Multipole Moments
 -----------------------------------------------------------------
    Charge (ESU x 10^10)
                 0.0000
    Dipole Moment (Debye)
         X       3.3455      Y       0.2544      Z      -2.8312
       Tot       4.3901
    Quadrupole Moments (Debye-Ang)
        XX    -159.9642     XY     -13.4244     YY    -152.1554
        XZ       3.3792     YZ      -3.4935     ZZ    -158.4048

 Total job time:  56.85s(wall), 2703.96s(cpu)
        *  Thank you very much for using Q-Chem.  Have a nice day.  *
