 Q-Chem 5.0, Q-Chem, Inc., Pleasanton, CA (2017)
 Q-Chem 5.0.1 for Intel X86 EM64T Linux

User input:
--------------------------------------------------------------
$molecule
0  1
O 4.7786239377 -1.9677337312 -0.7216523289
C 5.0959422605 -0.9376326041 -0.0865688042
C 4.7418759532 0.5398646814 -0.492601641
C 3.1984004646 0.7298278389 -0.8152326011
C 2.3354776782 -0.5521082691 -0.5767516174
O 1.6628405773 -0.8727593159 -1.8039791986
C 0.717683843 -1.9960200237 -1.5908059399
C -0.7509166245 -1.5011310598 -1.8521352293
O -1.5480319926 -1.6797852574 -0.6108613411
C -2.4299789529 -0.5705021994 -0.4226981516
C -3.4961726883 -0.9425528701 0.6625285761
C -4.4966807434 0.250213696 0.9260102091
C -4.0139865897 1.6488780164 0.3910248682
O -4.6453027214 2.4294007973 -0.352134162
O 5.8721738969 -0.950181254 1.1126796645
O -2.8100840856 1.9954724179 1.0972268095
O -2.3946346869 0.481663089 -1.102620569
C -2.3071325619 3.2990075295 0.6140503575
C -4.4914666216 -2.0071935173 0.0220875486
C -5.5087419249 -2.5049885369 1.1245809188
C -6.5119296307 -1.2930452614 1.1925268166
C -5.8108128737 -0.2765887823 0.2115321724
O -5.3112582243 -1.1574212002 -0.8722368241
H -3.0030076484 -1.313257118 1.5784722323
H -4.6645211544 0.3626519176 2.0129833409
H -3.9848754478 -2.8077784657 -0.5516289397
H -6.0085396034 -3.4305946106 0.7980407307
H -5.0084296807 -2.6957525238 2.0876894018
H -7.5062587348 -1.5736107939 0.809529839
H -6.6250025079 -0.8872901343 2.2104400095
H -6.4509917483 0.5262241742 -0.203438676
O 2.183940505 -1.1850840626 0.4916149924
C 6.1908577426 -2.3469808239 1.4898823318
C 4.9415223716 1.5997194407 0.6688417708
C 4.9397738979 3.0437790997 0.0277770085
C 3.4099694956 3.2360420826 -0.2884398246
C 2.8186152665 1.8671707098 0.231852482
O 3.6578024963 1.5452949847 1.4069387677
H 5.3514492678 0.796305525 -1.3790429062
H 3.0399810972 1.0604927547 -1.8562888471
H 6.794870908 -2.8529778402 0.709050975
H 5.7877909066 1.375068285 1.3453156712
H 5.2984555248 3.7883317285 0.7562177429
H 5.570972527 3.0973993565 -0.8736108732
H 2.982214279 4.0790973917 0.2770713361
H 3.2117742698 3.3926269488 -1.3608931163
H 1.748076856 1.8907837606 0.5142142286
H 5.2694908226 -2.9395584874 1.6627328337
H 6.7735923704 -2.2830670386 2.4271143786
H -1.4396435897 3.550772933 1.2517679227
H -3.0760012174 4.0940062493 0.6986986364
H -1.9822813815 3.2348185294 -0.4450180322
H -0.7610275475 -0.426893367 -2.140256579
H -1.228450093 -2.0918267265 -2.6629423891
H 0.8251112681 -2.350971347 -0.5410339549
H 0.9900290976 -2.8102607415 -2.2929001513
$end

$rem
JOBTYPE                   OPT
METHOD                    B3LYP
DFT_D                     d3_op
BASIS                     STO-3G
GEOM_OPT_MAX_CYCLES       100
GEOM_OPT_TOL_GRADIENT     300
GEOM_OPT_TOL_DISPLACEMENT 1200
GEOM_OPT_TOL_ENERGY       100
SYMMETRY                  False
THRESH                    12
SCF_CONVERGENCE           8
MAX_SUB_FILE_NUM          128
MEM_STATIC                400
MEM_TOTAL                 4000
$end
--------------------------------------------------------------

   16   -1510.2798642812      7.75E-09 Convergence criterion met
 Total energy in the final basis set = -1510.27986428
   14   -1510.2814554674      1.10E-09 Convergence criterion met
 Total energy in the final basis set = -1510.28145547
   14   -1510.2827745214      2.61E-09 Convergence criterion met
 Total energy in the final basis set = -1510.28277452
   14   -1510.2775781617      2.92E-09 Convergence criterion met
 Total energy in the final basis set = -1510.27757816
   14   -1510.2838677873      1.33E-09 Convergence criterion met
 Total energy in the final basis set = -1510.28386779
   13   -1510.2848130415      5.53E-09 Convergence criterion met
 Total energy in the final basis set = -1510.28481304
   13   -1510.2857307374      4.02E-09 Convergence criterion met
 Total energy in the final basis set = -1510.28573074
   13   -1510.2867313531      3.37E-09 Convergence criterion met
   13   -1510.2973503977      4.43E-09 Convergence criterion met
 Total energy in the final basis set = -1510.29735040
   13   -1510.2975525187      4.82E-09 Convergence criterion met
 Total energy in the final basis set = -1510.29755252
   12   -1510.2975517133      7.24E-09 Convergence criterion met
 Total energy in the final basis set = -1510.29755171
   11   -1510.2975718311      6.17E-09 Convergence criterion met
 Total energy in the final basis set = -1510.29757183
   10   -1510.2975745714      8.75E-09 Convergence criterion met
 Total energy in the final basis set = -1510.29757457
    9   -1510.2975785460      8.33E-09 Convergence criterion met
 Total energy in the final basis set = -1510.29757855

             Standard Nuclear Orientation (Angstroms)
    I     Atom           X                Y                Z
 ----------------------------------------------------------------
    1      O       3.3078497551    -2.1121741446    -0.1353052068
    2      C       3.8203073570    -1.1183432445     0.4282808090
    3      C       3.4611200749     0.3864029152     0.1934052351
    4      C       2.1238568451     0.5888341814    -0.6297596491
    5      C       1.3088839416    -0.7428067244    -0.8042192469
    6      O       1.4100386853    -1.1532158462    -2.1785821799
    7      C       0.7204924961    -2.4457129172    -2.3976601454
    8      C      -0.8159835381    -2.2819322952    -2.7121298985
    9      O      -1.6010515480    -2.1459495890    -1.4624935780
   10      C      -1.8213521881    -0.7690638980    -1.1541584573
   11      C      -2.4136014673    -0.6700715210     0.2893265713
   12      C      -2.8951463024     0.7906123366     0.6595658003
   13      C      -2.7015471244     1.8398461748    -0.4942151687
   14      O      -3.5485643305     2.2203965612    -1.3282389539
   15      O       4.8708468152    -1.2019024775     1.3928365033
   16      O      -1.3966932126     2.4397879830    -0.3502260591
   17      O      -1.5674526225     0.1799244427    -1.9317298679
   18      C      -1.1495805944     3.3646023408    -1.4781841538
   19      C      -3.7650542307    -1.4889358487     0.4413092944
   20      C      -4.0793428599    -1.6447633606     1.9809231393
   21      C      -4.5690689044    -0.1923885298     2.3392686705
   22      C      -4.4350397628     0.5288814071     0.9407988716
   23      O      -4.7900116143    -0.5311510858    -0.0323460919
   24      H      -1.6312315135    -1.0332553835     0.9821274513
   25      H      -2.3650883012     1.1610399575     1.5547502962
   26      H      -3.7932812357    -2.4241844741    -0.1506125598
   27      H      -4.8747179217    -2.3905697047     2.1380530490
   28      H      -3.1896998300    -1.9494330413     2.5549413730
   29      H      -5.6187147728    -0.1915076888     2.6739571156
   30      H      -3.9501092765     0.2865213402     3.1145997790
   31      H      -5.0816409476     1.4155411613     0.7946840910
   32      O       0.6115303621    -1.3211683297     0.0566624110
   33      C       5.2301632856    -2.6202362029     1.6277946972
   34      C       3.1225885114     1.1804654829     1.5319356513
   35      C       3.3133417415     2.7158401225     1.2310979477
   36      C       2.0699345972     2.9873920068     0.3072272672
   37      C       1.3405600361     1.5835171165     0.3267824594
   38      O       1.6557012677     1.0407278040     1.6705688864
   39      H       4.3179764196     0.8557441115    -0.3247962479
   40      H       2.3193508179     1.0152894004    -1.6288099357
   41      H       5.5895634422    -3.1091246660     0.6993272524
   42      H       3.6449201727     0.7971688805     2.4298390682
   43      H       3.2567062488     3.2985687060     2.1644619172
   44      H       4.2737312746     2.9323310759     0.7367399899
   45      H       1.4147708276     3.7649587571     0.7305174795
   46      H       2.3589326620     3.2862164061    -0.7133307179
   47      H       0.2397202883     1.6474617201     0.1511686090
   48      H       4.3685198126    -3.1984157963     2.0196342347
   49      H       6.0414342267    -2.6087273881     2.3786888099
   50      H      -0.1754847612     3.8454619594    -1.2780062660
   51      H      -1.9417229592     4.1367696144    -1.5505238720
   52      H      -1.1023634770     2.8114555430    -2.4385136389
   53      H      -0.9777198557    -1.3939185586    -3.3604582306
   54      H      -1.1861174799    -3.1965085424    -3.2190781796
   55      H       0.8430538051    -3.1090850920    -1.5148236609
   56      H       1.2174104446    -2.9032605727    -3.2778707913
 ----------------------------------------------------------------

    8   -1510.2975782859      7.70E-09 Convergence criterion met
 Total energy in the final basis set = -1510.29757829
 Final energy is   -1510.29757828593
 **  OPTIMIZATION CONVERGED  **

                    Orbital Energies (a.u.)
 --------------------------------------------------------------

 Alpha MOs
 -- Occupied --
-18.941 -18.935 -18.926 -18.922 -18.882 -18.881 -18.879 -18.879
-18.863 -18.860 -10.104 -10.103 -10.092 -10.091 -10.069 -10.069
-10.067 -10.055 -10.055 -10.054 -10.053 -10.039 -10.036 -10.031
-10.029 -10.029 -10.015 -10.015 -10.014 -10.012  -1.018  -1.016
 -1.000  -0.996  -0.964  -0.962  -0.942  -0.939  -0.926  -0.926
 -0.758  -0.757  -0.722  -0.717  -0.710  -0.700  -0.691  -0.664
 -0.655  -0.616  -0.593  -0.574  -0.541  -0.539  -0.532  -0.530
 -0.508  -0.506  -0.481  -0.473  -0.456  -0.453  -0.448  -0.446
 -0.429  -0.427  -0.425  -0.415  -0.413  -0.405  -0.404  -0.400
 -0.393  -0.377  -0.374  -0.363  -0.357  -0.352  -0.349  -0.345
 -0.344  -0.336  -0.329  -0.327  -0.324  -0.319  -0.319  -0.310
 -0.309  -0.301  -0.300  -0.296  -0.294  -0.277  -0.273  -0.271
 -0.271  -0.257  -0.249  -0.244  -0.239  -0.229  -0.225  -0.187
 -0.182  -0.168  -0.160  -0.158  -0.155  -0.142  -0.141  -0.139
 -0.136

          Ground-State Mulliken Net Atomic Charges

     Atom                 Charge (a.u.)
  ----------------------------------------
      1 O                    -0.210776
      2 C                     0.212877
      3 C                    -0.079505
      4 C                    -0.081227
      5 C                     0.216385
      6 O                    -0.174070
      7 C                    -0.050877
      8 C                    -0.054241
      9 O                    -0.168873
     10 C                     0.220696
     11 C                    -0.079515
     12 C                    -0.082629
     13 C                     0.218839
     14 O                    -0.213665
     15 O                    -0.168969
     16 O                    -0.175262
     17 O                    -0.214980
     18 C                    -0.128710
     19 C                     0.024573
     20 C                    -0.143567
     21 C                    -0.144047
     22 C                     0.025320
     23 O                    -0.189816
     24 H                     0.102964
     25 H                     0.086951
     26 H                     0.087658
     27 H                     0.076940
     28 H                     0.075920
     29 H                     0.076897
     30 H                     0.073931
     31 H                     0.086135
     32 O                    -0.223520
     33 C                    -0.128002
     34 C                     0.024682
     35 C                    -0.143412
     36 C                    -0.146332
     37 C                     0.010055
     38 O                    -0.191659
     39 H                     0.084865
     40 H                     0.084117
     41 H                     0.089665
     42 H                     0.085735
     43 H                     0.076289
     44 H                     0.071438
     45 H                     0.075263
     46 H                     0.069175
     47 H                     0.107118
     48 H                     0.091896
     49 H                     0.091758
     50 H                     0.086495
     51 H                     0.089140
     52 H                     0.093592
     53 H                     0.100454
     54 H                     0.088422
     55 H                     0.099860
     56 H                     0.087549
  ----------------------------------------
  Sum of atomic charges =     0.000000

                    Cartesian Multipole Moments
 -----------------------------------------------------------------
    Charge (ESU x 10^10)
                 0.0000
    Dipole Moment (Debye)
         X       3.2305      Y      -0.4192      Z       0.6277
       Tot       3.3175
    Quadrupole Moments (Debye-Ang)
        XX    -157.8208     XY       1.6103     YY    -149.7588
        XZ      -6.7500     YZ       1.9132     ZZ    -156.1321

 Total job time:  107.41s(wall), 5121.17s(cpu)
        *  Thank you very much for using Q-Chem.  Have a nice day.  *
