 Q-Chem 5.0, Q-Chem, Inc., Pleasanton, CA (2017)
 Q-Chem 5.0.1 for Intel X86 EM64T Linux

User input:
--------------------------------------------------------------
$molecule
0  1
O -3.94934 -3.66094 2.70899
C -3.26408 -4.56952 2.26188
C -3.36658 -6.02376 2.66595
C -4.76521 -6.66191 2.64505
C -5.87875 -5.82684 2.05278
O -6.88157 -5.67482 2.96748
C -8.03348 -5.01215 2.4353
C -9.23634 -5.94958 2.45772
O -9.72818 -6.14665 1.12276
C -10.13182 -7.40787 0.83029
C -10.94336 -7.48602 -0.4409
C -11.41494 -8.8969 -0.82212
C -11.32412 -9.942 0.2716
O -12.23921 -10.66441 0.63943
O -2.4092 -4.27457 1.24537
O -10.0641 -10.4179 0.49063
O -9.87191 -8.32371 1.59051
C -9.7576 -11.49561 1.29709
C -12.28525 -6.73364 -0.37459
C -12.72468 -6.35658 -1.78739
C -13.07778 -7.72045 -2.3458
C -12.90328 -8.58569 -1.09058
O -13.22582 -7.72003 -0.02871
H -10.30709 -7.04852 -1.24375
H -10.89216 -9.30221 -1.71666
H -12.25842 -5.83254 0.27611
H -13.66018 -5.76088 -1.68442
H -11.98727 -5.77708 -2.38347
H -14.14105 -7.69956 -2.67284
H -12.42901 -8.07755 -3.17481
H -13.52324 -9.50497 -1.17627
O -5.8669 -5.3761 0.91247
C -2.22769 -3.01354 0.71674
C -2.60736 -6.99901 1.73979
C -2.32014 -8.31159 2.47302
C -3.6963 -8.94137 2.47721
C -4.4959 -7.87171 1.73188
O -3.57525 -7.3727 0.79013
H -2.94079 -6.06336 3.69336
H -5.071 -6.99779 3.66345
H -1.86063 -2.31869 1.50207
H -1.65526 -6.58851 1.34037
H -1.6521 -8.93241 1.83426
H -1.85523 -8.17554 3.47323
H -3.6627 -9.8646 1.85619
H -4.10928 -9.17986 3.48108
H -5.43153 -8.30975 1.31833
H -3.1831 -2.63421 0.29519
H -1.47434 -3.06495 -0.09582
H -8.65909 -11.64953 1.29573
H -10.24761 -12.41552 0.91274
H -10.09032 -11.29892 2.3387
H -9.07008 -6.83533 3.11029
H -10.0486 -5.38454 2.96584
H -7.93591 -4.51029 1.44599
H -8.23142 -4.17589 3.14123
$end

$opt
CONSTRAINT
tors           1           2           3           4     +50.554
tors           3           4           5           6    -123.215
tors           4           5           6           7    -173.926
tors           5           6           7           8    +116.488
tors           6           7           8           9    -119.915
tors           7           8           9          10    +140.681
tors           8           9          10          11    +165.768
tors           9          10          11          12    +179.522
tors          11          12          13          14    +127.392
ENDCONSTRAINT
$end

$rem
JOBTYPE                   OPT
METHOD                    B3LYP
DFT_D                     d3_op
BASIS                     STO-3G
GEOM_OPT_MAX_CYCLES       100
GEOM_OPT_TOL_GRADIENT     300
GEOM_OPT_TOL_DISPLACEMENT 1200
GEOM_OPT_TOL_ENERGY       100
SYMMETRY                  False
THRESH                    12
SCF_CONVERGENCE           8
MAX_SUB_FILE_NUM          128
MEM_STATIC                400
MEM_TOTAL                 4000
$end
--------------------------------------------------------------

   15   -1510.1356705527      8.91E-09 Convergence criterion met
 Total energy in the final basis set = -1510.13567055
   14   -1510.2065547164      5.00E-09 Convergence criterion met
 Total energy in the final basis set = -1510.20655472
   14   -1510.2431323544      7.53E-09 Convergence criterion met
 Total energy in the final basis set = -1510.24313235
   14   -1510.2605285096      3.59E-09 Convergence criterion met
 Total energy in the final basis set = -1510.26052851
   13   -1510.2686468616      5.87E-09 Convergence criterion met
 Total energy in the final basis set = -1510.26864686
   13   -1510.2725186599      3.73E-09 Convergence criterion met
 Total energy in the final basis set = -1510.27251866
   12   -1510.2748735010      8.97E-09 Convergence criterion met
 Total energy in the final basis set = -1510.27487350
   12   -1510.2762960897      9.68E-09 Convergence criterion met
   11   -1510.2797777098      7.07E-09 Convergence criterion met
 Total energy in the final basis set = -1510.27977771
   11   -1510.2798417685      5.55E-09 Convergence criterion met
 Total energy in the final basis set = -1510.27984177
    9   -1510.2798706298      9.94E-09 Convergence criterion met
 Total energy in the final basis set = -1510.27987063
    9   -1510.2798888296      7.78E-09 Convergence criterion met
 Total energy in the final basis set = -1510.27988883
    9   -1510.2798964926      9.52E-09 Convergence criterion met
 Total energy in the final basis set = -1510.27989649
    9   -1510.2798983049      5.64E-09 Convergence criterion met
 Total energy in the final basis set = -1510.27989830

             Standard Nuclear Orientation (Angstroms)
    I     Atom           X                Y                Z
 ----------------------------------------------------------------
    1      O       4.7786239377    -1.9677337312    -0.7216523289
    2      C       5.0959422605    -0.9376326041    -0.0865688042
    3      C       4.7418759532     0.5398646814    -0.4926016410
    4      C       3.1984004646     0.7298278389    -0.8152326011
    5      C       2.3354776782    -0.5521082691    -0.5767516174
    6      O       1.6628405773    -0.8727593159    -1.8039791986
    7      C       0.7176838430    -1.9960200237    -1.5908059399
    8      C      -0.7509166245    -1.5011310598    -1.8521352293
    9      O      -1.5480319926    -1.6797852574    -0.6108613411
   10      C      -2.4299789529    -0.5705021994    -0.4226981516
   11      C      -3.4961726883    -0.9425528701     0.6625285761
   12      C      -4.4966807434     0.2502136960     0.9260102091
   13      C      -4.0139865897     1.6488780164     0.3910248682
   14      O      -4.6453027214     2.4294007973    -0.3521341620
   15      O       5.8721738969    -0.9501812540     1.1126796645
   16      O      -2.8100840856     1.9954724179     1.0972268095
   17      O      -2.3946346869     0.4816630890    -1.1026205690
   18      C      -2.3071325619     3.2990075295     0.6140503575
   19      C      -4.4914666216    -2.0071935173     0.0220875486
   20      C      -5.5087419249    -2.5049885369     1.1245809188
   21      C      -6.5119296307    -1.2930452614     1.1925268166
   22      C      -5.8108128737    -0.2765887823     0.2115321724
   23      O      -5.3112582243    -1.1574212002    -0.8722368241
   24      H      -3.0030076484    -1.3132571180     1.5784722323
   25      H      -4.6645211544     0.3626519176     2.0129833409
   26      H      -3.9848754478    -2.8077784657    -0.5516289397
   27      H      -6.0085396034    -3.4305946106     0.7980407307
   28      H      -5.0084296807    -2.6957525238     2.0876894018
   29      H      -7.5062587348    -1.5736107939     0.8095298390
   30      H      -6.6250025079    -0.8872901343     2.2104400095
   31      H      -6.4509917483     0.5262241742    -0.2034386760
   32      O       2.1839405050    -1.1850840626     0.4916149924
   33      C       6.1908577426    -2.3469808239     1.4898823318
   34      C       4.9415223716     1.5997194407     0.6688417708
   35      C       4.9397738979     3.0437790997     0.0277770085
   36      C       3.4099694956     3.2360420826    -0.2884398246
   37      C       2.8186152665     1.8671707098     0.2318524820
   38      O       3.6578024963     1.5452949847     1.4069387677
   39      H       5.3514492678     0.7963055250    -1.3790429062
   40      H       3.0399810972     1.0604927547    -1.8562888471
   41      H       6.7948709080    -2.8529778402     0.7090509750
   42      H       5.7877909066     1.3750682850     1.3453156712
   43      H       5.2984555248     3.7883317285     0.7562177429
   44      H       5.5709725270     3.0973993565    -0.8736108732
   45      H       2.9822142790     4.0790973917     0.2770713361
   46      H       3.2117742698     3.3926269488    -1.3608931163
   47      H       1.7480768560     1.8907837606     0.5142142286
   48      H       5.2694908226    -2.9395584874     1.6627328337
   49      H       6.7735923704    -2.2830670386     2.4271143786
   50      H      -1.4396435897     3.5507729330     1.2517679227
   51      H      -3.0760012174     4.0940062493     0.6986986364
   52      H      -1.9822813815     3.2348185294    -0.4450180322
   53      H      -0.7610275475    -0.4268933670    -2.1402565790
   54      H      -1.2284500930    -2.0918267265    -2.6629423891
   55      H       0.8251112681    -2.3509713470    -0.5410339549
   56      H       0.9900290976    -2.8102607415    -2.2929001513
 ----------------------------------------------------------------

    9   -1510.2798984427      2.07E-09 Convergence criterion met
 Total energy in the final basis set = -1510.27989844
 Final energy is   -1510.27989844268
 **  OPTIMIZATION CONVERGED  **

                    Orbital Energies (a.u.)
 --------------------------------------------------------------

 Alpha MOs
 -- Occupied --
-18.938 -18.937 -18.931 -18.917 -18.888 -18.886 -18.885 -18.874
-18.872 -18.860 -10.105 -10.100 -10.098 -10.089 -10.071 -10.066
-10.064 -10.061 -10.060 -10.058 -10.055 -10.054 -10.040 -10.039
-10.038 -10.031 -10.021 -10.020 -10.020 -10.018  -1.019  -1.013
 -1.008  -0.996  -0.970  -0.969  -0.943  -0.937  -0.933  -0.923
 -0.764  -0.762  -0.727  -0.722  -0.713  -0.705  -0.695  -0.661
 -0.653  -0.617  -0.596  -0.577  -0.546  -0.543  -0.538  -0.536
 -0.514  -0.510  -0.485  -0.472  -0.460  -0.455  -0.450  -0.448
 -0.441  -0.432  -0.430  -0.415  -0.411  -0.407  -0.403  -0.400
 -0.397  -0.377  -0.372  -0.366  -0.359  -0.356  -0.353  -0.348
 -0.343  -0.338  -0.335  -0.331  -0.330  -0.324  -0.322  -0.310
 -0.310  -0.306  -0.303  -0.300  -0.290  -0.288  -0.276  -0.275
 -0.269  -0.257  -0.253  -0.246  -0.243  -0.234  -0.233  -0.187
 -0.178  -0.169  -0.164  -0.160  -0.158  -0.151  -0.144  -0.143
 -0.140

          Ground-State Mulliken Net Atomic Charges

     Atom                 Charge (a.u.)
  ----------------------------------------
      1 O                    -0.216258
      2 C                     0.211707
      3 C                    -0.078113
      4 C                    -0.079289
      5 C                     0.211645
      6 O                    -0.172017
      7 C                    -0.057900
      8 C                    -0.056025
      9 O                    -0.172777
     10 C                     0.218244
     11 C                    -0.076156
     12 C                    -0.081242
     13 C                     0.216941
     14 O                    -0.218292
     15 O                    -0.166886
     16 O                    -0.177675
     17 O                    -0.207163
     18 C                    -0.128631
     19 C                     0.024310
     20 C                    -0.144538
     21 C                    -0.142766
     22 C                     0.023446
     23 O                    -0.191988
     24 H                     0.089489
     25 H                     0.083517
     26 H                     0.084350
     27 H                     0.078111
     28 H                     0.074145
     29 H                     0.077953
     30 H                     0.073509
     31 H                     0.091358
     32 O                    -0.212727
     33 C                    -0.127121
     34 C                     0.023533
     35 C                    -0.144184
     36 C                    -0.143910
     37 C                     0.025955
     38 O                    -0.186815
     39 H                     0.084685
     40 H                     0.087023
     41 H                     0.088371
     42 H                     0.093065
     43 H                     0.078003
     44 H                     0.072927
     45 H                     0.077957
     46 H                     0.074163
     47 H                     0.083769
     48 H                     0.093980
     49 H                     0.091204
     50 H                     0.085315
     51 H                     0.087578
     52 H                     0.088973
     53 H                     0.105112
     54 H                     0.085248
     55 H                     0.109266
     56 H                     0.087616
  ----------------------------------------
  Sum of atomic charges =     0.000000

                    Cartesian Multipole Moments
 -----------------------------------------------------------------
    Charge (ESU x 10^10)
                -0.0000
    Dipole Moment (Debye)
         X       1.7608      Y      -0.4250      Z       0.6040
       Tot       1.9094
    Quadrupole Moments (Debye-Ang)
        XX    -150.6119     XY      11.0732     YY    -152.9091
        XZ     -12.1274     YZ      -1.2507     ZZ    -161.2115

 Total job time:  56.16s(wall), 2673.79s(cpu)
        *  Thank you very much for using Q-Chem.  Have a nice day.  *
