 Q-Chem 5.0, Q-Chem, Inc., Pleasanton, CA (2017)
 Q-Chem 5.0.1 for Intel X86 EM64T Linux

User input:
--------------------------------------------------------------
$molecule
0  1
O -3.94934 -3.66094 2.70899
C -3.26408 -4.56952 2.26188
C -3.36658 -6.02376 2.66595
C -4.71828 -6.50621 3.21732
C -5.8678 -5.52628 3.13726
O -6.81591 -5.84627 4.06684
C -8.06089 -5.17166 3.85666
C -9.15095 -6.17812 3.5032
O -8.84455 -6.81194 2.25129
C -8.47744 -8.11497 2.33187
C -8.19083 -8.73 0.98271
C -7.71899 -10.1908 1.02429
C -7.94139 -10.92 2.33406
O -8.49138 -12.0049 2.4568
O -2.19729 -4.24366 1.48405
O -7.04562 -10.59286 3.31029
O -8.44347 -8.68113 3.41029
C -6.90715 -11.25717 4.51184
C -9.42681 -8.8434 0.07224
C -8.97909 -8.88629 -1.38693
C -8.33292 -10.25599 -1.44295
C -8.67094 -10.77773 -0.03992
O -9.89343 -10.15452 0.27367
H -7.43015 -8.08065 0.49263
H -6.64604 -10.30746 0.75394
H -10.16867 -8.0298 0.22649
H -9.90486 -8.90354 -2.006
H -8.33414 -8.0445 -1.71918
H -8.84791 -10.85345 -2.22762
H -7.23531 -10.25707 -1.61909
H -8.67634 -11.88978 -0.04145
O -6.11995 -4.93583 2.09045
C -1.89903 -2.96347 1.06627
C -3.24751 -6.95352 1.43054
C -2.76471 -8.33551 1.86663
C -3.99733 -8.8483 2.57404
C -4.9705 -7.69892 2.29002
O -4.57207 -7.20685 1.03869
H -2.50212 -6.23285 3.33516
H -4.62684 -6.83514 4.27763
H -1.71848 -2.30583 1.94328
H -2.57598 -6.56544 0.63428
H -2.61295 -8.93525 0.94029
H -1.83044 -8.34874 2.46804
H -4.33137 -9.78132 2.06765
H -3.88155 -9.02864 3.66476
H -5.99593 -8.06656 2.37557
H -2.7341 -2.55666 0.45665
H -0.98133 -2.98866 0.44365
H -6.11017 -10.7663 5.10721
H -6.61998 -12.31556 4.33492
H -7.85924 -11.21508 5.08266
H -9.28 -6.8563 4.37443
H -10.12138 -5.64888 3.39534
H -8.0625 -4.37701 3.07772
H -8.33762 -4.65795 4.80178
$end

$opt
CONSTRAINT
tors           1           2           3           4     +25.428
tors           3           4           5           6    -157.258
tors           4           5           6           7    -166.369
tors           5           6           7           8    +114.466
tors           6           7           8           9     -64.284
tors           7           8           9          10    +109.282
tors           8           9          10          11    +179.054
tors           9          10          11          12    +177.780
tors          11          12          13          14    +128.440
ENDCONSTRAINT
$end

$rem
JOBTYPE                   OPT
METHOD                    B3LYP
DFT_D                     d3_op
BASIS                     STO-3G
GEOM_OPT_MAX_CYCLES       100
GEOM_OPT_TOL_GRADIENT     300
GEOM_OPT_TOL_DISPLACEMENT 1200
GEOM_OPT_TOL_ENERGY       100
SYMMETRY                  False
THRESH                    12
SCF_CONVERGENCE           8
MAX_SUB_FILE_NUM          128
MEM_STATIC                400
MEM_TOTAL                 4000
$end
--------------------------------------------------------------

   15   -1510.1370614537      6.71E-09 Convergence criterion met
 Total energy in the final basis set = -1510.13706145
   14   -1510.2095106485      7.24E-09 Convergence criterion met
 Total energy in the final basis set = -1510.20951065
   14   -1510.2475977204      7.75E-09 Convergence criterion met
 Total energy in the final basis set = -1510.24759772
   14   -1510.2667462537      8.48E-09 Convergence criterion met
 Total energy in the final basis set = -1510.26674625
   14   -1510.2748198332      3.96E-09 Convergence criterion met
 Total energy in the final basis set = -1510.27481983
   14   -1510.2778688905      5.38E-09 Convergence criterion met
 Total energy in the final basis set = -1510.27786889
   13   -1510.2811370958      2.90E-09 Convergence criterion met
 Total energy in the final basis set = -1510.28113710
   13   -1510.2829585921      2.84E-09 Convergence criterion met
   11   -1510.2871371221      5.42E-09 Convergence criterion met
 Total energy in the final basis set = -1510.28713712
   11   -1510.2872164858      4.19E-09 Convergence criterion met
 Total energy in the final basis set = -1510.28721649
   11   -1510.2872587559      4.97E-09 Convergence criterion met
 Total energy in the final basis set = -1510.28725876
   10   -1510.2872808249      5.20E-09 Convergence criterion met
 Total energy in the final basis set = -1510.28728082
    9   -1510.2872867541      7.27E-09 Convergence criterion met
 Total energy in the final basis set = -1510.28728675
    9   -1510.2872891674      6.08E-09 Convergence criterion met
 Total energy in the final basis set = -1510.28728917

             Standard Nuclear Orientation (Angstroms)
    I     Atom           X                Y                Z
 ----------------------------------------------------------------
    1      O       4.8684457527    -1.0379068530    -0.6804854470
    2      C       4.6053734804     0.1235777532    -0.3023915440
    3      C       3.3740492910     1.0120210055    -0.7003561099
    4      C       2.0797019226     0.2226862466    -1.1482201304
    5      C       2.0285993583    -1.2356588518    -0.5755599766
    6      O       1.1696993318    -2.0351288232    -1.4096900545
    7      C       0.8465752289    -3.3047103599    -0.7162032892
    8      C      -0.6773699301    -3.4063049981    -0.3660628833
    9      O      -1.0467032990    -2.3468746392     0.6047326612
   10      C      -1.8592442044    -1.3489624737    -0.0094791705
   11      C      -2.2296297876    -0.2803929997     1.0752213173
   12      C      -3.0868448483     0.9017364753     0.4735738176
   13      C      -3.1257780334     0.9565503508    -1.0970941765
   14      O      -4.1376580530     1.0254835171    -1.8253849575
   15      O       5.4470101067     0.8881342753     0.5690210619
   16      O      -1.7832224666     1.1779464567    -1.5630804676
   17      O      -2.2768032029    -1.3993611601    -1.1899568617
   18      C      -1.7570838854     1.1843635018    -3.0404238983
   19      C      -3.2895167495    -0.9169578187     2.0775994730
   20      C      -3.5299083053     0.0861622764     3.2752237642
   21      C      -4.4727872391     1.1524645046     2.6025604217
   22      C      -4.5072572848     0.6222915913     1.1182035783
   23      O      -4.5422660996    -0.8504550824     1.2903677640
   24      H      -1.3168057532     0.0626164372     1.5936918277
   25      H      -2.6817381555     1.8712299043     0.8180488289
   26      H      -3.0620179398    -1.9603718187     2.3706030134
   27      H      -4.0261257959    -0.4262566422     4.1146926079
   28      H      -2.5856888842     0.5240178635     3.6369349565
   29      H      -5.4826843493     1.1312749663     3.0424736246
   30      H      -4.0765408291     2.1780534597     2.6727946746
   31      H      -5.3583785867     0.9613057230     0.4959170298
   32      O       2.5118756755    -1.6372704687     0.5056172331
   33      C       6.6308048810     0.0870407959     0.9563254533
   34      C       2.7840864051     1.9479434174     0.4504591793
   35      C       2.1695561872     3.2118604618    -0.2625968555
   36      C       0.9469174650     2.5499347967    -0.9986411416
   37      C       0.9720598857     1.0829507326    -0.4076020822
   38      O       1.5755518541     1.2390021666     0.9371932415
   39      H       3.7171420095     1.6480884678    -1.5383457479
   40      H       1.9450765853     0.2000753421    -2.2438415877
   41      H       7.2563799194    -0.1695207579     0.0767940720
   42      H       3.4875701603     2.1475799085     1.2812514502
   43      H       1.8386124349     3.9504211302     0.4854650031
   44      H       2.8778052851     3.6970553943    -0.9528449640
   45      H      -0.0067619438     3.0413144428    -0.7511712588
   46      H       1.0652120756     2.5499285928    -2.0938587919
   47      H      -0.0287817604     0.6114114975    -0.3717970115
   48      H       6.3369380873    -0.8537189481     1.4647877630
   49      H       7.2128511784     0.7193511562     1.6517709732
   50      H      -0.7148061940     1.4116163402    -3.3293447203
   51      H      -2.4370680984     1.9540939362    -3.4592475818
   52      H      -2.0463590059     0.1941962526    -3.4484880779
   53      H      -1.3019922269    -3.2921324533    -1.2786695498
   54      H      -0.8765650156    -4.3874018612     0.1135688413
   55      H       1.4608289036    -3.3530255867     0.2103598866
   56      H       1.1171064692    -4.1469830249    -1.3880158353
 ----------------------------------------------------------------

    9   -1510.2872894921      3.75E-09 Convergence criterion met
 Total energy in the final basis set = -1510.28728949
 Final energy is   -1510.28728949208
 **  OPTIMIZATION CONVERGED  **

                    Orbital Energies (a.u.)
 --------------------------------------------------------------

 Alpha MOs
 -- Occupied --
-18.940 -18.932 -18.928 -18.923 -18.886 -18.886 -18.885 -18.875
-18.872 -18.866 -10.106 -10.098 -10.096 -10.094 -10.073 -10.065
-10.063 -10.060 -10.058 -10.056 -10.056 -10.054 -10.040 -10.038
-10.035 -10.034 -10.020 -10.018 -10.018 -10.017  -1.021  -1.011
 -1.005  -1.001  -0.969  -0.968  -0.945  -0.936  -0.929  -0.928
 -0.764  -0.762  -0.728  -0.721  -0.713  -0.704  -0.696  -0.660
 -0.657  -0.618  -0.597  -0.575  -0.545  -0.543  -0.537  -0.535
 -0.511  -0.510  -0.487  -0.471  -0.461  -0.458  -0.452  -0.450
 -0.434  -0.430  -0.421  -0.417  -0.410  -0.407  -0.406  -0.404
 -0.399  -0.377  -0.372  -0.365  -0.361  -0.359  -0.355  -0.346
 -0.343  -0.342  -0.338  -0.334  -0.328  -0.323  -0.317  -0.312
 -0.309  -0.305  -0.301  -0.300  -0.290  -0.287  -0.280  -0.274
 -0.271  -0.254  -0.252  -0.246  -0.242  -0.234  -0.232  -0.190
 -0.176  -0.170  -0.165  -0.162  -0.158  -0.147  -0.146  -0.144
 -0.141

          Ground-State Mulliken Net Atomic Charges

     Atom                 Charge (a.u.)
  ----------------------------------------
      1 O                    -0.212222
      2 C                     0.212892
      3 C                    -0.079965
      4 C                    -0.076695
      5 C                     0.215748
      6 O                    -0.175428
      7 C                    -0.058001
      8 C                    -0.054423
      9 O                    -0.171947
     10 C                     0.215921
     11 C                    -0.079040
     12 C                    -0.082074
     13 C                     0.218110
     14 O                    -0.215114
     15 O                    -0.172278
     16 O                    -0.180215
     17 O                    -0.207546
     18 C                    -0.127646
     19 C                     0.025037
     20 C                    -0.144353
     21 C                    -0.142954
     22 C                     0.023707
     23 O                    -0.190932
     24 H                     0.093373
     25 H                     0.083808
     26 H                     0.085810
     27 H                     0.078365
     28 H                     0.075690
     29 H                     0.078184
     30 H                     0.073439
     31 H                     0.091206
     32 O                    -0.207933
     33 C                    -0.128102
     34 C                     0.024503
     35 C                    -0.142713
     36 C                    -0.143240
     37 C                     0.019926
     38 O                    -0.193194
     39 H                     0.082768
     40 H                     0.085973
     41 H                     0.087403
     42 H                     0.090981
     43 H                     0.076414
     44 H                     0.072640
     45 H                     0.080247
     46 H                     0.070317
     47 H                     0.093559
     48 H                     0.092487
     49 H                     0.089543
     50 H                     0.084257
     51 H                     0.087862
     52 H                     0.093413
     53 H                     0.102584
     54 H                     0.089500
     55 H                     0.105167
     56 H                     0.085180
  ----------------------------------------
  Sum of atomic charges =     0.000000

                    Cartesian Multipole Moments
 -----------------------------------------------------------------
    Charge (ESU x 10^10)
                 0.0000
    Dipole Moment (Debye)
         X       1.7813      Y       1.4738      Z       0.3983
       Tot       2.3460
    Quadrupole Moments (Debye-Ang)
        XX    -165.8755     XY       2.3833     YY    -150.3957
        XZ      -7.9518     YZ      -1.1580     ZZ    -156.6176

 Total job time:  61.82s(wall), 2944.61s(cpu)
        *  Thank you very much for using Q-Chem.  Have a nice day.  *
