 Q-Chem 5.0, Q-Chem, Inc., Pleasanton, CA (2017)
 Q-Chem 5.0.1 for Intel X86 EM64T Linux

User input:
--------------------------------------------------------------
$molecule
0  1
O 4.8684457527 -1.037906853 -0.680485447
C 4.6053734804 0.1235777532 -0.302391544
C 3.374049291 1.0120210055 -0.7003561099
C 2.0797019226 0.2226862466 -1.1482201304
C 2.0285993583 -1.2356588518 -0.5755599766
O 1.1696993318 -2.0351288232 -1.4096900545
C 0.8465752289 -3.3047103599 -0.7162032892
C -0.6773699301 -3.4063049981 -0.3660628833
O -1.046703299 -2.3468746392 0.6047326612
C -1.8592442044 -1.3489624737 -0.0094791705
C -2.2296297876 -0.2803929997 1.0752213173
C -3.0868448483 0.9017364753 0.4735738176
C -3.1257780334 0.9565503508 -1.0970941765
O -4.137658053 1.0254835171 -1.8253849575
O 5.4470101067 0.8881342753 0.5690210619
O -1.7832224666 1.1779464567 -1.5630804676
O -2.2768032029 -1.3993611601 -1.1899568617
C -1.7570838854 1.1843635018 -3.0404238983
C -3.2895167495 -0.9169578187 2.077599473
C -3.5299083053 0.0861622764 3.2752237642
C -4.4727872391 1.1524645046 2.6025604217
C -4.5072572848 0.6222915913 1.1182035783
O -4.5422660996 -0.8504550824 1.290367764
H -1.3168057532 0.0626164372 1.5936918277
H -2.6817381555 1.8712299043 0.8180488289
H -3.0620179398 -1.9603718187 2.3706030134
H -4.0261257959 -0.4262566422 4.1146926079
H -2.5856888842 0.5240178635 3.6369349565
H -5.4826843493 1.1312749663 3.0424736246
H -4.0765408291 2.1780534597 2.6727946746
H -5.3583785867 0.961305723 0.4959170298
O 2.5118756755 -1.6372704687 0.5056172331
C 6.630804881 0.0870407959 0.9563254533
C 2.7840864051 1.9479434174 0.4504591793
C 2.1695561872 3.2118604618 -0.2625968555
C 0.946917465 2.5499347967 -0.9986411416
C 0.9720598857 1.0829507326 -0.4076020822
O 1.5755518541 1.2390021666 0.9371932415
H 3.7171420095 1.6480884678 -1.5383457479
H 1.9450765853 0.2000753421 -2.2438415877
H 7.2563799194 -0.1695207579 0.076794072
H 3.4875701603 2.1475799085 1.2812514502
H 1.8386124349 3.9504211302 0.4854650031
H 2.8778052851 3.6970553943 -0.952844964
H -0.0067619438 3.0413144428 -0.7511712588
H 1.0652120756 2.5499285928 -2.0938587919
H -0.0287817604 0.6114114975 -0.3717970115
H 6.3369380873 -0.8537189481 1.464787763
H 7.2128511784 0.7193511562 1.6517709732
H -0.714806194 1.4116163402 -3.3293447203
H -2.4370680984 1.9540939362 -3.4592475818
H -2.0463590059 0.1941962526 -3.4484880779
H -1.3019922269 -3.2921324533 -1.2786695498
H -0.8765650156 -4.3874018612 0.1135688413
H 1.4608289036 -3.3530255867 0.2103598866
H 1.1171064692 -4.1469830249 -1.3880158353
$end

$rem
JOBTYPE                   OPT
METHOD                    B3LYP
DFT_D                     d3_op
BASIS                     STO-3G
GEOM_OPT_MAX_CYCLES       100
GEOM_OPT_TOL_GRADIENT     300
GEOM_OPT_TOL_DISPLACEMENT 1200
GEOM_OPT_TOL_ENERGY       100
SYMMETRY                  False
THRESH                    12
SCF_CONVERGENCE           8
MAX_SUB_FILE_NUM          128
MEM_STATIC                400
MEM_TOTAL                 4000
$end
--------------------------------------------------------------

   16   -1510.2870051053      6.06E-09 Convergence criterion met
 Total energy in the final basis set = -1510.28700511
   14   -1510.2890037245      2.65E-09 Convergence criterion met
 Total energy in the final basis set = -1510.28900372
   14   -1510.2844651108      3.04E-09 Convergence criterion met
 Total energy in the final basis set = -1510.28446511
   14   -1510.2911498930      3.95E-09 Convergence criterion met
 Total energy in the final basis set = -1510.29114989
   14   -1510.2909997892      6.01E-09 Convergence criterion met
 Total energy in the final basis set = -1510.29099979
   14   -1510.2942782973      2.53E-09 Convergence criterion met
 Total energy in the final basis set = -1510.29427830
   14   -1510.2926239395      3.90E-09 Convergence criterion met
 Total energy in the final basis set = -1510.29262394
   14   -1510.2936294323      3.00E-09 Convergence criterion met
   11   -1510.3062143783      6.58E-09 Convergence criterion met
 Total energy in the final basis set = -1510.30621438
   11   -1510.3062382510      6.22E-09 Convergence criterion met
 Total energy in the final basis set = -1510.30623825
   12   -1510.3062464931      3.27E-09 Convergence criterion met
 Total energy in the final basis set = -1510.30624649
   10   -1510.3062482753      6.52E-09 Convergence criterion met
 Total energy in the final basis set = -1510.30624828
    9   -1510.3062464285      8.69E-09 Convergence criterion met
 Total energy in the final basis set = -1510.30624643
    9   -1510.3062489959      4.42E-09 Convergence criterion met
 Total energy in the final basis set = -1510.30624900

             Standard Nuclear Orientation (Angstroms)
    I     Atom           X                Y                Z
 ----------------------------------------------------------------
    1      O       4.1242676387    -0.3617314127     1.7779421309
    2      C       3.0707738634     0.0770996613     1.2703739402
    3      C       2.9582580889     1.1330208733     0.1124019416
    4      C       2.1881111447     0.5971347458    -1.1658748564
    5      C       1.9683532610    -0.9534415852    -1.1157745791
    6      O       1.0416782161    -1.3613756730    -2.1294370734
    7      C       0.9561961923    -2.8446549274    -2.1518700204
    8      C      -0.1304977477    -3.3751111151    -1.1281092788
    9      O      -0.2128692347    -2.4580714461     0.0315888658
   10      C      -1.2340916753    -1.4791092132    -0.2126312086
   11      C      -1.1736261834    -0.3822570191     0.8865455892
   12      C      -2.0727066436     0.8705343488     0.5277575599
   13      C      -2.8111340556     0.7686234777    -0.8549927585
   14      O      -4.0316829361     0.6116087114    -1.0610740465
   15      O       1.7530954544    -0.2597259037     1.7482400639
   16      O      -1.8584840878     1.0492516167    -1.9056728388
   17      O      -2.0346545703    -1.5419872067    -1.1747780593
   18      C      -2.4828641169     0.8585366676    -3.2301267331
   19      C      -1.8525734234    -0.8506925227     2.2442340193
   20      C      -1.4412859282     0.1807755713     3.3700814849
   21      C      -2.3643793899     1.4041819306     3.0148629669
   22      C      -3.1033671364     0.8631828094     1.7299462560
   23      O      -3.2896536123    -0.5788838835     2.0220275053
   24      H      -0.1109613062    -0.0890184671     1.0420353818
   25      H      -1.4291663876     1.7708523210     0.5224325816
   26      H      -1.6927604270    -1.9172043408     2.4967636276
   27      H      -1.6680696150    -0.2236898141     4.3693105020
   28      H      -0.3708837387     0.4345200914     3.3202573970
   29      H      -3.0882415996     1.6110169551     3.8191206918
   30      H      -1.7907339629     2.3213609168     2.8069017981
   31      H      -4.0772858810     1.3356231797     1.4973095927
   32      O       2.5861990116    -1.7541152331    -0.3767143768
   33      C       1.8532890317    -1.3837003621     2.7061558972
   34      C       2.0336057956     2.3570678129     0.5160947213
   35      C       2.1950427352     3.4968254292    -0.5668779045
   36      C       1.3283423933     2.9221613132    -1.7495207419
   37      C       0.8944083054     1.5217359730    -1.1652095214
   38      O       0.6756957073     1.8293257184     0.2682130067
   39      H       3.9841315296     1.4538820118    -0.1390436977
   40      H       2.7824398147     0.7933363814    -2.0784207164
   41      H       2.3832740982    -1.0846874305     3.6336230822
   42      H       2.1386328975     2.6849966987     1.5684299035
   43      H       1.7895705827     4.4490030887    -0.1895050108
   44      H       3.2492205170     3.6496661012    -0.8484878734
   45      H       0.4389973912     3.5453648601    -1.9362697606
   46      H       1.8964027180     2.8290271449    -2.6887781921
   47      H      -0.0451863005     1.1016453902    -1.5996976563
   48      H       2.3834166683    -2.2447624431     2.2516762114
   49      H       0.8167056718    -1.6761420346     2.9493707182
   50      H      -1.7139345442     1.1315107969    -3.9762949878
   51      H      -3.3743723435     1.5057968702    -3.3587438115
   52      H      -2.7866115609    -0.1981888420    -3.3776991539
   53      H      -1.1238850297    -3.4260781048    -1.6208340858
   54      H       0.1634887641    -4.3710765356    -0.7418506734
   55      H       1.9472925664    -3.2747919315    -1.8992980294
   56      H       0.6724567911    -3.1215582520    -3.1867506622
 ----------------------------------------------------------------

    9   -1510.3062481899      2.72E-09 Convergence criterion met
 Total energy in the final basis set = -1510.30624819
 Final energy is   -1510.30624818992
 **  OPTIMIZATION CONVERGED  **

                    Orbital Energies (a.u.)
 --------------------------------------------------------------

 Alpha MOs
 -- Occupied --
-18.945 -18.937 -18.928 -18.923 -18.891 -18.886 -18.881 -18.877
-18.868 -18.861 -10.109 -10.100 -10.096 -10.089 -10.077 -10.073
-10.064 -10.057 -10.056 -10.052 -10.048 -10.047 -10.041 -10.037
-10.021 -10.019 -10.018 -10.018 -10.011 -10.010  -1.027  -1.012
 -1.003  -0.997  -0.973  -0.961  -0.946  -0.938  -0.930  -0.925
 -0.765  -0.753  -0.726  -0.719  -0.710  -0.702  -0.692  -0.655
 -0.653  -0.620  -0.596  -0.575  -0.546  -0.539  -0.538  -0.529
 -0.512  -0.502  -0.489  -0.480  -0.465  -0.456  -0.445  -0.441
 -0.428  -0.427  -0.419  -0.417  -0.410  -0.407  -0.404  -0.403
 -0.396  -0.382  -0.371  -0.367  -0.361  -0.357  -0.347  -0.346
 -0.342  -0.339  -0.333  -0.328  -0.324  -0.323  -0.316  -0.315
 -0.306  -0.304  -0.301  -0.295  -0.293  -0.284  -0.279  -0.270
 -0.267  -0.258  -0.248  -0.246  -0.242  -0.236  -0.220  -0.196
 -0.174  -0.171  -0.166  -0.163  -0.157  -0.148  -0.146  -0.140
 -0.135

          Ground-State Mulliken Net Atomic Charges

     Atom                 Charge (a.u.)
  ----------------------------------------
      1 O                    -0.213197
      2 C                     0.215854
      3 C                    -0.080624
      4 C                    -0.080533
      5 C                     0.214739
      6 O                    -0.168512
      7 C                    -0.052800
      8 C                    -0.055035
      9 O                    -0.171329
     10 C                     0.212848
     11 C                    -0.092580
     12 C                    -0.087354
     13 C                     0.219124
     14 O                    -0.213981
     15 O                    -0.175375
     16 O                    -0.179925
     17 O                    -0.211402
     18 C                    -0.126703
     19 C                     0.023446
     20 C                    -0.145060
     21 C                    -0.143137
     22 C                     0.024089
     23 O                    -0.191524
     24 H                     0.117876
     25 H                     0.099251
     26 H                     0.078622
     27 H                     0.073804
     28 H                     0.078711
     29 H                     0.075089
     30 H                     0.074502
     31 H                     0.086320
     32 O                    -0.209492
     33 C                    -0.128059
     34 C                     0.025957
     35 C                    -0.144943
     36 C                    -0.143779
     37 C                     0.008163
     38 O                    -0.195306
     39 H                     0.084860
     40 H                     0.085757
     41 H                     0.085194
     42 H                     0.082154
     43 H                     0.076948
     44 H                     0.073505
     45 H                     0.077559
     46 H                     0.071551
     47 H                     0.115280
     48 H                     0.096320
     49 H                     0.089570
     50 H                     0.085522
     51 H                     0.088230
     52 H                     0.093501
     53 H                     0.099744
     54 H                     0.090234
     55 H                     0.095466
     56 H                     0.090864
  ----------------------------------------
  Sum of atomic charges =    -0.000000

                    Cartesian Multipole Moments
 -----------------------------------------------------------------
    Charge (ESU x 10^10)
                -0.0000
    Dipole Moment (Debye)
         X       2.1105      Y       0.7973      Z      -1.5410
       Tot       2.7321
    Quadrupole Moments (Debye-Ang)
        XX    -181.8331     XY       1.6104     YY    -147.3847
        XZ      -5.6497     YZ       2.7344     ZZ    -149.6728

 Total job time:  146.48s(wall), 6987.05s(cpu)
        *  Thank you very much for using Q-Chem.  Have a nice day.  *
