 Q-Chem 5.0, Q-Chem, Inc., Pleasanton, CA (2017)
 Q-Chem 5.0.1 for Intel X86 EM64T Linux

User input:
--------------------------------------------------------------
$molecule
0  1
O 5.1861815769 -1.021117718 -0.6377824407
C 4.7074296975 0.1319632328 -0.6730298065
C 3.295029969 0.5776597893 -1.1941571002
C 2.16004751 -0.5207802862 -1.1537851295
C 2.3925386023 -1.6526449011 -0.0893658855
O 1.449628416 -2.7277484486 -0.3189489499
C 0.9698706641 -3.2807980561 0.966874567
C -0.5205913131 -2.9719278065 1.3683635562
O -0.8264986447 -1.5407368687 1.6037052312
C -1.8091110441 -1.0683830631 0.6788938836
C -2.1114482811 0.4394959773 0.9879820235
C -3.1534283356 1.0374674172 -0.0361354287
C -3.3614300111 0.1847896771 -1.3406162601
O -4.4442701281 -0.2140401317 -1.817653999
O 5.4205124187 1.3046009426 -0.2598156963
O -2.1030624162 0.1361018959 -2.0338006165
O -2.3789569084 -1.787103186 -0.1753375519
C -2.2321840082 -0.6774025194 -3.260282242
C -2.9704824393 0.4974547308 2.3267580116
C -3.1963810724 2.0056517719 2.7415450425
C -4.3330109261 2.4367751522 1.7400891474
C -4.4574940465 1.13512136 0.8594660203
O -4.3006189356 0.0470046532 1.8549760655
H -1.174055261 1.0180849697 1.0582816127
H -2.8266757529 2.0442837778 -0.3557296937
H -2.5935899638 -0.1636792917 3.1314009074
H -3.5299388599 2.0713634638 3.7892865255
H -2.2786235474 2.6047767411 2.626333654
H -5.2793144685 2.6351965621 2.2685133249
H -4.0661249842 3.3245525402 1.1447304767
H -5.4018331829 1.0119710997 0.2939170241
O 3.1030561131 -1.5822729219 0.9359287773
C 6.7696068378 0.9290804607 0.2210216464
C 2.5946882131 1.7786299149 -0.4110413636
C 1.6973427442 2.5442478447 -1.4575757719
C 0.596282233 1.4553174419 -1.735193968
C 0.9512487981 0.3628846804 -0.6490490939
O 1.5806438664 1.1282128526 0.4546801656
H 3.4496901092 0.8862768223 -2.2457386466
H 1.96691866 -0.9709343409 -2.1436887704
H 7.374278116 0.4604538617 -0.5823114141
H 3.2870466014 2.4010138415 0.1877089541
H 1.2630542953 3.4480080732 -1.0001251893
H 2.2537652291 2.8352123484 -2.3626224592
H -0.426321611 1.8321748903 -1.5798904541
H 0.6576720007 1.0436626627 -2.7552292586
H 0.096341473 -0.2326347222 -0.2898765049
H 6.7160871711 0.2249128376 1.0763129615
H 7.2511153315 1.8701302853 0.5447675001
H -1.2625229654 -0.5980673834 -3.7854636503
H -3.0443655217 -0.3056366776 -3.9179696888
H -2.433933811 -1.7405182119 -3.0152786027
H -1.2191204213 -3.3424231693 0.5853933923
H -0.7134145564 -3.5151882569 2.3181138712
H 1.6560904246 -2.9370782201 1.7725210309
H 1.0430300624 -4.3883324547 0.9012902355
$end

$rem
JOBTYPE                   OPT
METHOD                    B3LYP
DFT_D                     d3_op
BASIS                     STO-3G
GEOM_OPT_MAX_CYCLES       100
GEOM_OPT_TOL_GRADIENT     300
GEOM_OPT_TOL_DISPLACEMENT 1200
GEOM_OPT_TOL_ENERGY       100
SYMMETRY                  False
THRESH                    12
SCF_CONVERGENCE           8
MAX_SUB_FILE_NUM          128
MEM_STATIC                400
MEM_TOTAL                 4000
$end
--------------------------------------------------------------

   16   -1510.2754519112      5.88E-09 Convergence criterion met
 Total energy in the final basis set = -1510.27545191
   14   -1510.2803035931      3.42E-09 Convergence criterion met
 Total energy in the final basis set = -1510.28030359
   14   -1510.2780930590      2.64E-09 Convergence criterion met
 Total energy in the final basis set = -1510.27809306
   14   -1510.2886058176      3.56E-09 Convergence criterion met
 Total energy in the final basis set = -1510.28860582
   14   -1510.2906420932      4.74E-09 Convergence criterion met
 Total energy in the final basis set = -1510.29064209
   14   -1510.2928526603      2.09E-09 Convergence criterion met
 Total energy in the final basis set = -1510.29285266
   14   -1510.2926525753      3.78E-09 Convergence criterion met
 Total energy in the final basis set = -1510.29265258
   13   -1510.2945998248      7.92E-09 Convergence criterion met
   12   -1510.3070494182      6.93E-09 Convergence criterion met
 Total energy in the final basis set = -1510.30704942
   11   -1510.3070761258      6.12E-09 Convergence criterion met
 Total energy in the final basis set = -1510.30707613
   11   -1510.3070793348      9.20E-09 Convergence criterion met
 Total energy in the final basis set = -1510.30707933
   10   -1510.3070823156      6.23E-09 Convergence criterion met
 Total energy in the final basis set = -1510.30708232
    9   -1510.3070829603      6.84E-09 Convergence criterion met
 Total energy in the final basis set = -1510.30708296
    9   -1510.3070844201      3.95E-09 Convergence criterion met
 Total energy in the final basis set = -1510.30708442

             Standard Nuclear Orientation (Angstroms)
    I     Atom           X                Y                Z
 ----------------------------------------------------------------
    1      O       4.2057370835     0.3677623993     1.5432235467
    2      C       3.1237126256     0.5849429991     0.9580961458
    3      C       2.9277865591     1.1574104177    -0.4912954200
    4      C       2.0976309532     0.1954522735    -1.4396551633
    5      C       1.9155753693    -1.2381877254    -0.8310609143
    6      O       0.7895035825    -1.8793083707    -1.4402895545
    7      C       0.6576059729    -3.2734644330    -0.9492372874
    8      C       0.2602632131    -3.3509954957     0.5913183924
    9      O       0.0527897714    -2.0040205983     1.1653372845
   10      C      -1.1053607034    -1.3959279617     0.5803016197
   11      C      -1.1763271107     0.0860440935     1.0492764296
   12      C      -2.1995984389     0.9405222166     0.1995592595
   13      C      -2.8823990760     0.1460195469    -0.9697542483
   14      O      -4.0746910566    -0.2080194401    -1.0651318514
   15      O       1.8327743874     0.4119615986     1.5661434345
   16      O      -1.9168995607    -0.0118915520    -2.0326779125
   17      O      -1.9015592850    -2.0041231205    -0.1708144896
   18      C      -2.4573731811    -0.8800959160    -3.0975043633
   19      C      -1.8195605186     0.2059034036     2.4962555303
   20      C      -1.5544702641     1.6684538234     3.0324628949
   21      C      -2.6021876643     2.4927322656     2.1950272533
   22      C      -3.2482996154     1.3550519048     1.3110463608
   23      O      -3.2741985865     0.1859783604     2.2224209685
   24      H      -0.1530375450     0.5194642443     0.9993085995
   25      H      -1.6715905061     1.8141991111    -0.2252368712
   26      H      -1.5445787571    -0.6100949654     3.1928556327
   27      H      -1.7605009690     1.7291164905     4.1130363476
   28      H      -0.5170571925     1.9906968247     2.8477113334
   29      H      -3.3623828355     2.9557219853     2.8442597531
   30      H      -2.1314541654     3.2778016186     1.5823061339
   31      H      -4.2647515478     1.5622147284     0.9239844768
   32      O       2.6674760876    -1.7906673317     0.0027713928
   33      C       1.9806848938    -0.2481408809     2.8811952953
   34      C       1.9862398273     2.4344218498    -0.4887052439
   35      C       2.0303817119     3.1100731068    -1.9171493009
   36      C       1.0972995106     2.1460713688    -2.7428958576
   37      C       0.7687193043     1.0399429603    -1.6683958965
   38      O       0.6336379158     1.8394432775    -0.4264973495
   39      H       3.9286207306     1.3742138857    -0.9032639534
   40      H       2.6242896287     0.0635040182    -2.4040136665
   41      H       2.6323384365     0.3368701613     3.5618653288
   42      H       2.1486239516     3.1221499187     0.3637909082
   43      H       1.6235740320     4.1328488154    -1.8739752486
   44      H       3.0554312965     3.1554013672    -2.3187303185
   45      H       0.1719881255     2.6556796896    -3.0558062216
   46      H       1.5922731572     1.7343537700    -3.6367618941
   47      H      -0.1690493183     0.4581180967    -1.8496065282
   48      H       2.4036668444    -1.2667025276     2.7668274925
   49      H       0.9630138804    -0.3188768241     3.3046424791
   50      H      -1.6706430795    -0.9444733500    -3.8716284411
   51      H      -3.3830344093    -0.4576440182    -3.5393306747
   52      H      -2.6795487403    -1.8938443114    -2.7056254109
   53      H      -0.6512555044    -3.9756467220     0.7051363976
   54      H       1.0889431709    -3.7898285171     1.1795375943
   55      H       1.6019471210    -3.8342163130    -1.1151164873
   56      H      -0.1462578637    -3.7111135803    -1.5722216185
 ----------------------------------------------------------------

    9   -1510.3070844696      3.14E-09 Convergence criterion met
 Total energy in the final basis set = -1510.30708447
 Final energy is   -1510.30708446958
 **  OPTIMIZATION CONVERGED  **

                    Orbital Energies (a.u.)
 --------------------------------------------------------------

 Alpha MOs
 -- Occupied --
-18.944 -18.936 -18.928 -18.926 -18.889 -18.882 -18.878 -18.877
-18.869 -18.865 -10.107 -10.098 -10.095 -10.092 -10.078 -10.075
-10.063 -10.058 -10.057 -10.053 -10.049 -10.044 -10.039 -10.036
-10.023 -10.021 -10.017 -10.017 -10.013 -10.011  -1.027  -1.010
 -1.003  -0.999  -0.971  -0.962  -0.944  -0.938  -0.930  -0.927
 -0.764  -0.754  -0.726  -0.719  -0.710  -0.701  -0.692  -0.655
 -0.654  -0.621  -0.596  -0.577  -0.545  -0.539  -0.538  -0.530
 -0.512  -0.502  -0.482  -0.476  -0.467  -0.458  -0.445  -0.441
 -0.429  -0.427  -0.421  -0.419  -0.409  -0.407  -0.405  -0.403
 -0.393  -0.378  -0.371  -0.367  -0.361  -0.355  -0.347  -0.343
 -0.343  -0.341  -0.332  -0.329  -0.324  -0.321  -0.317  -0.313
 -0.305  -0.303  -0.299  -0.296  -0.292  -0.285  -0.278  -0.273
 -0.268  -0.260  -0.249  -0.245  -0.244  -0.234  -0.221  -0.196
 -0.173  -0.171  -0.168  -0.161  -0.154  -0.146  -0.146  -0.141
 -0.136

          Ground-State Mulliken Net Atomic Charges

     Atom                 Charge (a.u.)
  ----------------------------------------
      1 O                    -0.212336
      2 C                     0.214107
      3 C                    -0.080294
      4 C                    -0.080394
      5 C                     0.214705
      6 O                    -0.167836
      7 C                    -0.050756
      8 C                    -0.050319
      9 O                    -0.170490
     10 C                     0.213372
     11 C                    -0.092841
     12 C                    -0.084616
     13 C                     0.220012
     14 O                    -0.211616
     15 O                    -0.173379
     16 O                    -0.178324
     17 O                    -0.214111
     18 C                    -0.125802
     19 C                     0.023455
     20 C                    -0.144073
     21 C                    -0.143131
     22 C                     0.024240
     23 O                    -0.191332
     24 H                     0.120669
     25 H                     0.093998
     26 H                     0.078162
     27 H                     0.074415
     28 H                     0.077364
     29 H                     0.075450
     30 H                     0.074330
     31 H                     0.086606
     32 O                    -0.212316
     33 C                    -0.125944
     34 C                     0.025899
     35 C                    -0.144979
     36 C                    -0.144002
     37 C                     0.005638
     38 O                    -0.195715
     39 H                     0.084720
     40 H                     0.084503
     41 H                     0.086410
     42 H                     0.081270
     43 H                     0.076497
     44 H                     0.073298
     45 H                     0.076494
     46 H                     0.071332
     47 H                     0.116659
     48 H                     0.093467
     49 H                     0.089348
     50 H                     0.086868
     51 H                     0.088036
     52 H                     0.094175
     53 H                     0.090913
     54 H                     0.094487
     55 H                     0.088734
     56 H                     0.094974
  ----------------------------------------
  Sum of atomic charges =    -0.000000

                    Cartesian Multipole Moments
 -----------------------------------------------------------------
    Charge (ESU x 10^10)
                -0.0000
    Dipole Moment (Debye)
         X       1.6738      Y       0.5041      Z      -1.7042
       Tot       2.4413
    Quadrupole Moments (Debye-Ang)
        XX    -182.5099     XY      -1.7357     YY    -146.7586
        XZ      -4.0040     YZ       1.1449     ZZ    -150.2977

 Total job time:  170.07s(wall), 8109.21s(cpu)
        *  Thank you very much for using Q-Chem.  Have a nice day.  *
