 Q-Chem 5.0, Q-Chem, Inc., Pleasanton, CA (2017)
 Q-Chem 5.0.1 for Intel X86 EM64T Linux

User input:
--------------------------------------------------------------
$molecule
0  1
O -3.94934 -3.66094 2.70899
C -3.26408 -4.56952 2.26188
C -3.36658 -6.02376 2.66595
C -4.71828 -6.50621 3.21732
C -5.8678 -5.52628 3.13726
O -6.92057 -5.98457 3.87691
C -8.19053 -5.72821 3.26803
C -8.80267 -7.02986 2.76097
O -7.98412 -7.58192 1.71786
C -7.45219 -8.80195 1.97808
C -6.62183 -9.33752 0.83601
C -5.95531 -10.69532 1.10138
C -6.48772 -11.47192 2.28886
O -6.86326 -12.63508 2.26438
O -2.19457 -4.24767 1.48716
O -6.19182 -10.9394 3.50794
O -8.0801 -9.54751 2.71861
C -6.44631 -11.55364 4.71641
C -7.51186 -9.73752 -0.37745
C -6.6885 -9.68524 -1.66581
C -5.74336 -10.8455 -1.43525
C -6.37014 -11.4545 -0.17289
O -7.73155 -11.11987 -0.25417
H -6.02493 -8.53971 0.39769
H -4.85622 -10.60331 1.22384
H -8.42521 -9.11246 -0.48848
H -7.38808 -9.95078 -2.49143
H -6.19725 -8.71908 -1.91105
H -5.80811 -11.52853 -2.31074
H -4.68536 -10.56326 -1.24205
H -6.13724 -12.54067 -0.11696
O -6.02722 -4.87698 2.10795
C -1.89017 -2.96811 1.07209
C -3.06389 -7.07029 1.58863
C -2.34307 -8.24517 2.2333
C -3.42832 -8.73136 3.17108
C -4.63629 -7.90263 2.65927
O -4.3104 -7.6333 1.32042
H -2.56087 -6.10416 3.43424
H -4.60017 -6.60101 4.32175
H -1.70858 -2.31277 1.95061
H -2.50516 -6.69011 0.70671
H -2.18861 -8.99602 1.42455
H -1.3687 -8.02979 2.72232
H -3.5461 -9.82654 3.02508
H -3.24561 -8.51876 4.24705
H -5.48843 -8.45496 2.99529
H -2.72228 -2.55667 0.46153
H -0.97128 -2.9961 0.45133
H -6.1075 -10.8904 5.53846
H -5.89361 -12.51505 4.78182
H -7.53614 -11.73697 4.82935
H -8.93718 -7.67955 3.65453
H -9.81315 -6.82505 2.34774
H -8.2107 -5.00056 2.42798
H -8.85662 -5.28962 4.04116
$end

$opt
CONSTRAINT
tors           1           2           3           4     +25.428
tors           3           4           5           6    -168.749
tors           4           5           6           7    -141.750
tors           5           6           7           8    +108.940
tors           6           7           8           9     -64.284
tors           7           8           9          10    +118.120
tors           8           9          10          11    +179.054
tors           9          10          11          12    +177.893
tors          11          12          13          14    +128.022
ENDCONSTRAINT
$end

$rem
JOBTYPE                   OPT
METHOD                    B3LYP
DFT_D                     d3_op
BASIS                     STO-3G
GEOM_OPT_MAX_CYCLES       100
GEOM_OPT_TOL_GRADIENT     300
GEOM_OPT_TOL_DISPLACEMENT 1200
GEOM_OPT_TOL_ENERGY       100
SYMMETRY                  False
THRESH                    12
SCF_CONVERGENCE           8
MAX_SUB_FILE_NUM          128
MEM_STATIC                400
MEM_TOTAL                 4000
$end
--------------------------------------------------------------

   15   -1510.0782981849      8.07E-09 Convergence criterion met
 Total energy in the final basis set = -1510.07829818
   14   -1510.1578830562      6.66E-09 Convergence criterion met
 Total energy in the final basis set = -1510.15788306
   14   -1510.1979377223      9.50E-09 Convergence criterion met
 Total energy in the final basis set = -1510.19793772
   14   -1510.2326135967      7.15E-09 Convergence criterion met
 Total energy in the final basis set = -1510.23261360
   13   -1510.2479119040      5.95E-09 Convergence criterion met
 Total energy in the final basis set = -1510.24791190
   13   -1510.2575906161      4.55E-09 Convergence criterion met
 Total energy in the final basis set = -1510.25759062
   13   -1510.2637703748      4.28E-09 Convergence criterion met
 Total energy in the final basis set = -1510.26377037
   13   -1510.2676971822      3.62E-09 Convergence criterion met
   11   -1510.2756220271      1.59E-09 Convergence criterion met
 Total energy in the final basis set = -1510.27562203
    9   -1510.2756220673      8.07E-09 Convergence criterion met
 Total energy in the final basis set = -1510.27562207
    9   -1510.2756233042      5.33E-09 Convergence criterion met
 Total energy in the final basis set = -1510.27562330
    9   -1510.2756193118      4.69E-09 Convergence criterion met
 Total energy in the final basis set = -1510.27561931
    9   -1510.2756211149      4.45E-09 Convergence criterion met
 Total energy in the final basis set = -1510.27562111
    9   -1510.2756221411      3.49E-09 Convergence criterion met
 Total energy in the final basis set = -1510.27562214

             Standard Nuclear Orientation (Angstroms)
    I     Atom           X                Y                Z
 ----------------------------------------------------------------
    1      O       5.1861815769    -1.0211177180    -0.6377824407
    2      C       4.7074296975     0.1319632328    -0.6730298065
    3      C       3.2950299690     0.5776597893    -1.1941571002
    4      C       2.1600475100    -0.5207802862    -1.1537851295
    5      C       2.3925386023    -1.6526449011    -0.0893658855
    6      O       1.4496284160    -2.7277484486    -0.3189489499
    7      C       0.9698706641    -3.2807980561     0.9668745670
    8      C      -0.5205913131    -2.9719278065     1.3683635562
    9      O      -0.8264986447    -1.5407368687     1.6037052312
   10      C      -1.8091110441    -1.0683830631     0.6788938836
   11      C      -2.1114482811     0.4394959773     0.9879820235
   12      C      -3.1534283356     1.0374674172    -0.0361354287
   13      C      -3.3614300111     0.1847896771    -1.3406162601
   14      O      -4.4442701281    -0.2140401317    -1.8176539990
   15      O       5.4205124187     1.3046009426    -0.2598156963
   16      O      -2.1030624162     0.1361018959    -2.0338006165
   17      O      -2.3789569084    -1.7871031860    -0.1753375519
   18      C      -2.2321840082    -0.6774025194    -3.2602822420
   19      C      -2.9704824393     0.4974547308     2.3267580116
   20      C      -3.1963810724     2.0056517719     2.7415450425
   21      C      -4.3330109261     2.4367751522     1.7400891474
   22      C      -4.4574940465     1.1351213600     0.8594660203
   23      O      -4.3006189356     0.0470046532     1.8549760655
   24      H      -1.1740552610     1.0180849697     1.0582816127
   25      H      -2.8266757529     2.0442837778    -0.3557296937
   26      H      -2.5935899638    -0.1636792917     3.1314009074
   27      H      -3.5299388599     2.0713634638     3.7892865255
   28      H      -2.2786235474     2.6047767411     2.6263336540
   29      H      -5.2793144685     2.6351965621     2.2685133249
   30      H      -4.0661249842     3.3245525402     1.1447304767
   31      H      -5.4018331829     1.0119710997     0.2939170241
   32      O       3.1030561131    -1.5822729219     0.9359287773
   33      C       6.7696068378     0.9290804607     0.2210216464
   34      C       2.5946882131     1.7786299149    -0.4110413636
   35      C       1.6973427442     2.5442478447    -1.4575757719
   36      C       0.5962822330     1.4553174419    -1.7351939680
   37      C       0.9512487981     0.3628846804    -0.6490490939
   38      O       1.5806438664     1.1282128526     0.4546801656
   39      H       3.4496901092     0.8862768223    -2.2457386466
   40      H       1.9669186600    -0.9709343409    -2.1436887704
   41      H       7.3742781160     0.4604538617    -0.5823114141
   42      H       3.2870466014     2.4010138415     0.1877089541
   43      H       1.2630542953     3.4480080732    -1.0001251893
   44      H       2.2537652291     2.8352123484    -2.3626224592
   45      H      -0.4263216110     1.8321748903    -1.5798904541
   46      H       0.6576720007     1.0436626627    -2.7552292586
   47      H       0.0963414730    -0.2326347222    -0.2898765049
   48      H       6.7160871711     0.2249128376     1.0763129615
   49      H       7.2511153315     1.8701302853     0.5447675001
   50      H      -1.2625229654    -0.5980673834    -3.7854636503
   51      H      -3.0443655217    -0.3056366776    -3.9179696888
   52      H      -2.4339338110    -1.7405182119    -3.0152786027
   53      H      -1.2191204213    -3.3424231693     0.5853933923
   54      H      -0.7134145564    -3.5151882569     2.3181138712
   55      H       1.6560904246    -2.9370782201     1.7725210309
   56      H       1.0430300624    -4.3883324547     0.9012902355
 ----------------------------------------------------------------

    8   -1510.2756222613      8.37E-09 Convergence criterion met
 Total energy in the final basis set = -1510.27562226
 Final energy is   -1510.27562226134
 **  OPTIMIZATION CONVERGED  **

                    Orbital Energies (a.u.)
 --------------------------------------------------------------

 Alpha MOs
 -- Occupied --
-18.944 -18.931 -18.922 -18.920 -18.892 -18.887 -18.887 -18.883
-18.872 -18.865 -10.111 -10.099 -10.098 -10.094 -10.073 -10.069
-10.062 -10.061 -10.059 -10.058 -10.058 -10.057 -10.042 -10.040
-10.036 -10.035 -10.021 -10.020 -10.019 -10.018  -1.024  -1.010
 -1.004  -1.001  -0.971  -0.971  -0.948  -0.936  -0.930  -0.928
 -0.765  -0.763  -0.729  -0.723  -0.714  -0.706  -0.699  -0.660
 -0.657  -0.620  -0.598  -0.576  -0.546  -0.544  -0.538  -0.536
 -0.514  -0.510  -0.488  -0.472  -0.465  -0.458  -0.453  -0.451
 -0.435  -0.431  -0.420  -0.417  -0.410  -0.408  -0.407  -0.404
 -0.401  -0.377  -0.373  -0.370  -0.364  -0.360  -0.355  -0.348
 -0.344  -0.343  -0.339  -0.334  -0.329  -0.325  -0.318  -0.315
 -0.310  -0.306  -0.303  -0.301  -0.290  -0.288  -0.281  -0.275
 -0.271  -0.254  -0.251  -0.246  -0.240  -0.235  -0.235  -0.193
 -0.176  -0.169  -0.167  -0.163  -0.160  -0.147  -0.147  -0.144
 -0.143

          Ground-State Mulliken Net Atomic Charges

     Atom                 Charge (a.u.)
  ----------------------------------------
      1 O                    -0.209772
      2 C                     0.213117
      3 C                    -0.080337
      4 C                    -0.075225
      5 C                     0.218316
      6 O                    -0.183061
      7 C                    -0.054739
      8 C                    -0.057687
      9 O                    -0.171155
     10 C                     0.215340
     11 C                    -0.078114
     12 C                    -0.081803
     13 C                     0.217093
     14 O                    -0.215837
     15 O                    -0.172992
     16 O                    -0.180474
     17 O                    -0.204275
     18 C                    -0.128190
     19 C                     0.024908
     20 C                    -0.144562
     21 C                    -0.142751
     22 C                     0.023569
     23 O                    -0.191318
     24 H                     0.095659
     25 H                     0.082039
     26 H                     0.085879
     27 H                     0.078710
     28 H                     0.075415
     29 H                     0.078318
     30 H                     0.073060
     31 H                     0.091550
     32 O                    -0.198242
     33 C                    -0.128170
     34 C                     0.023909
     35 C                    -0.142959
     36 C                    -0.143804
     37 C                     0.020982
     38 O                    -0.193749
     39 H                     0.083032
     40 H                     0.086956
     41 H                     0.087558
     42 H                     0.091473
     43 H                     0.075791
     44 H                     0.073297
     45 H                     0.083403
     46 H                     0.072756
     47 H                     0.085851
     48 H                     0.092387
     49 H                     0.089284
     50 H                     0.084279
     51 H                     0.088209
     52 H                     0.091829
     53 H                     0.102000
     54 H                     0.088907
     55 H                     0.098258
     56 H                     0.086081
  ----------------------------------------
  Sum of atomic charges =     0.000000

                    Cartesian Multipole Moments
 -----------------------------------------------------------------
    Charge (ESU x 10^10)
                -0.0000
    Dipole Moment (Debye)
         X       1.2593      Y       2.1833      Z      -0.5187
       Tot       2.5732
    Quadrupole Moments (Debye-Ang)
        XX    -170.7378     XY       0.2383     YY    -153.3015
        XZ      -5.5648     YZ      -3.1808     ZZ    -153.8624

 Total job time:  77.88s(wall), 3710.12s(cpu)
        *  Thank you very much for using Q-Chem.  Have a nice day.  *
