 Q-Chem 5.0, Q-Chem, Inc., Pleasanton, CA (2017)
 Q-Chem 5.0.1 for Intel X86 EM64T Linux

User input:
--------------------------------------------------------------
$molecule
0  1
O 4.82413401 -1.4355221131 -0.0761426815
C 4.6108050388 -0.2372065777 0.2073348323
C 3.5708487004 0.7342157681 -0.4548852558
C 2.2999275324 0.0285216106 -1.0820991033
C 2.0013544344 -1.3395549652 -0.3824668657
O 1.2293575742 -2.2048385836 -1.241677365
C 0.7024368115 -3.3235759556 -0.424875665
C -0.8601789108 -3.4806474624 -0.4378629177
O -1.5592490918 -2.5394546127 0.4655960435
C -1.8324427374 -1.2981710779 -0.206783519
C -2.5891448833 -0.4123692863 0.8457777029
C -3.0127090849 1.0715994771 0.4728747807
C -2.903314159 1.5379338315 -1.0266132848
O -3.8174624568 2.0791256911 -1.6871481205
O 5.3451279435 0.4895309852 1.1997534514
O -1.563992445 1.4222188622 -1.5043850392
O -1.5680289123 -1.0951217603 -1.4094749402
C -1.5024389912 1.7941173493 -2.9362177652
C -4.0041316563 -1.0363712169 1.2478451422
C -4.3535215305 -0.5407835974 2.704560663
C -4.7007459298 0.9696661563 2.4302066583
C -4.5501589372 1.0390349106 0.8601344229
O -4.9685356789 -0.3063363525 0.3985002423
H -1.9381740083 -0.3877781048 1.7390387985
H -2.4414643268 1.7907956964 1.0892411053
H -4.0804140669 -2.1292478819 1.0869531636
H -5.2253668944 -1.0897135153 3.0951764909
H -3.5121182544 -0.668939566 3.4037802828
H -5.7324159379 1.210146101 2.7319761553
H -4.0129102936 1.6624679612 2.9408848302
H -5.1434035178 1.8214212153 0.3481021531
O 2.249902152 -1.6090840581 0.8152027605
C 6.3473041906 -0.398378645 1.8320789982
C 2.8982108177 1.8097611006 0.5092441145
C 2.5680008854 3.0654862798 -0.3819621175
C 1.4340626278 2.4671549907 -1.2909143141
C 1.1809213977 1.0573129157 -0.6146468042
O 1.5518846334 1.2654903234 0.8052140376
H 4.1202843374 1.2653747658 -1.2556174974
H 2.3569973731 -0.0921347285 -2.1777282769
H 7.0959728313 -0.7587823498 1.0969050234
H 3.4629841839 2.0040190321 1.441229189
H 2.1893758079 3.8906825046 0.2423884418
H 3.4387380344 3.4222489094 -0.954485983
H 0.5152061493 3.0721557433 -1.2533294226
H 1.7474489117 2.3659726581 -2.3422757232
H 0.1314007084 0.7119317392 -0.7240517344
H 5.8686521644 -1.2794700238 2.3062819603
H 6.8516252719 0.2108628146 2.6044955501
H -0.4827530343 1.5375797623 -3.2745366097
H -1.682224533 2.879262896 -3.0820019321
H -2.2452255089 1.2266719011 -3.5312537313
H -1.2402210381 -3.3718372414 -1.4768063048
H -1.100965337 -4.4940696289 -0.0569598493
H 1.0736530763 -3.1790222235 0.614935486
H 1.132664806 -4.2656753892 -0.8288053692
$end

$rem
JOBTYPE                   OPT
METHOD                    B3LYP
DFT_D                     d3_op
BASIS                     STO-3G
GEOM_OPT_MAX_CYCLES       100
GEOM_OPT_TOL_GRADIENT     300
GEOM_OPT_TOL_DISPLACEMENT 1200
GEOM_OPT_TOL_ENERGY       100
SYMMETRY                  False
THRESH                    12
SCF_CONVERGENCE           8
MAX_SUB_FILE_NUM          128
MEM_STATIC                400
MEM_TOTAL                 4000
$end
--------------------------------------------------------------

   16   -1510.2779871700      5.68E-09 Convergence criterion met
 Total energy in the final basis set = -1510.27798717
   14   -1510.2747380477      3.73E-09 Convergence criterion met
 Total energy in the final basis set = -1510.27473805
   13   -1510.2801889184      7.34E-09 Convergence criterion met
 Total energy in the final basis set = -1510.28018892
   14   -1510.2452257984      6.00E-09 Convergence criterion met
 Total energy in the final basis set = -1510.24522580
   14   -1510.2830737620      4.58E-09 Convergence criterion met
 Total energy in the final basis set = -1510.28307376
   13   -1510.2855088952      5.51E-09 Convergence criterion met
 Total energy in the final basis set = -1510.28550890
   13   -1510.2880735151      8.28E-09 Convergence criterion met
 Total energy in the final basis set = -1510.28807352
   14   -1510.2906521654      3.09E-09 Convergence criterion met
   11   -1510.3071563568      6.90E-09 Convergence criterion met
 Total energy in the final basis set = -1510.30715636
   12   -1510.3071735031      1.97E-09 Convergence criterion met
 Total energy in the final basis set = -1510.30717350
   10   -1510.3071631485      8.72E-09 Convergence criterion met
 Total energy in the final basis set = -1510.30716315
    9   -1510.3071611238      6.68E-09 Convergence criterion met
 Total energy in the final basis set = -1510.30716112
    9   -1510.3071708659      3.39E-09 Convergence criterion met
 Total energy in the final basis set = -1510.30717087
    9   -1510.3071619376      2.97E-09 Convergence criterion met
 Total energy in the final basis set = -1510.30716194

             Standard Nuclear Orientation (Angstroms)
    I     Atom           X                Y                Z
 ----------------------------------------------------------------
    1      O       4.0881042508    -1.1240801407     1.4936390939
    2      C       3.0675252450    -0.4879889391     1.1561755503
    3      C       3.0146895208     0.8808112234     0.3906456423
    4      C       2.2228089087     0.8030428782    -0.9814422507
    5      C       1.9035238363    -0.6701244657    -1.4165561811
    6      O       0.7881131647    -0.6721965253    -2.3147283036
    7      C       0.5363299896    -2.0405953738    -2.8302994823
    8      C       0.0261062651    -3.0426157290    -1.7024182757
    9      O      -0.1542012906    -2.3506363879    -0.4084617216
   10      C      -1.2355623197    -1.4136031779    -0.4994537219
   11      C      -1.2376883948    -0.5388520238     0.7868639865
   12      C      -2.1102871177     0.7707067294     0.6314992966
   13      C      -2.7597177045     0.9424567358    -0.7865919165
   14      O      -3.9642577468     0.8593471635    -1.0995549565
   15      O       1.7261990657    -0.8888237059     1.4835676901
   16      O      -1.7249798555     1.3584539443    -1.7052049966
   17      O      -2.0169960215    -1.3494155389    -1.4757298556
   18      C      -2.2410929307     1.3896051270    -3.0879698149
   19      C      -1.9845623185    -1.2509857151     1.9953955847
   20      C      -1.6215526753    -0.4616114898     3.3153706863
   21      C      -2.5169134360     0.8234228610     3.1556252811
   22      C      -3.1984392779     0.5479156416     1.7583208790
   23      O      -3.4075459983    -0.9198583332     1.7607921556
   24      H      -0.1832326837    -0.2862648217     1.0350802594
   25      H      -1.4691784053     1.6485455853     0.8357360482
   26      H      -1.8432750478    -2.3483828791     2.0453905623
   27      H      -1.9001748391    -1.0441973484     4.2079288970
   28      H      -0.5465854210    -0.2244095363     3.3632442887
   29      H      -3.2770176901     0.8868657377     3.9507319974
   30      H      -1.9263663533     1.7532691815     3.1524395717
   31      H      -4.1576513571     1.0704953670     1.5766990025
   32      O       2.5537633775    -1.6935839742    -1.1077980052
   33      C       1.7387828463    -2.2392464974     2.0869795502
   34      C       2.1365144957     1.9504748827     1.1675745291
   35      C       2.3445844617     3.3675369450     0.4997799629
   36      C       1.4613400336     3.2277900863    -0.7977350203
   37      C       0.9700164485     1.7327139149    -0.6791275152
   38      O       0.7580645493     1.5840670133     0.7807170544
   39      H       4.0539873211     1.2220588996     0.2429802430
   40      H       2.8267115947     1.2462261230    -1.7955811042
   41      H       2.3408092435    -2.2651481503     3.0181778533
   42      H       2.2517718051     1.9254394588     2.2686481925
   43      H       1.9721551774     4.1647789324     1.1624169655
   44      H       3.4048056089     3.5637899049     0.2736781441
   45      H       0.5996449960     3.9138350886    -0.7707355384
   46      H       2.0297984696     3.4117136637    -1.7232779183
   47      H       0.0242738837     1.4875354669    -1.2236356101
   48      H       2.1452028342    -2.9874682045     1.3766250756
   49      H       0.6858500362    -2.4833034046     2.3142952930
   50      H      -1.4054733029     1.7397115044    -3.7215497770
   51      H      -3.1023749387     2.0814680944    -3.1877029028
   52      H      -2.5570064419     0.3771201129    -3.4134624066
   53      H      -0.9208127740    -3.5188156246    -2.0351582240
   54      H       0.7876860554    -3.8220937496    -1.5088080530
   55      H       1.4531378616    -2.4531129550    -3.3024774238
   56      H      -0.2472227293    -1.9055889655    -3.6008009432
 ----------------------------------------------------------------

    8   -1510.3071703053      8.41E-09 Convergence criterion met
 Total energy in the final basis set = -1510.30717031
 Final energy is   -1510.30717030532
 **  OPTIMIZATION CONVERGED  **

                    Orbital Energies (a.u.)
 --------------------------------------------------------------

 Alpha MOs
 -- Occupied --
-18.944 -18.935 -18.929 -18.926 -18.890 -18.882 -18.878 -18.876
-18.870 -18.865 -10.107 -10.098 -10.096 -10.092 -10.078 -10.075
-10.063 -10.058 -10.058 -10.052 -10.049 -10.044 -10.039 -10.037
-10.021 -10.021 -10.017 -10.016 -10.012 -10.011  -1.026  -1.009
 -1.004  -0.999  -0.972  -0.961  -0.944  -0.937  -0.931  -0.927
 -0.764  -0.753  -0.726  -0.719  -0.710  -0.702  -0.691  -0.656
 -0.655  -0.621  -0.596  -0.577  -0.545  -0.539  -0.538  -0.530
 -0.513  -0.502  -0.483  -0.476  -0.466  -0.458  -0.444  -0.441
 -0.428  -0.427  -0.421  -0.418  -0.410  -0.407  -0.405  -0.403
 -0.393  -0.378  -0.371  -0.367  -0.361  -0.355  -0.348  -0.343
 -0.343  -0.342  -0.331  -0.329  -0.324  -0.322  -0.317  -0.313
 -0.305  -0.303  -0.299  -0.296  -0.292  -0.285  -0.278  -0.273
 -0.268  -0.260  -0.249  -0.246  -0.244  -0.235  -0.221  -0.195
 -0.173  -0.172  -0.168  -0.161  -0.154  -0.147  -0.147  -0.141
 -0.136

          Ground-State Mulliken Net Atomic Charges

     Atom                 Charge (a.u.)
  ----------------------------------------
      1 O                    -0.211565
      2 C                     0.214079
      3 C                    -0.080448
      4 C                    -0.080249
      5 C                     0.214666
      6 O                    -0.167911
      7 C                    -0.050857
      8 C                    -0.050327
      9 O                    -0.170982
     10 C                     0.212791
     11 C                    -0.093033
     12 C                    -0.085372
     13 C                     0.219767
     14 O                    -0.211216
     15 O                    -0.173213
     16 O                    -0.178431
     17 O                    -0.214345
     18 C                    -0.125893
     19 C                     0.023470
     20 C                    -0.143953
     21 C                    -0.143098
     22 C                     0.024325
     23 O                    -0.191118
     24 H                     0.119858
     25 H                     0.095562
     26 H                     0.077933
     27 H                     0.074142
     28 H                     0.077497
     29 H                     0.075277
     30 H                     0.074502
     31 H                     0.086223
     32 O                    -0.212411
     33 C                    -0.125931
     34 C                     0.026166
     35 C                    -0.144959
     36 C                    -0.144172
     37 C                     0.005633
     38 O                    -0.195996
     39 H                     0.084906
     40 H                     0.084649
     41 H                     0.086067
     42 H                     0.081379
     43 H                     0.076629
     44 H                     0.073475
     45 H                     0.076413
     46 H                     0.071387
     47 H                     0.117180
     48 H                     0.093980
     49 H                     0.089973
     50 H                     0.086796
     51 H                     0.088325
     52 H                     0.093824
     53 H                     0.090774
     54 H                     0.094482
     55 H                     0.088551
     56 H                     0.094799
  ----------------------------------------
  Sum of atomic charges =    -0.000000

                    Cartesian Multipole Moments
 -----------------------------------------------------------------
    Charge (ESU x 10^10)
                -0.0000
    Dipole Moment (Debye)
         X       1.9490      Y       1.3024      Z      -0.9937
       Tot       2.5460
    Quadrupole Moments (Debye-Ang)
        XX    -181.9920     XY       4.2742     YY    -149.8956
        XZ      -4.5550     YZ       2.4930     ZZ    -147.8350

 Total job time:  205.19s(wall), 9777.61s(cpu)
        *  Thank you very much for using Q-Chem.  Have a nice day.  *
