 Q-Chem 5.0, Q-Chem, Inc., Pleasanton, CA (2017)
 Q-Chem 5.0.1 for Intel X86 EM64T Linux

User input:
--------------------------------------------------------------
$molecule
0  1
O -3.94934 -3.66094 2.70899
C -3.26408 -4.56952 2.26188
C -3.36658 -6.02376 2.66595
C -4.72936 -6.51568 3.18042
C -5.88374 -5.54487 3.06632
O -6.8549 -5.8705 3.96978
C -8.09871 -5.20598 3.72358
C -9.21445 -6.22967 3.54103
O -9.17405 -6.76532 2.20899
C -8.3661 -7.8409 2.03728
C -8.38433 -8.37069 0.62319
C -7.444 -9.55683 0.36414
C -6.90779 -10.25646 1.59691
O -6.95401 -11.46022 1.8052
O -2.14826 -4.21021 1.56657
O -6.35866 -9.62537 2.66196
O -8.43434 -8.6393 2.95977
C -6.11946 -10.20037 3.90678
C -9.73041 -8.9951 0.19415
C -9.85802 -8.92244 -1.3259
C -8.80629 -9.93089 -1.74597
C -8.40824 -10.49907 -0.37716
O -9.57478 -10.379 0.40073
H -8.16296 -7.50574 -0.04322
H -6.55549 -9.23758 -0.22297
H -10.61295 -8.52423 0.67939
H -10.86331 -9.33033 -1.5786
H -9.75272 -7.91275 -1.77783
H -9.295 -10.70242 -2.38118
H -7.92294 -9.50493 -2.26961
H -7.99792 -11.5263 -0.49075
O -6.08743 -4.88516 2.0505
C -1.83452 -2.91822 1.19804
C -3.08058 -6.80231 1.37878
C -2.64397 -8.21191 1.69062
C -3.94368 -8.75485 2.16814
C -4.8753 -7.52091 1.9883
O -4.34874 -6.91477 0.84461
H -2.54594 -6.20114 3.3963
H -4.72315 -7.05775 4.15224
H -1.72027 -2.27878 2.09929
H -2.31944 -6.36413 0.69719
H -2.35836 -8.71457 0.73789
H -1.80431 -8.26826 2.41726
H -4.22845 -9.56351 1.45861
H -3.88113 -9.13469 3.20581
H -5.92089 -7.7167 1.81086
H -2.63003 -2.50503 0.54169
H -0.87619 -2.92207 0.63945
H -5.71709 -9.43199 4.59793
H -5.38638 -11.03058 3.8176
H -7.06742 -10.586 4.33909
H -9.26193 -6.98119 4.3602
H -10.16521 -5.65858 3.6068
H -8.13743 -4.46779 2.89183
H -8.32717 -4.63108 4.6465
$end

$opt
CONSTRAINT
tors           1           2           3           4     +27.090
tors           3           4           5           6    -157.258
tors           4           5           6           7    -166.369
tors           5           6           7           8    +122.637
tors           6           7           8           9     -79.853
tors           7           8           9          10     +87.647
tors           8           9          10          11    +179.054
tors           9          10          11          12    +177.780
tors          11          12          13          14    +128.440
ENDCONSTRAINT
$end

$rem
JOBTYPE                   OPT
METHOD                    B3LYP
DFT_D                     d3_op
BASIS                     STO-3G
GEOM_OPT_MAX_CYCLES       100
GEOM_OPT_TOL_GRADIENT     300
GEOM_OPT_TOL_DISPLACEMENT 1200
GEOM_OPT_TOL_ENERGY       100
SYMMETRY                  False
THRESH                    12
SCF_CONVERGENCE           8
MAX_SUB_FILE_NUM          128
MEM_STATIC                400
MEM_TOTAL                 4000
$end
--------------------------------------------------------------

   15   -1510.0642759805      7.59E-09 Convergence criterion met
 Total energy in the final basis set = -1510.06427598
   14   -1510.1432037617      3.55E-09 Convergence criterion met
 Total energy in the final basis set = -1510.14320376
   14   -1510.2028277184      6.45E-09 Convergence criterion met
 Total energy in the final basis set = -1510.20282772
   13   -1510.2339301549      8.77E-09 Convergence criterion met
 Total energy in the final basis set = -1510.23393015
    2   -1510.2339301549      6.43E-09 Convergence criterion met
 Total energy in the final basis set = -1510.23393015
   14   -1510.2510600035      2.13E-09 Convergence criterion met
 Total energy in the final basis set = -1510.25106000
   13   -1510.2613916517      6.25E-09 Convergence criterion met
 Total energy in the final basis set = -1510.26139165
   13   -1510.2672599434      4.86E-09 Convergence criterion met
   11   -1510.2778466852      5.15E-09 Convergence criterion met
 Total energy in the final basis set = -1510.27784669
   11   -1510.2778627030      3.56E-09 Convergence criterion met
 Total energy in the final basis set = -1510.27786270
    9   -1510.2778780088      8.22E-09 Convergence criterion met
 Total energy in the final basis set = -1510.27787801
    9   -1510.2778799230      3.93E-09 Convergence criterion met
 Total energy in the final basis set = -1510.27787992
    9   -1510.2778816798      4.66E-09 Convergence criterion met
 Total energy in the final basis set = -1510.27788168
    9   -1510.2778827969      5.36E-09 Convergence criterion met
 Total energy in the final basis set = -1510.27788280

             Standard Nuclear Orientation (Angstroms)
    I     Atom           X                Y                Z
 ----------------------------------------------------------------
    1      O       4.8241340100    -1.4355221131    -0.0761426815
    2      C       4.6108050388    -0.2372065777     0.2073348323
    3      C       3.5708487004     0.7342157681    -0.4548852558
    4      C       2.2999275324     0.0285216106    -1.0820991033
    5      C       2.0013544344    -1.3395549652    -0.3824668657
    6      O       1.2293575742    -2.2048385836    -1.2416773650
    7      C       0.7024368115    -3.3235759556    -0.4248756650
    8      C      -0.8601789108    -3.4806474624    -0.4378629177
    9      O      -1.5592490918    -2.5394546127     0.4655960435
   10      C      -1.8324427374    -1.2981710779    -0.2067835190
   11      C      -2.5891448833    -0.4123692863     0.8457777029
   12      C      -3.0127090849     1.0715994771     0.4728747807
   13      C      -2.9033141590     1.5379338315    -1.0266132848
   14      O      -3.8174624568     2.0791256911    -1.6871481205
   15      O       5.3451279435     0.4895309852     1.1997534514
   16      O      -1.5639924450     1.4222188622    -1.5043850392
   17      O      -1.5680289123    -1.0951217603    -1.4094749402
   18      C      -1.5024389912     1.7941173493    -2.9362177652
   19      C      -4.0041316563    -1.0363712169     1.2478451422
   20      C      -4.3535215305    -0.5407835974     2.7045606630
   21      C      -4.7007459298     0.9696661563     2.4302066583
   22      C      -4.5501589372     1.0390349106     0.8601344229
   23      O      -4.9685356789    -0.3063363525     0.3985002423
   24      H      -1.9381740083    -0.3877781048     1.7390387985
   25      H      -2.4414643268     1.7907956964     1.0892411053
   26      H      -4.0804140669    -2.1292478819     1.0869531636
   27      H      -5.2253668944    -1.0897135153     3.0951764909
   28      H      -3.5121182544    -0.6689395660     3.4037802828
   29      H      -5.7324159379     1.2101461010     2.7319761553
   30      H      -4.0129102936     1.6624679612     2.9408848302
   31      H      -5.1434035178     1.8214212153     0.3481021531
   32      O       2.2499021520    -1.6090840581     0.8152027605
   33      C       6.3473041906    -0.3983786450     1.8320789982
   34      C       2.8982108177     1.8097611006     0.5092441145
   35      C       2.5680008854     3.0654862798    -0.3819621175
   36      C       1.4340626278     2.4671549907    -1.2909143141
   37      C       1.1809213977     1.0573129157    -0.6146468042
   38      O       1.5518846334     1.2654903234     0.8052140376
   39      H       4.1202843374     1.2653747658    -1.2556174974
   40      H       2.3569973731    -0.0921347285    -2.1777282769
   41      H       7.0959728313    -0.7587823498     1.0969050234
   42      H       3.4629841839     2.0040190321     1.4412291890
   43      H       2.1893758079     3.8906825046     0.2423884418
   44      H       3.4387380344     3.4222489094    -0.9544859830
   45      H       0.5152061493     3.0721557433    -1.2533294226
   46      H       1.7474489117     2.3659726581    -2.3422757232
   47      H       0.1314007084     0.7119317392    -0.7240517344
   48      H       5.8686521644    -1.2794700238     2.3062819603
   49      H       6.8516252719     0.2108628146     2.6044955501
   50      H      -0.4827530343     1.5375797623    -3.2745366097
   51      H      -1.6822245330     2.8792628960    -3.0820019321
   52      H      -2.2452255089     1.2266719011    -3.5312537313
   53      H      -1.2402210381    -3.3718372414    -1.4768063048
   54      H      -1.1009653370    -4.4940696289    -0.0569598493
   55      H       1.0736530763    -3.1790222235     0.6149354860
   56      H       1.1326648060    -4.2656753892    -0.8288053692
 ----------------------------------------------------------------

    9   -1510.2778834728      2.53E-09 Convergence criterion met
 Total energy in the final basis set = -1510.27788347
 Final energy is   -1510.27788347280
 **  OPTIMIZATION CONVERGED  **

                    Orbital Energies (a.u.)
 --------------------------------------------------------------

 Alpha MOs
 -- Occupied --
-18.940 -18.930 -18.930 -18.927 -18.887 -18.880 -18.880 -18.874
-18.871 -18.869 -10.101 -10.100 -10.095 -10.093 -10.072 -10.064
-10.061 -10.059 -10.059 -10.056 -10.053 -10.046 -10.039 -10.038
-10.035 -10.032 -10.019 -10.018 -10.015 -10.014  -1.016  -1.011
 -1.008  -1.002  -0.970  -0.964  -0.940  -0.934  -0.933  -0.926
 -0.762  -0.759  -0.724  -0.719  -0.713  -0.702  -0.693  -0.663
 -0.657  -0.617  -0.597  -0.573  -0.543  -0.539  -0.537  -0.531
 -0.512  -0.508  -0.482  -0.472  -0.458  -0.455  -0.449  -0.446
 -0.432  -0.431  -0.423  -0.415  -0.413  -0.409  -0.405  -0.403
 -0.394  -0.379  -0.370  -0.366  -0.360  -0.355  -0.352  -0.348
 -0.345  -0.339  -0.335  -0.333  -0.325  -0.320  -0.315  -0.311
 -0.307  -0.305  -0.298  -0.296  -0.287  -0.286  -0.283  -0.272
 -0.270  -0.254  -0.251  -0.247  -0.238  -0.234  -0.228  -0.189
 -0.182  -0.173  -0.159  -0.156  -0.153  -0.149  -0.146  -0.143
 -0.137

          Ground-State Mulliken Net Atomic Charges

     Atom                 Charge (a.u.)
  ----------------------------------------
      1 O                    -0.214522
      2 C                     0.213193
      3 C                    -0.079441
      4 C                    -0.076730
      5 C                     0.214242
      6 O                    -0.170209
      7 C                    -0.061895
      8 C                    -0.052270
      9 O                    -0.176777
     10 C                     0.208746
     11 C                    -0.079969
     12 C                    -0.080020
     13 C                     0.214940
     14 O                    -0.212599
     15 O                    -0.172080
     16 O                    -0.164628
     17 O                    -0.206179
     18 C                    -0.123847
     19 C                     0.025652
     20 C                    -0.142729
     21 C                    -0.145189
     22 C                     0.023981
     23 O                    -0.190642
     24 H                     0.089747
     25 H                     0.086792
     26 H                     0.085957
     27 H                     0.077934
     28 H                     0.075348
     29 H                     0.078348
     30 H                     0.073877
     31 H                     0.091800
     32 O                    -0.211515
     33 C                    -0.127960
     34 C                     0.024428
     35 C                    -0.142636
     36 C                    -0.145636
     37 C                     0.013403
     38 O                    -0.193705
     39 H                     0.081893
     40 H                     0.086385
     41 H                     0.087128
     42 H                     0.090400
     43 H                     0.075760
     44 H                     0.071881
     45 H                     0.077501
     46 H                     0.069039
     47 H                     0.104169
     48 H                     0.092194
     49 H                     0.089184
     50 H                     0.092052
     51 H                     0.086530
     52 H                     0.095490
     53 H                     0.096196
     54 H                     0.089541
     55 H                     0.105493
     56 H                     0.081953
  ----------------------------------------
  Sum of atomic charges =     0.000000

                    Cartesian Multipole Moments
 -----------------------------------------------------------------
    Charge (ESU x 10^10)
                 0.0000
    Dipole Moment (Debye)
         X       1.2368      Y       0.8045      Z       0.5043
       Tot       1.5592
    Quadrupole Moments (Debye-Ang)
        XX    -162.2240     XY       6.8312     YY    -152.0675
        XZ      -7.5222     YZ      -1.4026     ZZ    -155.7204

 Total job time:  70.08s(wall), 3339.05s(cpu)
        *  Thank you very much for using Q-Chem.  Have a nice day.  *
