 Q-Chem 5.0, Q-Chem, Inc., Pleasanton, CA (2017)
 Q-Chem 5.0.1 for Intel X86 EM64T Linux

User input:
--------------------------------------------------------------
$molecule
0  1
O -3.94934 -3.66094 2.70899
C -3.26408 -4.56952 2.26188
C -3.36658 -6.02376 2.66595
C -4.75477 -6.54337 3.07434
C -5.91734 -5.59895 2.86316
O -6.55718 -5.37814 4.04945
C -7.94378 -5.05977 3.89065
C -8.80505 -6.07911 4.62909
O -8.71963 -7.35596 3.97698
C -8.04819 -8.3159 4.66023
C -8.24198 -9.69627 4.07911
C -7.45853 -10.81201 4.78593
C -6.89777 -10.46357 6.15005
O -7.05417 -11.12 7.16947
O -2.18817 -4.23913 1.49848
O -5.77456 -9.68961 6.10709
O -7.38971 -8.02021 5.64192
C -4.96618 -9.40788 7.18955
C -9.68226 -10.22679 4.1916
C -9.92171 -11.27481 3.10742
C -9.05512 -12.40931 3.61613
C -8.60567 -11.82996 4.96413
O -9.67842 -11.00911 5.36009
H -7.94871 -9.62618 3.00674
H -6.62077 -11.21004 4.17118
H -10.45497 -9.42919 4.13787
H -10.99005 -11.57991 3.18586
H -9.71118 -10.94809 2.06633
H -9.70038 -13.30411 3.76071
H -8.18291 -12.66538 2.97631
H -8.34013 -12.6555 5.66031
O -6.24472 -5.12827 1.77917
C -1.88666 -2.95737 1.08771
C -3.10684 -6.97281 1.46502
C -2.67554 -8.35154 1.96925
C -3.98723 -8.87887 2.50922
C -4.92289 -7.732 2.11918
O -4.37783 -7.23502 0.9239
H -2.56868 -6.20702 3.41966
H -4.75192 -6.87404 4.13901
H -1.71769 -2.30173 1.9685
H -2.34715 -6.59359 0.74807
H -2.39534 -8.95674 1.0772
H -1.8293 -8.34936 2.68939
H -4.25473 -9.80245 1.94909
H -4.00743 -9.07976 3.60255
H -5.97585 -8.08855 2.06837
H -2.71485 -2.55018 0.46901
H -0.96146 -2.97966 0.47618
H -4.13565 -8.75037 6.86001
H -4.53695 -10.34536 7.60301
H -5.55006 -8.88211 7.97486
H -8.5312 -6.06778 5.70761
H -9.86604 -5.75309 4.5886
H -8.30748 -5.01376 2.8386
H -8.11699 -4.05921 4.3409
$end

$opt
CONSTRAINT
tors           1           2           3           4     +31.807
tors           3           4           5           6    -122.117
tors           4           5           6           7    -152.237
tors           5           6           7           8    +120.764
tors           6           7           8           9     -68.575
tors           7           8           9          10    +110.044
tors           8           9          10          11    +167.611
tors           9          10          11          12    +177.780
tors          11          12          13          14    +128.440
ENDCONSTRAINT
$end

$rem
JOBTYPE                   OPT
METHOD                    B3LYP
DFT_D                     d3_op
BASIS                     STO-3G
GEOM_OPT_MAX_CYCLES       100
GEOM_OPT_TOL_GRADIENT     300
GEOM_OPT_TOL_DISPLACEMENT 1200
GEOM_OPT_TOL_ENERGY       100
SYMMETRY                  False
THRESH                    12
SCF_CONVERGENCE           8
MAX_SUB_FILE_NUM          128
MEM_STATIC                400
MEM_TOTAL                 4000
$end
--------------------------------------------------------------

   15   -1510.1420922386      7.87E-09 Convergence criterion met
 Total energy in the final basis set = -1510.14209224
   13   -1510.2129330523      9.50E-09 Convergence criterion met
 Total energy in the final basis set = -1510.21293305
   14   -1510.2498066670      4.95E-09 Convergence criterion met
 Total energy in the final basis set = -1510.24980667
   14   -1510.2681668246      4.95E-09 Convergence criterion met
 Total energy in the final basis set = -1510.26816682
   14   -1510.2761961846      3.59E-09 Convergence criterion met
 Total energy in the final basis set = -1510.27619618
   14   -1510.2731699982      2.82E-09 Convergence criterion met
 Total energy in the final basis set = -1510.27317000
   14   -1510.2802177136      2.77E-09 Convergence criterion met
 Total energy in the final basis set = -1510.28021771
   13   -1510.2822216784      6.24E-09 Convergence criterion met
   11   -1510.2875349466      9.65E-09 Convergence criterion met
 Total energy in the final basis set = -1510.28753495
   11   -1510.2875657144      5.10E-09 Convergence criterion met
 Total energy in the final basis set = -1510.28756571
   11   -1510.2875768199      4.14E-09 Convergence criterion met
 Total energy in the final basis set = -1510.28757682
   10   -1510.2875796665      7.15E-09 Convergence criterion met
 Total energy in the final basis set = -1510.28757967
    9   -1510.2875823603      9.04E-09 Convergence criterion met
 Total energy in the final basis set = -1510.28758236
    9   -1510.2875840475      6.96E-09 Convergence criterion met
 Total energy in the final basis set = -1510.28758405

             Standard Nuclear Orientation (Angstroms)
    I     Atom           X                Y                Z
 ----------------------------------------------------------------
    1      O       4.4030271217    -1.0088132914    -1.0995466408
    2      C       4.3748803858     0.1336796986    -0.5898836080
    3      C       3.1059859565     1.0449541612    -0.4354766185
    4      C       1.7865231441     0.2002105457    -0.2226391688
    5      C       1.9693463162    -1.3505354566    -0.1020888613
    6      O       1.1841052632    -1.9833364435    -1.1345129879
    7      C       0.7831332643    -3.3386963378    -0.6865026946
    8      C      -0.7826178990    -3.3197484478    -0.7135195609
    9      O      -1.2201433093    -2.3996906215     0.3726482003
   10      C      -1.7752992109    -1.2155454188    -0.2081937403
   11      C      -2.5202622197    -0.3811126753     0.8815617130
   12      C      -3.0958031177     0.9616679438     0.2799049178
   13      C      -2.6182357049     1.3243075835    -1.1772601638
   14      O      -3.3550558664     1.6188327185    -2.1414799215
   15      O       5.5283753767     0.8220153298    -0.1035417391
   16      O      -1.1971817528     1.5881094343    -1.1715649893
   17      O      -1.7886238617    -0.9700994610    -1.4387194395
   18      C      -0.7566527444     1.9824218427    -2.5271021678
   19      C      -3.8710261302    -1.1234508421     1.2794700607
   20      C      -4.5160772220    -0.3801888656     2.5158165413
   21      C      -5.1355620111     0.8902516415     1.8229266012
   22      C      -4.6552050048     0.6830006267     0.3348055064
   23      O      -4.7640462128    -0.7842743969     0.1488063487
   24      H      -1.8628196139    -0.2140386363     1.7532992508
   25      H      -2.8216294841     1.8142298805     0.9283819134
   26      H      -3.7677892349    -2.2210543170     1.3858952129
   27      H      -5.2914292036    -1.0092207667     2.9808976461
   28      H      -3.7635759180    -0.1249161641     3.2790741025
   29      H      -6.2359655001     0.8788843721     1.8751580931
   30      H      -4.7705919226     1.8353313575     2.2557139027
   31      H      -5.2318419873     1.2161120120    -0.4461073821
   32      O       2.5135607518    -1.9765839650     0.8339444449
   33      C       6.7287219066    -0.0318807126    -0.2624838756
   34      C       3.1106910140     1.9423110128     0.8712142943
   35      C       1.9740913547     3.0345029521     0.7220379781
   36      C       0.6842349006     2.1794407710     1.0062644818
   37      C       1.3155472539     0.7515383315     1.2028153813
   38      O       2.5892959493     1.0221401686     1.9063439801
   39      H       3.0291185184     1.6668738752    -1.3473142563
   40      H       1.0333324998     0.4003345051    -1.0034914189
   41      H       6.9245785650    -0.2658367650    -1.3289587609
   42      H       4.1113956232     2.3225558414     1.1527803256
   43      H       2.1049920047     3.8340577560     1.4683334569
   44      H       1.9728781136     3.4884365436    -0.2820737651
   45      H       0.1913874584     2.5030048567     1.9366250108
   46      H      -0.0551496667     2.1724304580     0.1810530982
   47      H       0.7008062412     0.0347296711     1.7810361471
   48      H       6.6245594941    -0.9853357573     0.2943525394
   49      H       7.5730846578     0.5497683595     0.1508048819
   50      H       0.2985691318     2.2970023416    -2.4292505795
   51      H      -1.3631509191     2.8209894847    -2.9250385000
   52      H      -0.8258805397     1.1281168183    -3.2311444412
   53      H      -1.1479635265    -2.9377113295    -1.6898887330
   54      H      -1.2042239487    -4.3229613756    -0.4941402401
   55      H       1.1846671430    -3.5313504945     0.3312464494
   56      H       1.1778580735    -4.1023274633    -1.3911318834
 ----------------------------------------------------------------

    9   -1510.2875847882      3.58E-09 Convergence criterion met
 Total energy in the final basis set = -1510.28758479
 Final energy is   -1510.28758478815
 **  OPTIMIZATION CONVERGED  **

                    Orbital Energies (a.u.)
 --------------------------------------------------------------

 Alpha MOs
 -- Occupied --
-18.943 -18.937 -18.933 -18.919 -18.891 -18.891 -18.881 -18.875
-18.872 -18.866 -10.110 -10.102 -10.099 -10.090 -10.072 -10.066
-10.065 -10.064 -10.064 -10.061 -10.053 -10.052 -10.046 -10.040
-10.035 -10.028 -10.024 -10.023 -10.013 -10.000  -1.024  -1.012
 -1.008  -1.000  -0.974  -0.964  -0.947  -0.936  -0.934  -0.925
 -0.768  -0.757  -0.729  -0.718  -0.713  -0.705  -0.694  -0.662
 -0.660  -0.617  -0.596  -0.577  -0.549  -0.541  -0.538  -0.530
 -0.515  -0.509  -0.490  -0.473  -0.467  -0.462  -0.453  -0.446
 -0.436  -0.426  -0.423  -0.418  -0.413  -0.411  -0.409  -0.405
 -0.396  -0.379  -0.373  -0.366  -0.363  -0.360  -0.352  -0.348
 -0.346  -0.341  -0.340  -0.336  -0.330  -0.324  -0.317  -0.315
 -0.309  -0.303  -0.302  -0.299  -0.291  -0.285  -0.278  -0.275
 -0.268  -0.257  -0.253  -0.248  -0.241  -0.238  -0.227  -0.190
 -0.178  -0.176  -0.166  -0.161  -0.154  -0.152  -0.148  -0.145
 -0.138

          Ground-State Mulliken Net Atomic Charges

     Atom                 Charge (a.u.)
  ----------------------------------------
      1 O                    -0.210763
      2 C                     0.213191
      3 C                    -0.077921
      4 C                    -0.083261
      5 C                     0.212953
      6 O                    -0.176714
      7 C                    -0.054108
      8 C                    -0.054554
      9 O                    -0.171312
     10 C                     0.216118
     11 C                    -0.077624
     12 C                    -0.080766
     13 C                     0.221413
     14 O                    -0.213448
     15 O                    -0.168646
     16 O                    -0.177729
     17 O                    -0.203686
     18 C                    -0.128061
     19 C                     0.025094
     20 C                    -0.144074
     21 C                    -0.143298
     22 C                     0.024107
     23 O                    -0.190025
     24 H                     0.087426
     25 H                     0.084855
     26 H                     0.085866
     27 H                     0.079396
     28 H                     0.074722
     29 H                     0.079223
     30 H                     0.073964
     31 H                     0.092606
     32 O                    -0.214252
     33 C                    -0.127580
     34 C                     0.023527
     35 C                    -0.145064
     36 C                    -0.161101
     37 C                     0.025786
     38 O                    -0.190181
     39 H                     0.082315
     40 H                     0.091156
     41 H                     0.088730
     42 H                     0.089439
     43 H                     0.074763
     44 H                     0.068377
     45 H                     0.067182
     46 H                     0.096510
     47 H                     0.076975
     48 H                     0.093507
     49 H                     0.090917
     50 H                     0.085307
     51 H                     0.091472
     52 H                     0.094552
     53 H                     0.107292
     54 H                     0.087414
     55 H                     0.102963
     56 H                     0.085050
  ----------------------------------------
  Sum of atomic charges =    -0.000000

                    Cartesian Multipole Moments
 -----------------------------------------------------------------
    Charge (ESU x 10^10)
                 0.0000
    Dipole Moment (Debye)
         X      -0.0368      Y       1.1154      Z       0.6622
       Tot       1.2976
    Quadrupole Moments (Debye-Ang)
        XX    -158.1315     XY       4.4128     YY    -151.1422
        XZ     -15.4097     YZ       0.2215     ZZ    -163.5768

 Total job time:  66.04s(wall), 3138.04s(cpu)
        *  Thank you very much for using Q-Chem.  Have a nice day.  *
