 Q-Chem 5.0, Q-Chem, Inc., Pleasanton, CA (2017)
 Q-Chem 5.0.1 for Intel X86 EM64T Linux

User input:
--------------------------------------------------------------
$molecule
0  1
O 4.4030271217 -1.0088132914 -1.0995466408
C 4.3748803858 0.1336796986 -0.589883608
C 3.1059859565 1.0449541612 -0.4354766185
C 1.7865231441 0.2002105457 -0.2226391688
C 1.9693463162 -1.3505354566 -0.1020888613
O 1.1841052632 -1.9833364435 -1.1345129879
C 0.7831332643 -3.3386963378 -0.6865026946
C -0.782617899 -3.3197484478 -0.7135195609
O -1.2201433093 -2.3996906215 0.3726482003
C -1.7752992109 -1.2155454188 -0.2081937403
C -2.5202622197 -0.3811126753 0.881561713
C -3.0958031177 0.9616679438 0.2799049178
C -2.6182357049 1.3243075835 -1.1772601638
O -3.3550558664 1.6188327185 -2.1414799215
O 5.5283753767 0.8220153298 -0.1035417391
O -1.1971817528 1.5881094343 -1.1715649893
O -1.7886238617 -0.970099461 -1.4387194395
C -0.7566527444 1.9824218427 -2.5271021678
C -3.8710261302 -1.1234508421 1.2794700607
C -4.516077222 -0.3801888656 2.5158165413
C -5.1355620111 0.8902516415 1.8229266012
C -4.6552050048 0.6830006267 0.3348055064
O -4.7640462128 -0.7842743969 0.1488063487
H -1.8628196139 -0.2140386363 1.7532992508
H -2.8216294841 1.8142298805 0.9283819134
H -3.7677892349 -2.221054317 1.3858952129
H -5.2914292036 -1.0092207667 2.9808976461
H -3.763575918 -0.1249161641 3.2790741025
H -6.2359655001 0.8788843721 1.8751580931
H -4.7705919226 1.8353313575 2.2557139027
H -5.2318419873 1.216112012 -0.4461073821
O 2.5135607518 -1.976583965 0.8339444449
C 6.7287219066 -0.0318807126 -0.2624838756
C 3.110691014 1.9423110128 0.8712142943
C 1.9740913547 3.0345029521 0.7220379781
C 0.6842349006 2.179440771 1.0062644818
C 1.3155472539 0.7515383315 1.2028153813
O 2.5892959493 1.0221401686 1.9063439801
H 3.0291185184 1.6668738752 -1.3473142563
H 1.0333324998 0.4003345051 -1.0034914189
H 6.924578565 -0.265836765 -1.3289587609
H 4.1113956232 2.3225558414 1.1527803256
H 2.1049920047 3.834057756 1.4683334569
H 1.9728781136 3.4884365436 -0.2820737651
H 0.1913874584 2.5030048567 1.9366250108
H -0.0551496667 2.172430458 0.1810530982
H 0.7008062412 0.0347296711 1.7810361471
H 6.6245594941 -0.9853357573 0.2943525394
H 7.5730846578 0.5497683595 0.1508048819
H 0.2985691318 2.2970023416 -2.4292505795
H -1.3631509191 2.8209894847 -2.9250385
H -0.8258805397 1.1281168183 -3.2311444412
H -1.1479635265 -2.9377113295 -1.689888733
H -1.2042239487 -4.3229613756 -0.4941402401
H 1.184667143 -3.5313504945 0.3312464494
H 1.1778580735 -4.1023274633 -1.3911318834
$end

$rem
JOBTYPE                   OPT
METHOD                    B3LYP
DFT_D                     d3_op
BASIS                     STO-3G
GEOM_OPT_MAX_CYCLES       100
GEOM_OPT_TOL_GRADIENT     300
GEOM_OPT_TOL_DISPLACEMENT 1200
GEOM_OPT_TOL_ENERGY       100
SYMMETRY                  False
THRESH                    12
SCF_CONVERGENCE           8
MAX_SUB_FILE_NUM          128
MEM_STATIC                400
MEM_TOTAL                 4000
$end
--------------------------------------------------------------

   16   -1510.2875796090      5.93E-09 Convergence criterion met
 Total energy in the final basis set = -1510.28757961
   14   -1510.2880589096      6.34E-09 Convergence criterion met
 Total energy in the final basis set = -1510.28805891
   14   -1510.2842512188      6.43E-09 Convergence criterion met
 Total energy in the final basis set = -1510.28425122
   14   -1510.2841775833      9.07E-09 Convergence criterion met
 Total energy in the final basis set = -1510.28417758
   14   -1510.2865627852      7.27E-09 Convergence criterion met
 Total energy in the final basis set = -1510.28656279
   13   -1510.2890096923      4.51E-09 Convergence criterion met
 Total energy in the final basis set = -1510.28900969
   13   -1510.2903026181      4.58E-09 Convergence criterion met
 Total energy in the final basis set = -1510.29030262
   13   -1510.2920431887      9.49E-09 Convergence criterion met
   13   -1510.3024833013      2.84E-09 Convergence criterion met
 Total energy in the final basis set = -1510.30248330
   12   -1510.3026507043      6.89E-09 Convergence criterion met
 Total energy in the final basis set = -1510.30265070
   12   -1510.3026442459      2.05E-09 Convergence criterion met
 Total energy in the final basis set = -1510.30264425
   10   -1510.3026407314      6.54E-09 Convergence criterion met
 Total energy in the final basis set = -1510.30264073
   11   -1510.3026507192      3.64E-09 Convergence criterion met
 Total energy in the final basis set = -1510.30265072
   10   -1510.3026497660      5.88E-09 Convergence criterion met
 Total energy in the final basis set = -1510.30264977

             Standard Nuclear Orientation (Angstroms)
    I     Atom           X                Y                Z
 ----------------------------------------------------------------
    1      O       3.6429552926    -1.1935182828     0.6891800024
    2      C       3.7499979665    -0.1315458078     0.0344907515
    3      C       2.6526704965     0.9667734918    -0.1538948863
    4      C       1.2282723869     0.4773233372     0.3226161909
    5      C       1.1437706994    -1.0459650757     0.6753828245
    6      O       1.2752183118    -1.7778492324    -0.5638196429
    7      C       1.0070538449    -3.2145237300    -0.3497312177
    8      C      -0.4796087603    -3.5322711558    -0.7627049865
    9      O      -1.3941583004    -2.7435694037     0.0976602549
   10      C      -1.6642698066    -1.4701419697    -0.4868196375
   11      C      -2.3675633705    -0.5775185124     0.5864863244
   12      C      -2.7112952803     0.8659582364     0.0410198464
   13      C      -2.2533195596     1.1330230747    -1.4408605462
   14      O      -2.9636980827     1.1551205318    -2.4655980167
   15      O       4.9410802370     0.2755569866    -0.6421577343
   16      O      -0.8699250472     1.5614495249    -1.4211190599
   17      O      -1.3929704178    -1.1463013267    -1.6668116237
   18      C      -0.3857014135     1.7779760968    -2.8021046597
   19      C      -3.8187063471    -1.1219349017     0.9408843792
   20      C      -4.3231875975    -0.3847979491     2.2436393612
   21      C      -4.6846783209     1.0357943763     1.6689074240
   22      C      -4.2946886544     0.8569266456     0.1503709467
   23      O      -4.6556888507    -0.5509434773    -0.1375412515
   24      H      -1.7179318390    -0.5437875952     1.4802619708
   25      H      -2.2587330123     1.6410198135     0.6843615739
   26      H      -3.8956500414    -2.2264495622     0.9590135494
   27      H      -5.2093029985    -0.8932238336     2.6557482030
   28      H      -3.5443813972    -0.3440102731     3.0219489630
   29      H      -5.7609769380     1.2489347578     1.7672998448
   30      H      -4.1173375104     1.8476697281     2.1511927824
   31      H      -4.8017789472     1.5359442806    -0.5620093693
   32      O       0.8659499779    -1.5677473957     1.7758385232
   33      C       6.0037981919    -0.7385663847    -0.4466705630
   34      C       2.9054887804     2.1681278889     0.8597830476
   35      C       1.9407076586     3.3604085848     0.4781546069
   36      C       0.5620323527     2.8266196681     1.0172363799
   37      C       0.9901134315     1.4133262017     1.5783344217
   38      O       2.3466860054     1.6502776409     2.1268460782
   39      H       2.6571141990     1.3094894421    -1.2038427100
   40      H       0.4549977292     0.6958219354    -0.4487494450
   41      H       5.7065088176    -1.7236973249    -0.8606320036
   42      H       3.9713105282     2.4430569602     0.9826633251
   43      H       2.2501801466     4.2845145911     0.9916268065
   44      H       1.9268781419     3.5465644317    -0.6076713081
   45      H       0.1626979833     3.4676506368     1.8187608069
   46      H      -0.1857881440     2.7220241622     0.2121481576
   47      H       0.3316897214     0.9774402191     2.3546270962
   48      H       6.2512193772    -0.8683113487     0.6266979918
   49      H       6.8899618715    -0.3606788716    -0.9888219598
   50      H       0.6338532659     2.1947858038    -2.7089222961
   51      H      -1.0344808402     2.4888196495    -3.3522234130
   52      H      -0.3486473890     0.8209022988    -3.3614945770
   53      H      -0.6445110696    -3.2767302076    -1.8308654735
   54      H      -0.7116645653    -4.6016396818    -0.5831035214
   55      H       1.1588965973    -3.4706653996     0.7207039761
   56      H       1.7074318823    -3.7908779042    -0.9885753183
 ----------------------------------------------------------------

    9   -1510.3026490456      6.33E-09 Convergence criterion met
 Total energy in the final basis set = -1510.30264905
 Final energy is   -1510.30264904563
 **  OPTIMIZATION CONVERGED  **

                    Orbital Energies (a.u.)
 --------------------------------------------------------------

 Alpha MOs
 -- Occupied --
-18.942 -18.938 -18.938 -18.917 -18.889 -18.889 -18.880 -18.879
-18.875 -18.863 -10.109 -10.102 -10.100 -10.089 -10.074 -10.066
-10.066 -10.065 -10.062 -10.060 -10.056 -10.048 -10.042 -10.038
-10.034 -10.021 -10.020 -10.015 -10.015 -10.007  -1.024  -1.014
 -1.009  -0.996  -0.972  -0.964  -0.947  -0.938  -0.937  -0.926
 -0.766  -0.756  -0.727  -0.719  -0.713  -0.703  -0.694  -0.664
 -0.663  -0.617  -0.597  -0.576  -0.548  -0.541  -0.538  -0.531
 -0.514  -0.505  -0.489  -0.472  -0.469  -0.459  -0.452  -0.446
 -0.433  -0.427  -0.425  -0.417  -0.414  -0.413  -0.409  -0.402
 -0.398  -0.379  -0.374  -0.368  -0.359  -0.358  -0.352  -0.350
 -0.343  -0.340  -0.337  -0.334  -0.328  -0.327  -0.319  -0.315
 -0.309  -0.306  -0.302  -0.298  -0.295  -0.285  -0.280  -0.274
 -0.269  -0.255  -0.253  -0.249  -0.238  -0.236  -0.226  -0.194
 -0.180  -0.179  -0.165  -0.157  -0.154  -0.152  -0.146  -0.144
 -0.138

          Ground-State Mulliken Net Atomic Charges

     Atom                 Charge (a.u.)
  ----------------------------------------
      1 O                    -0.207910
      2 C                     0.214414
      3 C                    -0.077728
      4 C                    -0.098328
      5 C                     0.211823
      6 O                    -0.181332
      7 C                    -0.053588
      8 C                    -0.051848
      9 O                    -0.169288
     10 C                     0.215285
     11 C                    -0.079743
     12 C                    -0.083020
     13 C                     0.221210
     14 O                    -0.208333
     15 O                    -0.169583
     16 O                    -0.176823
     17 O                    -0.206288
     18 C                    -0.127420
     19 C                     0.025744
     20 C                    -0.143626
     21 C                    -0.144036
     22 C                     0.025469
     23 O                    -0.188607
     24 H                     0.092918
     25 H                     0.085026
     26 H                     0.088020
     27 H                     0.079005
     28 H                     0.076021
     29 H                     0.078654
     30 H                     0.073645
     31 H                     0.088572
     32 O                    -0.219195
     33 C                    -0.128256
     34 C                     0.025045
     35 C                    -0.143543
     36 C                    -0.151879
     37 C                     0.022244
     38 O                    -0.192341
     39 H                     0.083398
     40 H                     0.107900
     41 H                     0.089610
     42 H                     0.081813
     43 H                     0.075793
     44 H                     0.070326
     45 H                     0.070844
     46 H                     0.084356
     47 H                     0.081304
     48 H                     0.090904
     49 H                     0.090967
     50 H                     0.086214
     51 H                     0.091831
     52 H                     0.096849
     53 H                     0.098344
     54 H                     0.090586
     55 H                     0.102105
     56 H                     0.086475
  ----------------------------------------
  Sum of atomic charges =    -0.000000

                    Cartesian Multipole Moments
 -----------------------------------------------------------------
    Charge (ESU x 10^10)
                -0.0000
    Dipole Moment (Debye)
         X       1.2174      Y       0.6006      Z      -0.6405
       Tot       1.5010
    Quadrupole Moments (Debye-Ang)
        XX    -156.1168     XY      -3.0176     YY    -148.5851
        XZ     -16.1717     YZ       2.5802     ZZ    -167.2664

 Total job time:  101.73s(wall), 4851.98s(cpu)
        *  Thank you very much for using Q-Chem.  Have a nice day.  *
