 Q-Chem 5.0, Q-Chem, Inc., Pleasanton, CA (2017)
 Q-Chem 5.0.1 for Intel X86 EM64T Linux

User input:
--------------------------------------------------------------
$molecule
0  1
O -3.94934 -3.66094 2.70899
C -3.26408 -4.56952 2.26188
C -3.36658 -6.02376 2.66595
C -4.75477 -6.54337 3.07434
C -5.91734 -5.59895 2.86316
O -6.55718 -5.37814 4.04945
C -7.71865 -4.5518 3.91753
C -8.87249 -5.13369 4.72758
O -9.31687 -6.3632 4.13284
C -9.03837 -7.48678 4.83935
C -9.56649 -8.74033 4.18334
C -9.16242 -10.05145 4.87324
C -8.61176 -9.91617 6.27865
O -9.16149 -10.31173 7.29644
O -2.18689 -4.23838 1.5005
O -7.29384 -9.57835 6.35833
O -8.38242 -7.43488 5.86718
C -6.57021 -9.52373 7.53162
C -11.10007 -8.84942 4.19108
C -11.54956 -9.75954 3.05043
C -11.07119 -11.10462 3.5586
C -10.5603 -10.7077 4.94992
O -11.38657 -9.63088 5.32348
H -9.19135 -8.72202 3.13442
H -8.44908 -10.67058 4.28544
H -11.61451 -7.86562 4.13007
H -12.66332 -9.75371 3.05181
H -11.18381 -9.47766 2.03962
H -11.95093 -11.78131 3.63723
H -10.2717 -11.58511 2.95403
H -10.57662 -11.5917 5.62498
O -6.21494 -5.10767 1.77907
C -1.88471 -2.95626 1.0913
C -3.10685 -6.96756 1.4609
C -2.67375 -8.34741 1.95852
C -3.98441 -8.8771 2.49736
C -4.92173 -7.72889 2.11368
O -4.37807 -7.2275 0.91975
H -2.56805 -6.20825 3.41867
H -4.75354 -6.8791 4.13722
H -1.71717 -2.30138 1.97293
H -2.34793 -6.58552 0.74461
H -2.39378 -8.94872 1.06374
H -1.82689 -8.34702 2.67795
H -4.2516 -9.79819 1.93295
H -4.00214 -9.08292 3.58963
H -5.97453 -8.08652 2.062
H -2.71189 -2.54854 0.47161
H -0.95849 -2.97804 0.48129
H -5.52902 -9.21742 7.30215
H -6.55061 -10.52292 8.01681
H -7.01878 -8.77859 8.22285
H -8.5605 -5.1935 5.79359
H -9.72568 -4.42276 4.70704
H -8.08046 -4.38026 2.87887
H -7.47788 -3.55947 4.35593
$end

$opt
CONSTRAINT
tors           1           2           3           4     +31.807
tors           3           4           5           6    -122.117
tors           4           5           6           7    -176.638
tors           5           6           7           8    +135.775
tors           6           7           8           9     -68.575
tors           7           8           9          10    +110.044
tors           8           9          10          11    +178.277
tors           9          10          11          12    +174.426
tors          11          12          13          14    +112.378
ENDCONSTRAINT
$end

$rem
JOBTYPE                   OPT
METHOD                    B3LYP
DFT_D                     d3_op
BASIS                     STO-3G
GEOM_OPT_MAX_CYCLES       100
GEOM_OPT_TOL_GRADIENT     300
GEOM_OPT_TOL_DISPLACEMENT 1200
GEOM_OPT_TOL_ENERGY       100
SYMMETRY                  False
THRESH                    12
SCF_CONVERGENCE           8
MAX_SUB_FILE_NUM          128
MEM_STATIC                400
MEM_TOTAL                 4000
$end
--------------------------------------------------------------

   15   -1510.1525056889      6.29E-09 Convergence criterion met
 Total energy in the final basis set = -1510.15250569
   14   -1510.2222596874      6.78E-09 Convergence criterion met
 Total energy in the final basis set = -1510.22225969
   14   -1510.2591279574      5.18E-09 Convergence criterion met
 Total energy in the final basis set = -1510.25912796
   14   -1510.2749353353      2.34E-09 Convergence criterion met
 Total energy in the final basis set = -1510.27493534
   13   -1510.2811645268      8.41E-09 Convergence criterion met
 Total energy in the final basis set = -1510.28116453
   13   -1510.2839513155      3.61E-09 Convergence criterion met
 Total energy in the final basis set = -1510.28395132
   13   -1510.2855954113      3.73E-09 Convergence criterion met
 Total energy in the final basis set = -1510.28559541
   13   -1510.2861790621      3.58E-09 Convergence criterion met
   12   -1510.2875639771      5.52E-09 Convergence criterion met
 Total energy in the final basis set = -1510.28756398
   11   -1510.2877010363      7.71E-09 Convergence criterion met
 Total energy in the final basis set = -1510.28770104
   11   -1510.2877695789      5.86E-09 Convergence criterion met
 Total energy in the final basis set = -1510.28776958
   10   -1510.2878186922      9.69E-09 Convergence criterion met
 Total energy in the final basis set = -1510.28781869
   10   -1510.2878437687      9.05E-09 Convergence criterion met
 Total energy in the final basis set = -1510.28784377
   10   -1510.2878485133      6.22E-09 Convergence criterion met
 Total energy in the final basis set = -1510.28784851

             Standard Nuclear Orientation (Angstroms)
    I     Atom           X                Y                Z
 ----------------------------------------------------------------
    1      O       4.3413967998    -1.4124093300    -0.9977558397
    2      C       4.5835913500    -0.2608629582    -0.5722780418
    3      C       3.5706968706     0.9366214356    -0.5137045078
    4      C       2.0783424054     0.4666062135    -0.2728397156
    5      C       1.9047201798    -1.0642500106     0.0196870800
    6      O       1.0187299796    -1.5844916609    -0.9795955110
    7      C       0.7262642765    -3.0189170205    -0.7401584669
    8      C      -0.8161640693    -3.1509122767    -0.9587391336
    9      O      -1.4666891014    -2.4214516330     0.1618766350
   10      C      -2.0877551496    -1.2308814166    -0.3243010920
   11      C      -2.7996286155    -0.5085603352     0.8651703608
   12      C      -3.3971509562     0.8960538729     0.4454751194
   13      C      -3.0132388214     1.3601320006    -1.0082972259
   14      O      -3.7762368942     1.4838507518    -1.9890082527
   15      O       5.8657070512     0.1678776769    -0.1104568739
   16      O      -1.6347976037     1.7740586938    -0.9926700736
   17      O      -2.0927922431    -0.8772521431    -1.5264390742
   18      C      -1.2142328267     2.1291817902    -2.3658331389
   19      C      -4.1297726718    -1.2837387137     1.2666967259
   20      C      -4.6745576641    -0.6820532703     2.6222608262
   21      C      -5.3171740949     0.6659597237     2.1246288352
   22      C      -4.9527046086     0.6225843251     0.5899334416
   23      O      -5.0960043179    -0.8135474620     0.2498749439
   24      H      -2.0976570824    -0.4316704000     1.7147506099
   25      H      -3.0595177886     1.6775513591     1.1501058635
   26      H      -4.0364037132    -2.3870224235     1.2416125288
   27      H      -5.4274338461    -1.3524841625     3.0660604307
   28      H      -3.8674711688    -0.5232374553     3.3552582590
   29      H      -6.4105102981     0.6642076973     2.2596609253
   30      H      -4.8990102725     1.5511189907     2.6299809821
   31      H      -5.5837705622     1.2398925140    -0.0786428543
   32      O       2.3289501267    -1.7195312052     0.9960468459
   33      C       6.8284640178    -0.9558260436    -0.1856633654
   34      C       3.7842066306     1.9189209004     0.7153873514
   35      C       3.0124021243     3.2628195743     0.4055048478
   36      C       1.5202227889     2.8150260089     0.6288741982
   37      C       1.7141765693     1.3016039833     1.0313368734
   38      O       2.9825025028     1.3009531265     1.7959905906
   39      H       3.6529465672     1.4844443099    -1.4713559006
   40      H       1.4244485585     0.7249265508    -1.1237007626
   41      H       6.9633679764    -1.3076225574    -1.2289606029
   42      H       4.8409729503     2.0298675338     1.0249954051
   43      H       3.3085106120     4.0491413868     1.1180536329
   44      H       3.2022929866     3.6247470027    -0.6175455676
   45      H       1.0491496091     3.3733610508     1.4532694706
   46      H       0.8957568270     2.9240896393    -0.2716613130
   47      H       0.8954087666     0.8660506589     1.6358702551
   48      H       6.4997854956    -1.8135701598     0.4357589722
   49      H       7.7867771715    -0.5625093262     0.2002340275
   50      H      -0.1751006853     2.4987057978    -2.2873936035
   51      H      -1.8574045178     2.9205894088    -2.8019310078
   52      H      -1.2424967656     1.2427951437    -3.0323452661
   53      H      -1.1163090876    -2.6846965072    -1.9214186435
   54      H      -1.1416038592    -4.2111634689    -0.9147998149
   55      H       1.0260654141    -3.2961445933     0.2937040015
   56      H       1.2877404727    -3.6441731212    -1.4683626478
 ----------------------------------------------------------------

    9   -1510.2878477347      8.97E-09 Convergence criterion met
 Total energy in the final basis set = -1510.28784773
 Final energy is   -1510.28784773465
 **  OPTIMIZATION CONVERGED  **

                    Orbital Energies (a.u.)
 --------------------------------------------------------------

 Alpha MOs
 -- Occupied --
-18.939 -18.939 -18.926 -18.919 -18.887 -18.886 -18.885 -18.877
-18.866 -18.861 -10.106 -10.102 -10.094 -10.091 -10.072 -10.067
-10.066 -10.061 -10.058 -10.058 -10.056 -10.056 -10.041 -10.039
-10.034 -10.033 -10.021 -10.019 -10.019 -10.018  -1.021  -1.015
 -1.003  -0.997  -0.970  -0.969  -0.944  -0.939  -0.928  -0.924
 -0.763  -0.762  -0.727  -0.721  -0.714  -0.705  -0.696  -0.663
 -0.656  -0.617  -0.597  -0.576  -0.545  -0.543  -0.537  -0.536
 -0.513  -0.511  -0.487  -0.474  -0.463  -0.456  -0.453  -0.449
 -0.432  -0.431  -0.420  -0.417  -0.413  -0.412  -0.405  -0.403
 -0.399  -0.377  -0.373  -0.365  -0.360  -0.354  -0.353  -0.350
 -0.342  -0.338  -0.338  -0.333  -0.329  -0.325  -0.320  -0.312
 -0.310  -0.304  -0.302  -0.301  -0.294  -0.285  -0.276  -0.274
 -0.272  -0.257  -0.253  -0.246  -0.244  -0.234  -0.233  -0.185
 -0.180  -0.167  -0.164  -0.162  -0.157  -0.147  -0.145  -0.142
 -0.142

          Ground-State Mulliken Net Atomic Charges

     Atom                 Charge (a.u.)
  ----------------------------------------
      1 O                    -0.212352
      2 C                     0.212992
      3 C                    -0.078561
      4 C                    -0.080064
      5 C                     0.213771
      6 O                    -0.174978
      7 C                    -0.052603
      8 C                    -0.053659
      9 O                    -0.172253
     10 C                     0.217385
     11 C                    -0.077451
     12 C                    -0.081571
     13 C                     0.216715
     14 O                    -0.215779
     15 O                    -0.168666
     16 O                    -0.179550
     17 O                    -0.206501
     18 C                    -0.128859
     19 C                     0.025277
     20 C                    -0.144046
     21 C                    -0.143591
     22 C                     0.024557
     23 O                    -0.189465
     24 H                     0.086750
     25 H                     0.082679
     26 H                     0.085078
     27 H                     0.078447
     28 H                     0.074042
     29 H                     0.078235
     30 H                     0.073217
     31 H                     0.090189
     32 O                    -0.215762
     33 C                    -0.127580
     34 C                     0.023758
     35 C                    -0.144119
     36 C                    -0.143875
     37 C                     0.027350
     38 O                    -0.188221
     39 H                     0.084424
     40 H                     0.088027
     41 H                     0.088929
     42 H                     0.091313
     43 H                     0.077559
     44 H                     0.072064
     45 H                     0.077475
     46 H                     0.076379
     47 H                     0.082147
     48 H                     0.093555
     49 H                     0.091350
     50 H                     0.079917
     51 H                     0.087853
     52 H                     0.093591
     53 H                     0.107134
     54 H                     0.087671
     55 H                     0.102980
     56 H                     0.086695
  ----------------------------------------
  Sum of atomic charges =    -0.000000

                    Cartesian Multipole Moments
 -----------------------------------------------------------------
    Charge (ESU x 10^10)
                -0.0000
    Dipole Moment (Debye)
         X       1.5587      Y       0.8997      Z       0.5393
       Tot       1.8788
    Quadrupole Moments (Debye-Ang)
        XX    -158.2161     XY       2.2293     YY    -150.2133
        XZ     -17.4337     YZ       1.1036     ZZ    -162.8314

 Total job time:  50.39s(wall), 2398.52s(cpu)
        *  Thank you very much for using Q-Chem.  Have a nice day.  *
