 Q-Chem 5.0, Q-Chem, Inc., Pleasanton, CA (2017)
 Q-Chem 5.0.1 for Intel X86 EM64T Linux

User input:
--------------------------------------------------------------
$molecule
0  1
O 4.3413967998 -1.41240933 -0.9977558397
C 4.58359135 -0.2608629582 -0.5722780418
C 3.5706968706 0.9366214356 -0.5137045078
C 2.0783424054 0.4666062135 -0.2728397156
C 1.9047201798 -1.0642500106 0.01968708
O 1.0187299796 -1.5844916609 -0.979595511
C 0.7262642765 -3.0189170205 -0.7401584669
C -0.8161640693 -3.1509122767 -0.9587391336
O -1.4666891014 -2.421451633 0.161876635
C -2.0877551496 -1.2308814166 -0.324301092
C -2.7996286155 -0.5085603352 0.8651703608
C -3.3971509562 0.8960538729 0.4454751194
C -3.0132388214 1.3601320006 -1.0082972259
O -3.7762368942 1.4838507518 -1.9890082527
O 5.8657070512 0.1678776769 -0.1104568739
O -1.6347976037 1.7740586938 -0.9926700736
O -2.0927922431 -0.8772521431 -1.5264390742
C -1.2142328267 2.1291817902 -2.3658331389
C -4.1297726718 -1.2837387137 1.2666967259
C -4.6745576641 -0.6820532703 2.6222608262
C -5.3171740949 0.6659597237 2.1246288352
C -4.9527046086 0.6225843251 0.5899334416
O -5.0960043179 -0.813547462 0.2498749439
H -2.0976570824 -0.4316704 1.7147506099
H -3.0595177886 1.6775513591 1.1501058635
H -4.0364037132 -2.3870224235 1.2416125288
H -5.4274338461 -1.3524841625 3.0660604307
H -3.8674711688 -0.5232374553 3.355258259
H -6.4105102981 0.6642076973 2.2596609253
H -4.8990102725 1.5511189907 2.6299809821
H -5.5837705622 1.239892514 -0.0786428543
O 2.3289501267 -1.7195312052 0.9960468459
C 6.8284640178 -0.9558260436 -0.1856633654
C 3.7842066306 1.9189209004 0.7153873514
C 3.0124021243 3.2628195743 0.4055048478
C 1.5202227889 2.8150260089 0.6288741982
C 1.7141765693 1.3016039833 1.0313368734
O 2.9825025028 1.3009531265 1.7959905906
H 3.6529465672 1.4844443099 -1.4713559006
H 1.4244485585 0.7249265508 -1.1237007626
H 6.9633679764 -1.3076225574 -1.2289606029
H 4.8409729503 2.0298675338 1.0249954051
H 3.308510612 4.0491413868 1.1180536329
H 3.2022929866 3.6247470027 -0.6175455676
H 1.0491496091 3.3733610508 1.4532694706
H 0.895756827 2.9240896393 -0.271661313
H 0.8954087666 0.8660506589 1.6358702551
H 6.4997854956 -1.8135701598 0.4357589722
H 7.7867771715 -0.5625093262 0.2002340275
H -0.1751006853 2.4987057978 -2.2873936035
H -1.8574045178 2.9205894088 -2.8019310078
H -1.2424967656 1.2427951437 -3.0323452661
H -1.1163090876 -2.6846965072 -1.9214186435
H -1.1416038592 -4.2111634689 -0.9147998149
H 1.0260654141 -3.2961445933 0.2937040015
H 1.2877404727 -3.6441731212 -1.4683626478
$end

$rem
JOBTYPE                   OPT
METHOD                    B3LYP
DFT_D                     d3_op
BASIS                     STO-3G
GEOM_OPT_MAX_CYCLES       100
GEOM_OPT_TOL_GRADIENT     300
GEOM_OPT_TOL_DISPLACEMENT 1200
GEOM_OPT_TOL_ENERGY       100
SYMMETRY                  False
THRESH                    12
SCF_CONVERGENCE           8
MAX_SUB_FILE_NUM          128
MEM_STATIC                400
MEM_TOTAL                 4000
$end
--------------------------------------------------------------

   16   -1510.2878378870      6.25E-09 Convergence criterion met
 Total energy in the final basis set = -1510.28783789
   14   -1510.2902878028      6.79E-09 Convergence criterion met
 Total energy in the final basis set = -1510.29028780
   15   -1510.2907684480      4.68E-09 Convergence criterion met
 Total energy in the final basis set = -1510.29076845
   14   -1510.2858518358      6.10E-09 Convergence criterion met
 Total energy in the final basis set = -1510.28585184
   14   -1510.2908719914      3.84E-09 Convergence criterion met
 Total energy in the final basis set = -1510.29087199
   14   -1510.2943606729      4.27E-09 Convergence criterion met
 Total energy in the final basis set = -1510.29436067
   13   -1510.2970442339      9.17E-09 Convergence criterion met
 Total energy in the final basis set = -1510.29704423
   13   -1510.2974521900      8.55E-09 Convergence criterion met
   13   -1510.3022996059      5.75E-09 Convergence criterion met
 Total energy in the final basis set = -1510.30229961
   13   -1510.3026811297      3.05E-09 Convergence criterion met
 Total energy in the final basis set = -1510.30268113
   12   -1510.3026328550      3.90E-09 Convergence criterion met
 Total energy in the final basis set = -1510.30263285
   11   -1510.3026921716      9.89E-09 Convergence criterion met
 Total energy in the final basis set = -1510.30269217
   11   -1510.3026802925      7.91E-09 Convergence criterion met
 Total energy in the final basis set = -1510.30268029
   11   -1510.3026867466      4.23E-09 Convergence criterion met
 Total energy in the final basis set = -1510.30268675

             Standard Nuclear Orientation (Angstroms)
    I     Atom           X                Y                Z
 ----------------------------------------------------------------
    1      O       3.6161268533    -1.4148662881     0.6150874810
    2      C       3.7852532528    -0.3346226539     0.0048637074
    3      C       2.7515415168     0.8290202655    -0.1433566716
    4      C       1.2967141708     0.3962921363     0.2949286044
    5      C       1.1276583230    -1.1338339997     0.5813919815
    6      O       1.2333871247    -1.8183659814    -0.6868988127
    7      C       0.8948867830    -3.2483567357    -0.5356144302
    8      C      -0.6045200629    -3.4768889943    -0.9624173959
    9      O      -1.4824337074    -2.6919303341    -0.0617391317
   10      C      -1.6917964049    -1.3781599389    -0.5790643224
   11      C      -2.3296429875    -0.5056368606     0.5499250877
   12      C      -2.5941310068     0.9838652576     0.0909887950
   13      C      -2.1600717655     1.3004562177    -1.3880866885
   14      O      -2.8921194287     1.4071152068    -2.3920200369
   15      O       5.0011636667     0.0330058352    -0.6499170826
   16      O      -0.7561083069     1.6567275802    -1.3859906524
   17      O      -1.4173061170    -1.0099681476    -1.7451719341
   18      C      -0.2959721136     1.9183082468    -2.7673336301
   19      C      -3.8044100109    -0.9837963013     0.9017872954
   20      C      -4.2382006792    -0.3035265356     2.2596014200
   21      C      -4.5076703056     1.1735854269     1.7864482891
   22      C      -4.1711611030     1.0668552191     0.2480456117
   23      O      -4.6280911369    -0.2947073571    -0.1162861011
   24      H      -1.6662793882    -0.5576104292     1.4328159096
   25      H      -2.0758974426     1.6934177137     0.7596656481
   26      H      -3.9478973457    -2.0806309149     0.8515547142
   27      H      -5.1528915868    -0.7763284363     2.6512584772
   28      H      -3.4495857934    -0.3703160937     3.0262601351
   29      H      -5.5618831366     1.4583496135     1.9314003712
   30      H      -3.8690685376     1.9093099411     2.3006120065
   31      H      -4.6530025001     1.8202642828    -0.4045571736
   32      O       0.8093153175    -1.6857610047     1.6558867784
   33      C       6.0043248444    -1.0465404976    -0.4941782956
   34      C       3.0543839959     1.9687828435     0.9267241224
   35      C       2.1630615464     3.2284293936     0.5862369938
   36      C       0.7475137358     2.7468653857     1.0771545074
   37      C       1.0897777518     1.2909356315     1.5857460704
   38      O       2.4484302734     1.4285507787     2.1621084503
   39      H       2.7881202238     1.2186303191    -1.1762332072
   40      H       0.5452377143     0.6862509215    -0.4740238240
   41      H       5.6589100253    -1.9920880777    -0.9599167326
   42      H       4.1318110584     2.1780916043     1.0755880022
   43      H       2.5129916523     4.1089620420     1.1481130222
   44      H       2.1791873496     3.4657965652    -0.4895058911
   45      H       0.3646995418     3.3750830411     1.8966453974
   46      H       0.0128702201     2.7129568581     0.2533228063
   47      H       0.3966812167     0.8600125788     2.3341357614
   48      H       6.2304858994    -1.2427891323     0.5737174978
   49      H       6.9165957473    -0.6921001993    -1.0080993866
   50      H       0.7515000826     2.2613175139    -2.6827532618
   51      H      -0.9096257848     2.7007849167    -3.2573703035
   52      H      -0.3385120248     0.9944003746    -3.3793954699
   53      H      -0.7560254864    -3.1598040204    -2.0160091980
   54      H      -0.8851825263    -4.5423984429    -0.8376938046
   55      H       1.0323711850    -3.5582879156     0.5224122998
   56      H       1.5682605345    -3.8288308382    -1.1992817327
 ----------------------------------------------------------------

    9   -1510.3026872922      5.81E-09 Convergence criterion met
 Total energy in the final basis set = -1510.30268729
 Final energy is   -1510.30268729220
 **  OPTIMIZATION CONVERGED  **

                    Orbital Energies (a.u.)
 --------------------------------------------------------------

 Alpha MOs
 -- Occupied --
-18.942 -18.938 -18.938 -18.917 -18.889 -18.889 -18.880 -18.879
-18.876 -18.863 -10.109 -10.102 -10.100 -10.089 -10.074 -10.067
-10.066 -10.066 -10.062 -10.060 -10.056 -10.048 -10.041 -10.038
-10.034 -10.021 -10.020 -10.015 -10.015 -10.007  -1.024  -1.014
 -1.009  -0.997  -0.972  -0.964  -0.947  -0.938  -0.937  -0.926
 -0.766  -0.757  -0.727  -0.719  -0.712  -0.703  -0.694  -0.664
 -0.663  -0.617  -0.597  -0.576  -0.548  -0.541  -0.538  -0.531
 -0.514  -0.506  -0.489  -0.472  -0.469  -0.458  -0.451  -0.446
 -0.433  -0.427  -0.426  -0.416  -0.415  -0.414  -0.410  -0.402
 -0.398  -0.379  -0.374  -0.368  -0.359  -0.357  -0.352  -0.350
 -0.343  -0.340  -0.337  -0.334  -0.328  -0.327  -0.319  -0.315
 -0.309  -0.306  -0.302  -0.298  -0.295  -0.285  -0.280  -0.274
 -0.269  -0.255  -0.253  -0.249  -0.238  -0.236  -0.226  -0.194
 -0.180  -0.179  -0.165  -0.157  -0.154  -0.152  -0.146  -0.144
 -0.138

          Ground-State Mulliken Net Atomic Charges

     Atom                 Charge (a.u.)
  ----------------------------------------
      1 O                    -0.208061
      2 C                     0.214368
      3 C                    -0.077866
      4 C                    -0.098060
      5 C                     0.211853
      6 O                    -0.181242
      7 C                    -0.053542
      8 C                    -0.051900
      9 O                    -0.169486
     10 C                     0.215020
     11 C                    -0.080056
     12 C                    -0.083049
     13 C                     0.221195
     14 O                    -0.207965
     15 O                    -0.169535
     16 O                    -0.176698
     17 O                    -0.206485
     18 C                    -0.127351
     19 C                     0.025782
     20 C                    -0.143487
     21 C                    -0.144171
     22 C                     0.025537
     23 O                    -0.188420
     24 H                     0.093414
     25 H                     0.085257
     26 H                     0.087981
     27 H                     0.078985
     28 H                     0.076208
     29 H                     0.078576
     30 H                     0.073644
     31 H                     0.088280
     32 O                    -0.219298
     33 C                    -0.128278
     34 C                     0.025157
     35 C                    -0.143584
     36 C                    -0.152500
     37 C                     0.022237
     38 O                    -0.192291
     39 H                     0.083580
     40 H                     0.107813
     41 H                     0.089448
     42 H                     0.081743
     43 H                     0.075784
     44 H                     0.070400
     45 H                     0.070603
     46 H                     0.085016
     47 H                     0.080995
     48 H                     0.091038
     49 H                     0.090983
     50 H                     0.086440
     51 H                     0.091497
     52 H                     0.097063
     53 H                     0.098286
     54 H                     0.090571
     55 H                     0.102094
     56 H                     0.086474
  ----------------------------------------
  Sum of atomic charges =    -0.000000

                    Cartesian Multipole Moments
 -----------------------------------------------------------------
    Charge (ESU x 10^10)
                -0.0000
    Dipole Moment (Debye)
         X       1.3437      Y       0.5381      Z      -0.6434
       Tot       1.5840
    Quadrupole Moments (Debye-Ang)
        XX    -156.6852     XY      -1.8805     YY    -148.5830
        XZ     -15.9541     YZ       4.1780     ZZ    -166.5285

 Total job time:  87.39s(wall), 4162.48s(cpu)
        *  Thank you very much for using Q-Chem.  Have a nice day.  *
