 Q-Chem 5.0, Q-Chem, Inc., Pleasanton, CA (2017)
 Q-Chem 5.0.1 for Intel X86 EM64T Linux

User input:
--------------------------------------------------------------
$molecule
0  1
O -3.94934 -3.66094 2.70899
C -3.26408 -4.56952 2.26188
C -3.36658 -6.02376 2.66595
C -4.75477 -6.54337 3.07434
C -5.91734 -5.59895 2.86316
O -6.21567 -4.9613 4.03356
C -7.3579 -4.10434 3.93267
C -8.08837 -4.04249 5.2701
O -8.93441 -5.1935 5.41935
C -8.53716 -6.09187 6.35437
C -9.49308 -7.252 6.49921
C -9.02242 -8.364 7.448
C -7.87238 -8.00526 8.36746
O -7.95448 -7.84789 9.57703
O -2.18714 -4.23862 1.50013
O -6.62962 -8.10496 7.81792
O -7.47675 -5.95399 6.94354
C -5.45157 -7.92636 8.51323
C -10.84586 -6.86817 7.1208
C -11.90547 -7.88258 6.69683
C -11.46009 -9.09923 7.48248
C -10.30879 -8.49473 8.29684
O -10.6922 -7.1538 8.48789
H -9.64726 -7.65635 5.47268
H -8.77102 -9.32179 6.94106
H -11.17239 -5.83574 6.86835
H -12.87709 -7.5278 7.10981
H -12.00863 -8.03776 5.60128
H -12.29557 -9.41009 8.14836
H -11.11711 -9.96175 6.87097
H -10.14609 -9.09126 9.22165
O -6.3057 -5.2345 1.75801
C -1.88492 -2.95652 1.09092
C -3.10388 -6.97126 1.46454
C -2.66313 -8.34616 1.96834
C -3.969 -8.87733 2.51767
C -4.91444 -7.7386 2.1244
O -4.37424 -7.24232 0.9266
H -2.56927 -6.20652 3.42041
H -4.76218 -6.86111 4.14236
H -1.71695 -2.30175 1.97256
H -2.34827 -6.58865 0.74506
H -2.38662 -8.9506 1.07454
H -1.81183 -8.34069 2.6825
H -4.23107 -9.80778 1.96645
H -3.9821 -9.0678 3.61278
H -5.96495 -8.10228 2.07581
H -2.71229 -2.5486 0.47161
H -0.95895 -2.97838 0.48054
H -4.5964 -8.06065 7.81952
H -5.37119 -8.67525 9.32986
H -5.41026 -6.90066 8.93811
H -7.36762 -3.83822 6.09319
H -8.77031 -3.16575 5.25011
H -8.08299 -4.37195 3.12872
H -6.96973 -3.08302 3.72644
$end

$opt
CONSTRAINT
tors           1           2           3           4     +31.807
tors           3           4           5           6     -97.891
tors           4           5           6           7    -176.638
tors           5           6           7           8    +148.954
tors           6           7           8           9     -81.235
tors           7           8           9          10    +110.044
tors           8           9          10          11    +177.882
tors           9          10          11          12    +174.426
tors          11          12          13          14    +109.495
ENDCONSTRAINT
$end

$rem
JOBTYPE                   OPT
METHOD                    B3LYP
DFT_D                     d3_op
BASIS                     STO-3G
GEOM_OPT_MAX_CYCLES       100
GEOM_OPT_TOL_GRADIENT     300
GEOM_OPT_TOL_DISPLACEMENT 1200
GEOM_OPT_TOL_ENERGY       100
SYMMETRY                  False
THRESH                    12
SCF_CONVERGENCE           8
MAX_SUB_FILE_NUM          128
MEM_STATIC                400
MEM_TOTAL                 4000
$end
--------------------------------------------------------------

   15   -1510.1478844656      6.57E-09 Convergence criterion met
 Total energy in the final basis set = -1510.14788447
   14   -1510.2177855774      7.44E-09 Convergence criterion met
 Total energy in the final basis set = -1510.21778558
   13   -1510.2550560700      7.82E-09 Convergence criterion met
 Total energy in the final basis set = -1510.25505607
   14   -1510.2717204640      6.13E-09 Convergence criterion met
 Total energy in the final basis set = -1510.27172046
   13   -1510.2788823581      8.22E-09 Convergence criterion met
 Total energy in the final basis set = -1510.27888236
   13   -1510.2824501887      3.85E-09 Convergence criterion met
 Total energy in the final basis set = -1510.28245019
   13   -1510.2844577805      3.20E-09 Convergence criterion met
 Total energy in the final basis set = -1510.28445778
   12   -1510.2854998200      8.23E-09 Convergence criterion met
   12   -1510.2872655937      3.04E-09 Convergence criterion met
 Total energy in the final basis set = -1510.28726559
   11   -1510.2873307158      6.49E-09 Convergence criterion met
 Total energy in the final basis set = -1510.28733072
   11   -1510.2873807609      5.50E-09 Convergence criterion met
 Total energy in the final basis set = -1510.28738076
   11   -1510.2874076649      4.37E-09 Convergence criterion met
 Total energy in the final basis set = -1510.28740766
   10   -1510.2874182788      7.61E-09 Convergence criterion met
 Total energy in the final basis set = -1510.28741828
    9   -1510.2874220684      6.79E-09 Convergence criterion met
 Total energy in the final basis set = -1510.28742207

             Standard Nuclear Orientation (Angstroms)
    I     Atom           X                Y                Z
 ----------------------------------------------------------------
    1      O       3.9688766490    -1.7290918315    -0.9369392354
    2      C       4.4866475756    -0.5973130182    -0.8004295969
    3      C       3.7155741339     0.7553161264    -0.5970997534
    4      C       2.3579120559     0.5545675782     0.1967321350
    5      C       2.0151685529    -0.9428927905     0.5250425847
    6      O       1.0935793722    -1.3932233770    -0.4760484691
    7      C       0.6470493494    -2.7797504131    -0.2032110059
    8      C      -0.8111338121    -2.8772541106    -0.7584798194
    9      O      -1.7468718813    -2.3003950285     0.2405068355
   10      C      -2.2812217218    -1.0671813733    -0.2451738210
   11      C      -3.3016954623    -0.5106077310     0.8001191957
   12      C      -3.8435754316     0.9260033817     0.4156843340
   13      C      -3.1407075775     1.5725576766    -0.8356740174
   14      O      -3.6295122099     1.7625967611    -1.9686473137
   15      O       5.8907100157    -0.3498448885    -0.8733625972
   16      O      -1.8452140844     2.0341199827    -0.4146692955
   17      O      -1.9923227068    -0.5633570705    -1.3551249141
   18      C      -1.0934885999     2.5415116521    -1.5825496615
   19      C      -4.6499831032    -1.3552840999     0.7552390879
   20      C      -5.5417611239    -0.9493188120     1.9947072477
   21      C      -6.1024785209     0.4447180957     1.5260489179
   22      C      -5.3725645043     0.6103778389     0.1364270390
   23      O      -5.3596100984    -0.7706193128    -0.4038890396
   24      H      -2.8398239011    -0.5315939134     1.8034269100
   25      H      -3.7241342080     1.6182534621     1.2682897940
   26      H      -4.4985598923    -2.4437535173     0.6171051433
   27      H      -6.3494094063    -1.6833051948     2.1439846842
   28      H      -4.9506425503    -0.8812027796     2.9220289098
   29      H      -7.1944631992     0.4109959168     1.3839979248
   30      H      -5.8617449517     1.2603870565     2.2263426798
   31      H      -5.8518940803     1.2999658066    -0.5851099015
   32      O       2.3548141402    -1.6084396035     1.5269143595
   33      C       6.6164219339    -1.6221346411    -1.0988561764
   34      C       4.4850168950     1.7449349314     0.3738617903
   35      C       3.8022570816     3.1675094921     0.2961073249
   36      C       2.4977777357     2.9292343996     1.1441147709
   37      C       2.6508600525     1.4010016674     1.5079015614
   38      O       4.1088275659     1.2418775173     1.7151885226
   39      H       3.5395425645     1.2061445651    -1.5915866181
   40      H       1.5083595783     0.9717361613    -0.3719483729
   41      H       6.3295382928    -2.0881718430    -2.0636512826
   42      H       5.5842544238     1.7315726093     0.2452680907
   43      H       4.4494509451     3.9315515890     0.7549910384
   44      H       3.5860994998     3.4652699383    -0.7424885476
   45      H       2.4946994789     3.5432678666     2.0586476867
   46      H       1.5742753910     3.1327447907     0.5784955577
   47      H       2.0943307917     1.0642028607     2.4037006170
   48      H       6.4228323829    -2.3489858902    -0.2840239513
   49      H       7.6903082244    -1.3605714992    -1.1176322621
   50      H      -0.1450941842     2.9494930787    -1.1861136494
   51      H      -1.6472721872     3.3411321926    -2.1157899589
   52      H      -0.8750041137     1.7233674069    -2.2996610000
   53      H      -0.8975059460    -2.3107952192    -1.7107333262
   54      H      -1.0985375162    -3.9387289348    -0.9093524652
   55      H       0.6877271892    -2.9956553146     0.8862661123
   56      H       1.3097313813    -3.5004469407    -0.7322464196
 ----------------------------------------------------------------

    9   -1510.2874216144      4.91E-09 Convergence criterion met
 Total energy in the final basis set = -1510.28742161
 Final energy is   -1510.28742161440
 **  OPTIMIZATION CONVERGED  **

                    Orbital Energies (a.u.)
 --------------------------------------------------------------

 Alpha MOs
 -- Occupied --
-18.943 -18.939 -18.923 -18.919 -18.886 -18.886 -18.885 -18.881
-18.863 -18.861 -10.105 -10.104 -10.092 -10.090 -10.071 -10.068
-10.067 -10.061 -10.058 -10.057 -10.056 -10.056 -10.040 -10.040
-10.033 -10.032 -10.020 -10.020 -10.019 -10.019  -1.020  -1.018
 -1.001  -0.997  -0.969  -0.969  -0.943  -0.941  -0.927  -0.924
 -0.763  -0.762  -0.727  -0.722  -0.714  -0.705  -0.695  -0.665
 -0.656  -0.616  -0.596  -0.576  -0.545  -0.543  -0.537  -0.536
 -0.512  -0.510  -0.486  -0.475  -0.462  -0.455  -0.452  -0.450
 -0.432  -0.431  -0.420  -0.416  -0.415  -0.412  -0.404  -0.403
 -0.398  -0.379  -0.372  -0.366  -0.361  -0.354  -0.352  -0.349
 -0.342  -0.337  -0.336  -0.332  -0.329  -0.325  -0.324  -0.311
 -0.311  -0.305  -0.304  -0.301  -0.295  -0.279  -0.276  -0.275
 -0.271  -0.258  -0.253  -0.245  -0.243  -0.234  -0.233  -0.185
 -0.182  -0.166  -0.164  -0.161  -0.159  -0.144  -0.144  -0.143
 -0.141

          Ground-State Mulliken Net Atomic Charges

     Atom                 Charge (a.u.)
  ----------------------------------------
      1 O                    -0.210903
      2 C                     0.213874
      3 C                    -0.077587
      4 C                    -0.081342
      5 C                     0.213599
      6 O                    -0.174762
      7 C                    -0.050490
      8 C                    -0.054168
      9 O                    -0.172526
     10 C                     0.217009
     11 C                    -0.077386
     12 C                    -0.081500
     13 C                     0.216802
     14 O                    -0.215302
     15 O                    -0.167630
     16 O                    -0.178556
     17 O                    -0.206461
     18 C                    -0.128739
     19 C                     0.025178
     20 C                    -0.144007
     21 C                    -0.143652
     22 C                     0.024538
     23 O                    -0.189356
     24 H                     0.087621
     25 H                     0.083217
     26 H                     0.084809
     27 H                     0.078251
     28 H                     0.073822
     29 H                     0.078048
     30 H                     0.073219
     31 H                     0.089665
     32 O                    -0.218442
     33 C                    -0.127483
     34 C                     0.023228
     35 C                    -0.144656
     36 C                    -0.143298
     37 C                     0.025388
     38 O                    -0.189382
     39 H                     0.085851
     40 H                     0.086431
     41 H                     0.089540
     42 H                     0.090966
     43 H                     0.078012
     44 H                     0.072355
     45 H                     0.077991
     46 H                     0.072404
     47 H                     0.086118
     48 H                     0.093790
     49 H                     0.092207
     50 H                     0.079883
     51 H                     0.087974
     52 H                     0.092796
     53 H                     0.108333
     54 H                     0.087191
     55 H                     0.099242
     56 H                     0.088275
  ----------------------------------------
  Sum of atomic charges =    -0.000000

                    Cartesian Multipole Moments
 -----------------------------------------------------------------
    Charge (ESU x 10^10)
                -0.0000
    Dipole Moment (Debye)
         X       1.0384      Y       0.5826      Z       0.4784
       Tot       1.2832
    Quadrupole Moments (Debye-Ang)
        XX    -154.7615     XY       1.7594     YY    -150.4839
        XZ     -22.5024     YZ       3.0979     ZZ    -164.8626

 Total job time:  52.77s(wall), 2510.93s(cpu)
        *  Thank you very much for using Q-Chem.  Have a nice day.  *
