 Q-Chem 5.0, Q-Chem, Inc., Pleasanton, CA (2017)
 Q-Chem 5.0.1 for Intel X86 EM64T Linux

User input:
--------------------------------------------------------------
$molecule
0  1
O 3.968876649 -1.7290918315 -0.9369392354
C 4.4866475756 -0.5973130182 -0.8004295969
C 3.7155741339 0.7553161264 -0.5970997534
C 2.3579120559 0.5545675782 0.196732135
C 2.0151685529 -0.9428927905 0.5250425847
O 1.0935793722 -1.393223377 -0.4760484691
C 0.6470493494 -2.7797504131 -0.2032110059
C -0.8111338121 -2.8772541106 -0.7584798194
O -1.7468718813 -2.3003950285 0.2405068355
C -2.2812217218 -1.0671813733 -0.245173821
C -3.3016954623 -0.510607731 0.8001191957
C -3.8435754316 0.9260033817 0.415684334
C -3.1407075775 1.5725576766 -0.8356740174
O -3.6295122099 1.7625967611 -1.9686473137
O 5.8907100157 -0.3498448885 -0.8733625972
O -1.8452140844 2.0341199827 -0.4146692955
O -1.9923227068 -0.5633570705 -1.3551249141
C -1.0934885999 2.5415116521 -1.5825496615
C -4.6499831032 -1.3552840999 0.7552390879
C -5.5417611239 -0.949318812 1.9947072477
C -6.1024785209 0.4447180957 1.5260489179
C -5.3725645043 0.6103778389 0.136427039
O -5.3596100984 -0.7706193128 -0.4038890396
H -2.8398239011 -0.5315939134 1.80342691
H -3.724134208 1.6182534621 1.268289794
H -4.4985598923 -2.4437535173 0.6171051433
H -6.3494094063 -1.6833051948 2.1439846842
H -4.9506425503 -0.8812027796 2.9220289098
H -7.1944631992 0.4109959168 1.3839979248
H -5.8617449517 1.2603870565 2.2263426798
H -5.8518940803 1.2999658066 -0.5851099015
O 2.3548141402 -1.6084396035 1.5269143595
C 6.6164219339 -1.6221346411 -1.0988561764
C 4.485016895 1.7449349314 0.3738617903
C 3.8022570816 3.1675094921 0.2961073249
C 2.4977777357 2.9292343996 1.1441147709
C 2.6508600525 1.4010016674 1.5079015614
O 4.1088275659 1.2418775173 1.7151885226
H 3.5395425645 1.2061445651 -1.5915866181
H 1.5083595783 0.9717361613 -0.3719483729
H 6.3295382928 -2.088171843 -2.0636512826
H 5.5842544238 1.7315726093 0.2452680907
H 4.4494509451 3.931551589 0.7549910384
H 3.5860994998 3.4652699383 -0.7424885476
H 2.4946994789 3.5432678666 2.0586476867
H 1.574275391 3.1327447907 0.5784955577
H 2.0943307917 1.0642028607 2.403700617
H 6.4228323829 -2.3489858902 -0.2840239513
H 7.6903082244 -1.3605714992 -1.1176322621
H -0.1450941842 2.9494930787 -1.1861136494
H -1.6472721872 3.3411321926 -2.1157899589
H -0.8750041137 1.7233674069 -2.299661
H -0.897505946 -2.3107952192 -1.7107333262
H -1.0985375162 -3.9387289348 -0.9093524652
H 0.6877271892 -2.9956553146 0.8862661123
H 1.3097313813 -3.5004469407 -0.7322464196
$end

$rem
JOBTYPE                   OPT
METHOD                    B3LYP
DFT_D                     d3_op
BASIS                     STO-3G
GEOM_OPT_MAX_CYCLES       100
GEOM_OPT_TOL_GRADIENT     300
GEOM_OPT_TOL_DISPLACEMENT 1200
GEOM_OPT_TOL_ENERGY       100
SYMMETRY                  False
THRESH                    12
SCF_CONVERGENCE           8
MAX_SUB_FILE_NUM          128
MEM_STATIC                400
MEM_TOTAL                 4000
$end
--------------------------------------------------------------

   16   -1510.2874659788      5.27E-09 Convergence criterion met
 Total energy in the final basis set = -1510.28746598
   14   -1510.2862504867      1.79E-09 Convergence criterion met
 Total energy in the final basis set = -1510.28625049
   14   -1510.2889837792      3.26E-09 Convergence criterion met
 Total energy in the final basis set = -1510.28898378
   13   -1510.2903419883      6.66E-09 Convergence criterion met
 Total energy in the final basis set = -1510.29034199
   14   -1510.2924380105      1.29E-09 Convergence criterion met
 Total energy in the final basis set = -1510.29243801
   14   -1510.2434036592      6.07E-09 Convergence criterion met
 Total energy in the final basis set = -1510.24340366
   14   -1510.2923707214      5.45E-09 Convergence criterion met
 Total energy in the final basis set = -1510.29237072
   14   -1510.2940795463      3.15E-09 Convergence criterion met
   12   -1510.3026249043      4.41E-09 Convergence criterion met
 Total energy in the final basis set = -1510.30262490
   12   -1510.3026413021      3.09E-09 Convergence criterion met
 Total energy in the final basis set = -1510.30264130
    9   -1510.3026423835      6.95E-09 Convergence criterion met
 Total energy in the final basis set = -1510.30264238
    9   -1510.3026425301      3.68E-09 Convergence criterion met
 Total energy in the final basis set = -1510.30264253
    9   -1510.3026413650      4.24E-09 Convergence criterion met
 Total energy in the final basis set = -1510.30264137
    9   -1510.3026420061      3.14E-09 Convergence criterion met
 Total energy in the final basis set = -1510.30264201

             Standard Nuclear Orientation (Angstroms)
    I     Atom           X                Y                Z
 ----------------------------------------------------------------
    1      O       3.5518488312    -1.6041253174     0.4810587000
    2      C       3.7517025407    -0.5146389542    -0.1028144085
    3      C       2.7628189680     0.6927692674    -0.1976876997
    4      C       1.3001064059     0.3047356733     0.2575359191
    5      C       1.0743236311    -1.2242804729     0.5093698687
    6      O       1.1205279992    -1.8801611246    -0.7773962405
    7      C       0.7166756290    -3.2958775147    -0.6528011142
    8      C      -0.8021546365    -3.4419732924    -1.0463611178
    9      O      -1.6202640479    -2.6380357664    -0.1065708451
   10      C      -1.7790885829    -1.3040605700    -0.5891539048
   11      C      -2.3561428169    -0.4300731828     0.5711565830
   12      C      -2.5684948210     1.0783245251     0.1479553943
   13      C      -2.1473979897     1.4087910757    -1.3316614169
   14      O      -2.8907130120     1.5682068493    -2.3201715956
   15      O       4.9681255448    -0.1770806083    -0.7726631483
   16      O      -0.7294360274     1.7047766674    -1.3466081266
   17      O      -1.5101354692    -0.9212750929    -1.7518488600
   18      C      -0.2821642264     1.9814161598    -2.7291887460
   19      C      -3.8415509328    -0.8550380309     0.9439899235
   20      C      -4.2209978592    -0.1858399479     2.3235121948
   21      C      -4.4392462920     1.3102354643     1.8849444976
   22      C      -4.1373734404     1.2215855055     0.3382195726
   23      O      -4.6566369699    -0.1128459625    -0.0432882309
   24      H      -1.6776108242    -0.5271589544     1.4384542955
   25      H      -2.0094431257     1.7514435284     0.8213382882
   26      H      -4.0303603799    -1.9439649851     0.8752242593
   27      H      -5.1465345532    -0.6292027511     2.7240055641
   28      H      -3.4211819905    -0.3002413354     3.0726270614
   29      H      -5.4781106644     1.6338845167     2.0565864155
   30      H      -3.7617911245     2.0091908782     2.4008101317
   31      H      -4.6008402391     2.0070681182    -0.2893886539
   32      O       0.7592469775    -1.7898900092     1.5777349146
   33      C       5.9297807749    -1.2996653534    -0.6681049438
   34      C       3.1310562711     1.7896723787     0.8964782036
   35      C       2.2849863889     3.0926650274     0.6079799173
   36      C       0.8600825203     2.6531531291     1.1106889016
   37      C       1.1532132822     1.1722937738     1.5749101454
   38      O       2.5265215892     1.2394430954     2.1281902722
   39      H       2.7951294414     1.1087395067    -1.2203912164
   40      H       0.5472774991     0.6440832331    -0.4894640358
   41      H       5.5395467934    -2.2156735687    -1.1570112289
   42      H       4.2186363572     1.9516431335     1.0298376052
   43      H       2.6796438137     3.9419956570     1.1879797048
   44      H       2.2919578916     3.3605464700    -0.4606902804
   45      H       0.5150935490     3.2740295085     1.9522773696
   46      H       0.1124065145     2.6691671473     0.2981023940
   47      H       0.4573609151     0.7494712434     2.3253182953
   48      H       6.1653019401    -1.5385608043     0.3890092266
   49      H       6.8469530106    -0.9652986212    -1.1867512727
   50      H       0.7800401674     2.2784859878    -2.6550438363
   51      H      -0.8706131602     2.8005930900    -3.1892294308
   52      H      -0.3733012670     1.0755275786    -3.3625753011
   53      H      -0.9637741588    -3.0926528973    -2.0882362157
   54      H      -1.1303366225    -4.4956916703    -0.9390949857
   55      H       0.8649914154    -3.6386637320     0.3935235854
   56      H       1.3446947983    -3.8906290370    -1.3475622692
 ----------------------------------------------------------------

    9   -1510.3026428913      3.54E-09 Convergence criterion met
 Total energy in the final basis set = -1510.30264289
 Final energy is   -1510.30264289129
 **  OPTIMIZATION CONVERGED  **

                    Orbital Energies (a.u.)
 --------------------------------------------------------------

 Alpha MOs
 -- Occupied --
-18.942 -18.938 -18.938 -18.917 -18.889 -18.889 -18.880 -18.879
-18.876 -18.863 -10.109 -10.103 -10.100 -10.089 -10.074 -10.066
-10.066 -10.066 -10.062 -10.060 -10.056 -10.048 -10.041 -10.038
-10.034 -10.021 -10.020 -10.015 -10.015 -10.006  -1.024  -1.014
 -1.009  -0.997  -0.972  -0.964  -0.947  -0.938  -0.937  -0.926
 -0.766  -0.757  -0.727  -0.719  -0.712  -0.703  -0.694  -0.664
 -0.663  -0.617  -0.597  -0.576  -0.548  -0.541  -0.538  -0.531
 -0.514  -0.506  -0.489  -0.472  -0.469  -0.459  -0.451  -0.446
 -0.433  -0.427  -0.426  -0.417  -0.414  -0.413  -0.410  -0.402
 -0.398  -0.379  -0.374  -0.368  -0.359  -0.357  -0.352  -0.350
 -0.343  -0.340  -0.337  -0.334  -0.328  -0.327  -0.319  -0.315
 -0.309  -0.306  -0.302  -0.298  -0.295  -0.285  -0.280  -0.274
 -0.269  -0.255  -0.253  -0.249  -0.238  -0.236  -0.226  -0.194
 -0.180  -0.179  -0.165  -0.157  -0.154  -0.152  -0.146  -0.144
 -0.138

          Ground-State Mulliken Net Atomic Charges

     Atom                 Charge (a.u.)
  ----------------------------------------
      1 O                    -0.208018
      2 C                     0.214283
      3 C                    -0.077849
      4 C                    -0.097753
      5 C                     0.211781
      6 O                    -0.181112
      7 C                    -0.053590
      8 C                    -0.051957
      9 O                    -0.169368
     10 C                     0.214992
     11 C                    -0.079963
     12 C                    -0.083045
     13 C                     0.221230
     14 O                    -0.207974
     15 O                    -0.169570
     16 O                    -0.176736
     17 O                    -0.206406
     18 C                    -0.127365
     19 C                     0.025761
     20 C                    -0.143522
     21 C                    -0.144142
     22 C                     0.025455
     23 O                    -0.188423
     24 H                     0.093280
     25 H                     0.085337
     26 H                     0.088020
     27 H                     0.079018
     28 H                     0.076180
     29 H                     0.078583
     30 H                     0.073642
     31 H                     0.088295
     32 O                    -0.219124
     33 C                    -0.128280
     34 C                     0.025147
     35 C                    -0.143575
     36 C                    -0.152882
     37 C                     0.022303
     38 O                    -0.192262
     39 H                     0.083568
     40 H                     0.107429
     41 H                     0.089387
     42 H                     0.081768
     43 H                     0.075755
     44 H                     0.070353
     45 H                     0.070444
     46 H                     0.085436
     47 H                     0.080929
     48 H                     0.091095
     49 H                     0.090954
     50 H                     0.086427
     51 H                     0.091470
     52 H                     0.097003
     53 H                     0.098321
     54 H                     0.090610
     55 H                     0.102120
     56 H                     0.086540
  ----------------------------------------
  Sum of atomic charges =     0.000000

                    Cartesian Multipole Moments
 -----------------------------------------------------------------
    Charge (ESU x 10^10)
                -0.0000
    Dipole Moment (Debye)
         X       1.3279      Y       0.5097      Z      -0.6572
       Tot       1.5668
    Quadrupole Moments (Debye-Ang)
        XX    -157.4741     XY      -1.0134     YY    -148.7289
        XZ     -15.9846     YZ       5.3485     ZZ    -165.6399

 Total job time:  103.50s(wall), 4933.97s(cpu)
        *  Thank you very much for using Q-Chem.  Have a nice day.  *
