 Q-Chem 5.0, Q-Chem, Inc., Pleasanton, CA (2017)
 Q-Chem 5.0.1 for Intel X86 EM64T Linux

User input:
--------------------------------------------------------------
$molecule
0  1
O 4.3066747998 -1.4295337286 -1.0572805488
C 4.6525341606 -0.2818583756 -0.6972356487
C 3.7164473645 0.968553936 -0.5558766447
C 2.2088005512 0.5781763224 -0.2711302838
C 1.9918397991 -0.9402139196 0.0599197944
O 1.0634153804 -1.4651416437 -0.9000065438
C 0.7486524716 -2.8819625227 -0.597635264
C -0.7886848895 -3.0560366067 -0.8155702027
O -1.5015195064 -2.3601820811 0.2866895286
C -2.1633687924 -1.198146888 -0.2116142696
C -2.9437430617 -0.5053367474 0.9578075757
C -3.6838883707 0.7883854932 0.4408014526
C -3.1179902942 1.373728876 -0.9031244254
O -3.7808504333 1.7593051087 -1.8903929399
O 5.9979211673 0.0927298671 -0.3975265297
O -1.7199871711 1.6666374878 -0.7039379377
O -2.1910399699 -0.8606422062 -1.4186678229
C -1.1416558453 2.2162859463 -1.9490563392
C -4.1962196695 -1.4230505991 1.2990209602
C -4.9972829426 -0.8055844687 2.513975777
C -5.7874861922 0.3595617575 1.8082037006
C -5.1841408882 0.2817750853 0.3528560833
O -5.0695863462 -1.1795808138 0.125564207
H -2.2810201803 -0.3252115757 1.8223992507
H -3.5958311647 1.5936047681 1.1936922062
H -3.9535091036 -2.4997478675 1.3902434365
H -5.6777122982 -1.5551481434 2.9481585161
H -4.3239260728 -0.4409510799 3.3064277806
H -6.8701449556 0.1561606755 1.787852779
H -5.617826259 1.3396525982 2.2816954388
H -5.7769962518 0.7579914366 -0.452369522
O 2.4154276767 -1.5771946834 1.0489307101
C 6.8923580209 -1.0795168463 -0.5443833272
C 4.0390714463 1.8969387592 0.6915501816
C 3.3808019574 3.3072419969 0.4253202652
C 1.8570395324 2.9703715371 0.6316567561
C 1.9304335625 1.4441529395 1.0326129149
O 3.2059360844 1.3325257699 1.7775862131
H 3.7945484564 1.5454256047 -1.4966154514
H 1.5449358779 0.8505958096 -1.1094027275
H 6.8891076898 -1.4671014899 -1.5837856933
H 5.1075010713 1.9097902916 0.9806173682
H 3.7349060076 4.0419161963 1.1661794169
H 3.6024836155 3.6883856599 -0.5842705069
H 1.4166333718 3.5627504324 1.4490326132
H 1.2586283478 3.1264795601 -0.2796082281
H 1.0869843788 1.0783555813 1.6493289179
H 6.5987043831 -1.901801732 0.1394603271
H 7.9061567803 -0.7236971194 -0.2842168495
H -0.4508472871 1.4728500733 -2.3959773982
H -0.5805016072 3.1383061603 -1.701853392
H -1.9577211767 2.44471846 -2.6643669791
H -1.0987898556 -2.6092640512 -1.7848373234
H -1.068216302 -4.1295839973 -0.7753838612
H 1.0493456124 -3.1127642012 0.4476233803
H 1.3111091244 -3.5451883056 -1.2911840097
$end

$rem
JOBTYPE                   OPT
METHOD                    B3LYP
DFT_D                     d3_op
BASIS                     STO-3G
GEOM_OPT_MAX_CYCLES       100
GEOM_OPT_TOL_GRADIENT     300
GEOM_OPT_TOL_DISPLACEMENT 1200
GEOM_OPT_TOL_ENERGY       100
SYMMETRY                  False
THRESH                    12
SCF_CONVERGENCE           8
MAX_SUB_FILE_NUM          128
MEM_STATIC                400
MEM_TOTAL                 4000
$end
--------------------------------------------------------------

   16   -1510.2852350480      6.08E-09 Convergence criterion met
 Total energy in the final basis set = -1510.28523505
   13   -1510.2844142844      9.07E-09 Convergence criterion met
 Total energy in the final basis set = -1510.28441428
   13   -1510.2876205980      9.72E-09 Convergence criterion met
 Total energy in the final basis set = -1510.28762060
   14   -1510.2895711461      2.12E-09 Convergence criterion met
 Total energy in the final basis set = -1510.28957115
   14   -1510.2912364443      1.96E-09 Convergence criterion met
 Total energy in the final basis set = -1510.29123644
   13   -1510.2931614544      9.38E-09 Convergence criterion met
 Total energy in the final basis set = -1510.29316145
   14   -1510.2950277896      3.56E-09 Convergence criterion met
 Total energy in the final basis set = -1510.29502779
   14   -1510.2956680565      1.26E-09 Convergence criterion met
   13   -1510.3021913368      3.14E-09 Convergence criterion met
 Total energy in the final basis set = -1510.30219134
   12   -1510.3022984371      8.77E-09 Convergence criterion met
 Total energy in the final basis set = -1510.30229844
   12   -1510.3023379545      3.90E-09 Convergence criterion met
 Total energy in the final basis set = -1510.30233795
   12   -1510.3023629063      2.48E-09 Convergence criterion met
 Total energy in the final basis set = -1510.30236291
   11   -1510.3023725165      7.00E-09 Convergence criterion met
 Total energy in the final basis set = -1510.30237252
   10   -1510.3023735198      8.04E-09 Convergence criterion met
 Total energy in the final basis set = -1510.30237352

             Standard Nuclear Orientation (Angstroms)
    I     Atom           X                Y                Z
 ----------------------------------------------------------------
    1      O       3.5955742576    -1.5264312037     0.5173973323
    2      C       3.7738056124    -0.4164751574    -0.0339202012
    3      C       2.7586933717     0.7705983905    -0.1001885584
    4      C       1.3012007993     0.3382853445     0.3303637628
    5      C       1.1102311188    -1.2009919489     0.5427518813
    6      O       1.1749083557    -1.8222902147    -0.7606673616
    7      C       0.8122176005    -3.2515468747    -0.6708063432
    8      C      -0.6972387891    -3.4304560325    -1.0854455527
    9      O      -1.5450949990    -2.6502562377    -0.1516970575
   10      C      -1.7267035247    -1.3181313506    -0.6297663983
   11      C      -2.3497401659    -0.4625511313     0.5202068454
   12      C      -2.5813277479     1.0415183883     0.0924087491
   13      C      -2.1063148853     1.3903082139    -1.3656780563
   14      O      -2.8162152944     1.5625614163    -2.3774968104
   15      O       4.9850723081    -0.0340015072    -0.6892319106
   16      O      -0.6914163085     1.7044756442    -1.3188321186
   17      O      -1.4472377843    -0.9213858611    -1.7854439051
   18      C      -0.1833558574     2.0124451170    -2.6737687003
   19      C      -3.8369327335    -0.9182047902     0.8479292245
   20      C      -4.2776284290    -0.2496527120     2.2095000752
   21      C      -4.5219628534     1.2372474544     1.7533083430
   22      C      -4.1596700569     1.1478326132     0.2198667608
   23      O      -4.6334331651    -0.2002221661    -0.1720419732
   24      H      -1.6935654501    -0.5477545348     1.4056514351
   25      H      -2.0665518292     1.7253073981     0.7900676363
   26      H      -3.9991432522    -2.0114839809     0.7799490461
   27      H      -5.2028717886    -0.7153569583     2.5843838447
   28      H      -3.4988992583    -0.3371817007     2.9840927729
   29      H      -5.5754871452     1.5315321192     1.8836367458
   30      H      -3.8846974800     1.9584748897     2.2892730945
   31      H      -4.6159722271     1.9189879712    -0.4303560088
   32      O       0.8087032476    -1.8028058788     1.5950837443
   33      C       5.9705522209    -1.1378855683    -0.6117555309
   34      C       3.0928910950     1.8436889586     1.0279517217
   35      C       2.2239014052     3.1365917685     0.7647815002
   36      C       0.8024440419     2.6545758384     1.2371427837
   37      C       1.1208317693     1.1683307385     1.6672194587
   38      O       2.4864489044     1.2490763343     2.2380424895
   39      H       2.7886400120     1.2179205945    -1.1095936592
   40      H       0.5493168262     0.6800394535    -0.4172940315
   41      H       5.5947132120    -2.0540746678    -1.1113468127
   42      H       4.1753656810     2.0240598622     1.1781832207
   43      H       2.5932728500     3.9770540720     1.3737016008
   44      H       2.2383418907     3.4345912476    -0.2958054878
   45      H       0.4326729154     3.2463952162     2.0890805724
   46      H       0.0652298956     2.6767545297     0.4156834625
   47      H       0.4249413439     0.7123695988     2.3979158098
   48      H       6.2213126419    -1.3883261907     0.4392336746
   49      H       6.8757752755    -0.7762283345    -1.1330768888
   50      H       0.4171861958     1.1594246633    -3.0485318768
   51      H       0.4542401123     2.9146968667    -2.6068749334
   52      H      -1.0405370735     2.1897817026    -3.3537702251
   53      H      -0.8534019736    -3.0781305794    -2.1271247706
   54      H      -1.0036191729    -4.4916840033    -0.9884907779
   55      H       0.9585559629    -3.6103815371     0.3703807880
   56      H       1.4646928771    -3.8139370034    -1.3699061965
 ----------------------------------------------------------------

    9   -1510.3023740051      7.20E-09 Convergence criterion met
 Total energy in the final basis set = -1510.30237401
 Final energy is   -1510.30237400510
 **  OPTIMIZATION CONVERGED  **

                    Orbital Energies (a.u.)
 --------------------------------------------------------------

 Alpha MOs
 -- Occupied --
-18.943 -18.938 -18.936 -18.917 -18.890 -18.889 -18.880 -18.879
-18.878 -18.863 -10.109 -10.104 -10.100 -10.089 -10.074 -10.066
-10.066 -10.063 -10.061 -10.060 -10.056 -10.048 -10.042 -10.040
-10.033 -10.022 -10.021 -10.015 -10.014 -10.007  -1.024  -1.014
 -1.010  -0.997  -0.973  -0.964  -0.947  -0.938  -0.938  -0.926
 -0.767  -0.756  -0.727  -0.719  -0.713  -0.703  -0.694  -0.663
 -0.662  -0.617  -0.597  -0.576  -0.548  -0.541  -0.538  -0.531
 -0.514  -0.505  -0.489  -0.472  -0.469  -0.459  -0.452  -0.446
 -0.434  -0.427  -0.426  -0.419  -0.414  -0.413  -0.408  -0.402
 -0.398  -0.379  -0.374  -0.369  -0.359  -0.359  -0.351  -0.350
 -0.343  -0.339  -0.338  -0.334  -0.329  -0.326  -0.319  -0.315
 -0.309  -0.306  -0.303  -0.298  -0.295  -0.286  -0.280  -0.275
 -0.269  -0.255  -0.252  -0.246  -0.238  -0.236  -0.225  -0.194
 -0.180  -0.177  -0.166  -0.158  -0.156  -0.154  -0.147  -0.144
 -0.138

          Ground-State Mulliken Net Atomic Charges

     Atom                 Charge (a.u.)
  ----------------------------------------
      1 O                    -0.208202
      2 C                     0.214013
      3 C                    -0.078170
      4 C                    -0.098895
      5 C                     0.211535
      6 O                    -0.181542
      7 C                    -0.053769
      8 C                    -0.051891
      9 O                    -0.169114
     10 C                     0.215281
     11 C                    -0.079625
     12 C                    -0.082461
     13 C                     0.223290
     14 O                    -0.209022
     15 O                    -0.169586
     16 O                    -0.178081
     17 O                    -0.205129
     18 C                    -0.134181
     19 C                     0.025758
     20 C                    -0.143583
     21 C                    -0.144051
     22 C                     0.025495
     23 O                    -0.188449
     24 H                     0.093032
     25 H                     0.085823
     26 H                     0.088163
     27 H                     0.079199
     28 H                     0.076150
     29 H                     0.078772
     30 H                     0.073727
     31 H                     0.088793
     32 O                    -0.218953
     33 C                    -0.128288
     34 C                     0.025253
     35 C                    -0.143473
     36 C                    -0.151749
     37 C                     0.022261
     38 O                    -0.192157
     39 H                     0.084472
     40 H                     0.108686
     41 H                     0.089532
     42 H                     0.081686
     43 H                     0.075693
     44 H                     0.070916
     45 H                     0.070737
     46 H                     0.083961
     47 H                     0.080917
     48 H                     0.090777
     49 H                     0.090898
     50 H                     0.089646
     51 H                     0.083454
     52 H                     0.104529
     53 H                     0.098463
     54 H                     0.090705
     55 H                     0.102303
     56 H                     0.086448
  ----------------------------------------
  Sum of atomic charges =     0.000000

                    Cartesian Multipole Moments
 -----------------------------------------------------------------
    Charge (ESU x 10^10)
                -0.0000
    Dipole Moment (Debye)
         X       1.1780      Y       0.5846      Z      -0.5662
       Tot       1.4318
    Quadrupole Moments (Debye-Ang)
        XX    -156.3215     XY      -1.0045     YY    -149.0516
        XZ     -16.1358     YZ       5.5289     ZZ    -166.5867

 Total job time:  88.70s(wall), 4226.17s(cpu)
        *  Thank you very much for using Q-Chem.  Have a nice day.  *
