 Q-Chem 5.0, Q-Chem, Inc., Pleasanton, CA (2017)
 Q-Chem 5.0.1 for Intel X86 EM64T Linux

User input:
--------------------------------------------------------------
$molecule
0  1
O -3.94934 -3.66094 2.70899
C -3.26408 -4.56952 2.26188
C -3.36658 -6.02376 2.66595
C -4.7226 -6.50977 3.20342
C -5.87408 -5.53327 3.11051
O -6.39056 -5.30522 4.35415
C -7.53652 -4.44742 4.33938
C -8.59761 -4.97121 5.30159
O -9.19642 -6.16282 4.76832
C -8.89028 -7.31154 5.42091
C -9.58196 -8.52122 4.83875
C -9.26339 -9.84936 5.54078
C -8.609 -9.73637 6.90302
O -8.92782 -10.37201 7.89744
O -2.19826 -4.24423 1.48259
O -7.28438 -9.40566 6.83556
O -8.17184 -7.28161 6.40302
C -6.37866 -9.39858 7.8823
C -11.11602 -8.48002 4.96085
C -11.73441 -9.3647 3.88101
C -11.34946 -10.73922 4.38916
C -10.70625 -10.36651 5.73144
O -11.39447 -9.20613 6.13189
H -9.29061 -8.5589 3.76423
H -8.64178 -10.53439 4.92246
H -11.53912 -7.4532 4.90886
H -12.83918 -9.25056 3.96491
H -11.42249 -9.14051 2.83824
H -12.28079 -11.32827 4.54299
H -10.64143 -11.30385 3.74454
H -10.76292 -11.23107 6.42854
O -6.26944 -5.03293 2.06222
C -1.89989 -2.96413 1.0646
C -3.25298 -6.95648 1.43124
C -2.80769 -8.35255 1.86826
C -4.07025 -8.85559 2.53336
C -5.01277 -7.68121 2.25474
O -4.57795 -7.17929 1.0172
H -2.50418 -6.23828 3.33581
H -4.62746 -6.8541 4.25922
H -1.71774 -2.30676 1.94148
H -2.56046 -6.57986 0.64755
H -2.63683 -8.94859 0.94298
H -1.89199 -8.38349 2.49697
H -4.41508 -9.76534 1.99321
H -3.98283 -9.06984 3.62062
H -6.07408 -8.01284 2.30477
H -2.73558 -2.55672 0.45623
H -0.98307 -2.98971 0.44069
H -5.94684 -8.38124 7.97988
H -5.55962 -10.11293 7.65977
H -6.84108 -9.67378 8.85389
H -8.14905 -5.04843 6.31626
H -9.40384 -4.21254 5.39281
H -8.01427 -4.28429 3.34705
H -7.21243 -3.45622 4.72363
$end

$opt
CONSTRAINT
tors           1           2           3           4     +26.056
tors           3           4           5           6    -122.117
tors           4           5           6           7    -176.638
tors           5           6           7           8    +138.325
tors           6           7           8           9     -71.708
tors           7           8           9          10    +110.044
tors           8           9          10          11    +178.277
tors           9          10          11          12    +179.792
tors          11          12          13          14    +134.577
ENDCONSTRAINT
$end

$rem
JOBTYPE                   OPT
METHOD                    B3LYP
DFT_D                     d3_op
BASIS                     STO-3G
GEOM_OPT_MAX_CYCLES       100
GEOM_OPT_TOL_GRADIENT     300
GEOM_OPT_TOL_DISPLACEMENT 1200
GEOM_OPT_TOL_ENERGY       100
SYMMETRY                  False
THRESH                    12
SCF_CONVERGENCE           8
MAX_SUB_FILE_NUM          128
MEM_STATIC                400
MEM_TOTAL                 4000
$end
--------------------------------------------------------------

   15   -1510.1382746082      6.43E-09 Convergence criterion met
 Total energy in the final basis set = -1510.13827461
   14   -1510.2092864244      7.75E-09 Convergence criterion met
 Total energy in the final basis set = -1510.20928642
   14   -1510.2457370573      7.73E-09 Convergence criterion met
 Total energy in the final basis set = -1510.24573706
   14   -1510.2642792619      1.93E-09 Convergence criterion met
 Total energy in the final basis set = -1510.26427926
   13   -1510.2724392997      5.98E-09 Convergence criterion met
 Total energy in the final basis set = -1510.27243930
   13   -1510.2762253593      3.22E-09 Convergence criterion met
 Total energy in the final basis set = -1510.27622536
   13   -1510.2783704578      2.16E-09 Convergence criterion met
 Total energy in the final basis set = -1510.27837046
   13   -1510.2797528366      2.85E-09 Convergence criterion met
   12   -1510.2850432274      5.39E-09 Convergence criterion met
 Total energy in the final basis set = -1510.28504323
   10   -1510.2851092126      9.68E-09 Convergence criterion met
 Total energy in the final basis set = -1510.28510921
   11   -1510.2851804536      7.64E-09 Convergence criterion met
 Total energy in the final basis set = -1510.28518045
   10   -1510.2851987161      7.74E-09 Convergence criterion met
 Total energy in the final basis set = -1510.28519872
    9   -1510.2852053975      8.00E-09 Convergence criterion met
 Total energy in the final basis set = -1510.28520540
    9   -1510.2852067332      7.34E-09 Convergence criterion met
 Total energy in the final basis set = -1510.28520673

             Standard Nuclear Orientation (Angstroms)
    I     Atom           X                Y                Z
 ----------------------------------------------------------------
    1      O       4.3066747998    -1.4295337286    -1.0572805488
    2      C       4.6525341606    -0.2818583756    -0.6972356487
    3      C       3.7164473645     0.9685539360    -0.5558766447
    4      C       2.2088005512     0.5781763224    -0.2711302838
    5      C       1.9918397991    -0.9402139196     0.0599197944
    6      O       1.0634153804    -1.4651416437    -0.9000065438
    7      C       0.7486524716    -2.8819625227    -0.5976352640
    8      C      -0.7886848895    -3.0560366067    -0.8155702027
    9      O      -1.5015195064    -2.3601820811     0.2866895286
   10      C      -2.1633687924    -1.1981468880    -0.2116142696
   11      C      -2.9437430617    -0.5053367474     0.9578075757
   12      C      -3.6838883707     0.7883854932     0.4408014526
   13      C      -3.1179902942     1.3737288760    -0.9031244254
   14      O      -3.7808504333     1.7593051087    -1.8903929399
   15      O       5.9979211673     0.0927298671    -0.3975265297
   16      O      -1.7199871711     1.6666374878    -0.7039379377
   17      O      -2.1910399699    -0.8606422062    -1.4186678229
   18      C      -1.1416558453     2.2162859463    -1.9490563392
   19      C      -4.1962196695    -1.4230505991     1.2990209602
   20      C      -4.9972829426    -0.8055844687     2.5139757770
   21      C      -5.7874861922     0.3595617575     1.8082037006
   22      C      -5.1841408882     0.2817750853     0.3528560833
   23      O      -5.0695863462    -1.1795808138     0.1255642070
   24      H      -2.2810201803    -0.3252115757     1.8223992507
   25      H      -3.5958311647     1.5936047681     1.1936922062
   26      H      -3.9535091036    -2.4997478675     1.3902434365
   27      H      -5.6777122982    -1.5551481434     2.9481585161
   28      H      -4.3239260728    -0.4409510799     3.3064277806
   29      H      -6.8701449556     0.1561606755     1.7878527790
   30      H      -5.6178262590     1.3396525982     2.2816954388
   31      H      -5.7769962518     0.7579914366    -0.4523695220
   32      O       2.4154276767    -1.5771946834     1.0489307101
   33      C       6.8923580209    -1.0795168463    -0.5443833272
   34      C       4.0390714463     1.8969387592     0.6915501816
   35      C       3.3808019574     3.3072419969     0.4253202652
   36      C       1.8570395324     2.9703715371     0.6316567561
   37      C       1.9304335625     1.4441529395     1.0326129149
   38      O       3.2059360844     1.3325257699     1.7775862131
   39      H       3.7945484564     1.5454256047    -1.4966154514
   40      H       1.5449358779     0.8505958096    -1.1094027275
   41      H       6.8891076898    -1.4671014899    -1.5837856933
   42      H       5.1075010713     1.9097902916     0.9806173682
   43      H       3.7349060076     4.0419161963     1.1661794169
   44      H       3.6024836155     3.6883856599    -0.5842705069
   45      H       1.4166333718     3.5627504324     1.4490326132
   46      H       1.2586283478     3.1264795601    -0.2796082281
   47      H       1.0869843788     1.0783555813     1.6493289179
   48      H       6.5987043831    -1.9018017320     0.1394603271
   49      H       7.9061567803    -0.7236971194    -0.2842168495
   50      H      -0.4508472871     1.4728500733    -2.3959773982
   51      H      -0.5805016072     3.1383061603    -1.7018533920
   52      H      -1.9577211767     2.4447184600    -2.6643669791
   53      H      -1.0987898556    -2.6092640512    -1.7848373234
   54      H      -1.0682163020    -4.1295839973    -0.7753838612
   55      H       1.0493456124    -3.1127642012     0.4476233803
   56      H       1.3111091244    -3.5451883056    -1.2911840097
 ----------------------------------------------------------------

    9   -1510.2852068934      2.31E-09 Convergence criterion met
 Total energy in the final basis set = -1510.28520689
 Final energy is   -1510.28520689342
 **  OPTIMIZATION CONVERGED  **

                    Orbital Energies (a.u.)
 --------------------------------------------------------------

 Alpha MOs
 -- Occupied --
-18.940 -18.939 -18.924 -18.917 -18.887 -18.886 -18.884 -18.879
-18.865 -18.864 -10.105 -10.103 -10.093 -10.093 -10.071 -10.067
-10.066 -10.061 -10.059 -10.058 -10.057 -10.050 -10.041 -10.039
-10.034 -10.034 -10.021 -10.020 -10.019 -10.019  -1.020  -1.016
 -1.002  -0.998  -0.970  -0.969  -0.943  -0.940  -0.927  -0.925
 -0.764  -0.762  -0.728  -0.722  -0.714  -0.705  -0.696  -0.664
 -0.653  -0.616  -0.597  -0.575  -0.545  -0.543  -0.537  -0.536
 -0.513  -0.509  -0.487  -0.474  -0.463  -0.456  -0.453  -0.450
 -0.433  -0.431  -0.420  -0.416  -0.413  -0.412  -0.404  -0.404
 -0.399  -0.378  -0.373  -0.365  -0.361  -0.356  -0.353  -0.351
 -0.341  -0.340  -0.336  -0.331  -0.329  -0.324  -0.320  -0.311
 -0.311  -0.305  -0.303  -0.301  -0.294  -0.282  -0.280  -0.274
 -0.271  -0.257  -0.252  -0.243  -0.240  -0.234  -0.233  -0.185
 -0.181  -0.166  -0.163  -0.159  -0.157  -0.148  -0.147  -0.144
 -0.142

          Ground-State Mulliken Net Atomic Charges

     Atom                 Charge (a.u.)
  ----------------------------------------
      1 O                    -0.211305
      2 C                     0.213269
      3 C                    -0.078933
      4 C                    -0.079399
      5 C                     0.214264
      6 O                    -0.175017
      7 C                    -0.053359
      8 C                    -0.053926
      9 O                    -0.172078
     10 C                     0.220368
     11 C                    -0.075990
     12 C                    -0.080236
     13 C                     0.219361
     14 O                    -0.219224
     15 O                    -0.168871
     16 O                    -0.180414
     17 O                    -0.205577
     18 C                    -0.135908
     19 C                     0.024120
     20 C                    -0.144799
     21 C                    -0.142342
     22 C                     0.023406
     23 O                    -0.191551
     24 H                     0.088327
     25 H                     0.083437
     26 H                     0.085595
     27 H                     0.078487
     28 H                     0.074002
     29 H                     0.078265
     30 H                     0.073280
     31 H                     0.091742
     32 O                    -0.216321
     33 C                    -0.127668
     34 C                     0.024086
     35 C                    -0.143484
     36 C                    -0.144039
     37 C                     0.027156
     38 O                    -0.187404
     39 H                     0.084691
     40 H                     0.086681
     41 H                     0.089239
     42 H                     0.090697
     43 H                     0.077742
     44 H                     0.072531
     45 H                     0.077916
     46 H                     0.073598
     47 H                     0.083978
     48 H                     0.093348
     49 H                     0.091551
     50 H                     0.083006
     51 H                     0.077491
     52 H                     0.102266
     53 H                     0.106924
     54 H                     0.087832
     55 H                     0.102856
     56 H                     0.086334
  ----------------------------------------
  Sum of atomic charges =    -0.000000

                    Cartesian Multipole Moments
 -----------------------------------------------------------------
    Charge (ESU x 10^10)
                -0.0000
    Dipole Moment (Debye)
         X       1.4247      Y       0.8863      Z       0.5909
       Tot       1.7789
    Quadrupole Moments (Debye-Ang)
        XX    -154.2296     XY       2.1637     YY    -151.3211
        XZ     -18.8259     YZ       1.4671     ZZ    -163.5348

 Total job time:  59.30s(wall), 2822.89s(cpu)
        *  Thank you very much for using Q-Chem.  Have a nice day.  *
