 Q-Chem 5.0, Q-Chem, Inc., Pleasanton, CA (2017)
 Q-Chem 5.0.1 for Intel X86 EM64T Linux

User input:
--------------------------------------------------------------
$molecule
0  1
O -3.94934 -3.66094 2.70899
C -3.26408 -4.56952 2.26188
C -3.36658 -6.02376 2.66595
C -4.7769 -6.59186 2.89421
C -5.93469 -5.69283 2.52087
O -6.60224 -5.30409 3.64722
C -7.88243 -4.72574 3.37173
C -8.86992 -5.08379 4.47752
O -9.33655 -6.43047 4.29977
C -9.32662 -7.20293 5.41438
C -10.24684 -8.39595 5.31165
C -10.22108 -9.33953 6.52295
C -9.57606 -8.78642 7.77783
O -10.16088 -8.52431 8.81891
O -2.43451 -4.28193 1.22285
O -8.21551 -8.85342 7.81446
O -8.60712 -6.91892 6.35802
C -7.44574 -8.51165 8.90737
C -11.73908 -8.02637 5.24678
C -12.51174 -9.15422 4.56673
C -12.4328 -10.23027 5.63058
C -11.74476 -9.45116 6.75925
O -12.18158 -8.12568 6.57684
H -9.95187 -8.93672 4.38353
H -9.76332 -10.33144 6.31299
H -11.93497 -7.05858 4.73565
H -13.56914 -8.81502 4.48087
H -12.14132 -9.45282 3.56246
H -13.46953 -10.51423 5.91793
H -11.85181 -11.13543 5.35004
H -11.98817 -9.91382 7.74117
O -6.15106 -5.27102 1.39014
C -2.2605 -3.02332 0.68587
C -2.8481 -7.0212 1.60465
C -2.48854 -8.35459 2.26417
C -3.86659 -8.91649 2.54111
C -4.74329 -7.80828 1.95509
O -3.99566 -7.34285 0.85626
H -2.7608 -6.10529 3.59592
H -4.90587 -6.90484 3.95675
H -1.87052 -2.32807 1.45975
H -1.9723 -6.6537 1.02865
H -1.99521 -8.99708 1.50011
H -1.8253 -8.25935 3.15075
H -3.99652 -9.84343 1.93875
H -4.0897 -9.12799 3.6092
H -5.76021 -8.19849 1.72804
H -3.22424 -2.64041 0.28724
H -1.52784 -3.08067 -0.14502
H -6.37486 -8.65738 8.65759
H -7.70214 -9.15732 9.77428
H -7.60973 -7.44498 9.17144
H -8.4514 -4.8198 5.47397
H -9.75638 -4.43034 4.3282
H -8.32117 -4.99971 2.38354
H -7.74979 -3.62216 3.39885
$end

$opt
CONSTRAINT
tors           1           2           3           4     +39.683
tors           3           4           5           6    -111.909
tors           4           5           6           7    -165.851
tors           5           6           7           8    +145.585
tors           6           7           8           9     -78.107
tors           7           8           9          10    +132.952
tors           8           9          10          11    +159.644
tors           9          10          11          12    +177.212
tors          11          12          13          14    +112.378
ENDCONSTRAINT
$end

$rem
JOBTYPE                   OPT
METHOD                    B3LYP
DFT_D                     d3_op
BASIS                     STO-3G
GEOM_OPT_MAX_CYCLES       100
GEOM_OPT_TOL_GRADIENT     300
GEOM_OPT_TOL_DISPLACEMENT 1200
GEOM_OPT_TOL_ENERGY       100
SYMMETRY                  False
THRESH                    12
SCF_CONVERGENCE           8
MAX_SUB_FILE_NUM          128
MEM_STATIC                400
MEM_TOTAL                 4000
$end
--------------------------------------------------------------

   16   -1510.1460529480      2.21E-09 Convergence criterion met
 Total energy in the final basis set = -1510.14605295
   14   -1510.2157523808      6.73E-09 Convergence criterion met
 Total energy in the final basis set = -1510.21575238
   13   -1510.2523590472      9.01E-09 Convergence criterion met
 Total energy in the final basis set = -1510.25235905
   14   -1510.2681318097      5.11E-09 Convergence criterion met
 Total energy in the final basis set = -1510.26813181
   13   -1510.2746992603      7.97E-09 Convergence criterion met
 Total energy in the final basis set = -1510.27469926
   13   -1510.2777440867      3.10E-09 Convergence criterion met
 Total energy in the final basis set = -1510.27774409
   13   -1510.2793789746      2.77E-09 Convergence criterion met
 Total energy in the final basis set = -1510.27937897
   12   -1510.2799717124      7.89E-09 Convergence criterion met
   11   -1510.2811208346      9.39E-09 Convergence criterion met
 Total energy in the final basis set = -1510.28112083
   10   -1510.2811523048      7.03E-09 Convergence criterion met
 Total energy in the final basis set = -1510.28115230
   10   -1510.2811704370      7.57E-09 Convergence criterion met
 Total energy in the final basis set = -1510.28117044
   10   -1510.2811828436      8.73E-09 Convergence criterion met
 Total energy in the final basis set = -1510.28118284
    9   -1510.2811903018      7.75E-09 Convergence criterion met
 Total energy in the final basis set = -1510.28119030
    9   -1510.2811926313      4.76E-09 Convergence criterion met
 Total energy in the final basis set = -1510.28119263

             Standard Nuclear Orientation (Angstroms)
    I     Atom           X                Y                Z
 ----------------------------------------------------------------
    1      O      -4.3834831656    -1.3491641640     1.5241108497
    2      C      -4.9096951805    -0.3797608973     0.9324773689
    3      C      -4.1696872832     0.9236131669     0.4613799138
    4      C      -2.7301904870     0.6073038083    -0.1293823223
    5      C      -2.3837614809    -0.9231444386    -0.1700788204
    6      O      -1.3364035483    -1.1685267534     0.7786505218
    7      C      -0.7331970013    -2.5040368317     0.5546449306
    8      C       0.7870573212    -2.3959467268     0.8922028713
    9      O       1.4945217595    -1.7445788586    -0.2389789163
   10      C       2.3705589312    -0.7191756014     0.2396169946
   11      C       3.4465174977    -0.4281140716    -0.8591231446
   12      C       4.4286805040     0.7449514043    -0.4591516250
   13      C       4.0238242322     1.5168259683     0.8521588351
   14      O       4.6273710075     1.5262034666     1.9451736241
   15      O      -6.3041696431    -0.2854295680     0.6389664130
   16      O       2.8881683090     2.3393202924     0.5391935319
   17      O       2.3222112013    -0.2315510171     1.3921135534
   18      C       2.4169972296     3.0246295640     1.7622073219
   19      C       4.4605641654    -1.6515367030    -0.9279413238
   20      C       5.3818925711    -1.4800798980    -2.2007041467
   21      C       6.3708917487    -0.3556045974    -1.7149611834
   22      C       5.7911844949    -0.0465276091    -0.2803581842
   23      O       5.3680736779    -1.3808942033     0.2090748001
   24      H       2.9467522908    -0.2530822347    -1.8287060133
   25      H       4.4972398318     1.4823484939    -1.2791262118
   26      H       3.9786528896    -2.6430941598    -0.8228638593
   27      H       5.9116447732    -2.4204739971    -2.4213038172
   28      H       4.8037253513    -1.1836152239    -3.0905956690
   29      H       7.4034606819    -0.7323096542    -1.6406084547
   30      H       6.3623783830     0.5309448770    -2.3688346836
   31      H       6.4924115385     0.4204635988     0.4381053245
   32      O      -2.8204962553    -1.7796690070    -0.9693879277
   33      C      -7.0017457623    -1.5111072021     1.0932768391
   34      C      -4.8631896565     1.6258527896    -0.7790929290
   35      C      -4.2689282426     3.0813622510    -0.9280978553
   36      C      -2.8412539792     2.7678837033    -1.5121518420
   37      C      -2.8858707188     1.1914190279    -1.5991452463
   38      O      -4.2966769007     0.8982393872    -1.9385121940
   39      H      -4.1006116322     1.6063334771     1.3289251522
   40      H      -1.9389145052     1.1223677461     0.4426304243
   41      H      -6.9186827952    -1.6444282659     2.1913740849
   42      H      -5.9674246924     1.5535170248    -0.7753054959
   43      H      -4.8734355036     3.6729949968    -1.6338570994
   44      H      -4.2283012588     3.6146125003     0.0351364274
   45      H      -2.7093996991     3.2047069317    -2.5148027777
   46      H      -2.0264563268     3.1243517205    -0.8621225040
   47      H      -2.2070460798     0.7384176824    -2.3473291088
   48      H      -6.5967131253    -2.4158120267     0.5959168480
   49      H      -8.0632222910    -1.3773450519     0.8148604706
   50      H       1.5782449401     3.6732464216     1.4488144924
   51      H       3.2145362408     3.6445010637     2.2207215200
   52      H       2.0594516653     2.2941617741     2.5170344774
   53      H       0.9436203332    -1.7982880189     1.8164618876
   54      H       1.2138349551    -3.4137932514     1.0281859714
   55      H      -0.8959847699    -2.8294452002    -0.4955923128
   56      H      -1.2092267432    -3.2528189139     1.2266637383
 ----------------------------------------------------------------

    9   -1510.2811934700      2.26E-09 Convergence criterion met
 Total energy in the final basis set = -1510.28119347
 Final energy is   -1510.28119346999
 **  OPTIMIZATION CONVERGED  **

                    Orbital Energies (a.u.)
 --------------------------------------------------------------

 Alpha MOs
 -- Occupied --
-18.940 -18.936 -18.925 -18.918 -18.888 -18.887 -18.886 -18.877
-18.866 -18.861 -10.106 -10.102 -10.093 -10.090 -10.073 -10.069
-10.066 -10.062 -10.059 -10.057 -10.056 -10.054 -10.041 -10.038
-10.034 -10.032 -10.021 -10.020 -10.019 -10.019  -1.019  -1.015
 -1.003  -0.997  -0.970  -0.969  -0.944  -0.938  -0.928  -0.924
 -0.763  -0.761  -0.728  -0.722  -0.714  -0.705  -0.697  -0.663
 -0.654  -0.615  -0.597  -0.576  -0.545  -0.543  -0.537  -0.536
 -0.512  -0.512  -0.485  -0.476  -0.463  -0.455  -0.453  -0.450
 -0.431  -0.431  -0.419  -0.415  -0.413  -0.411  -0.403  -0.403
 -0.398  -0.377  -0.373  -0.368  -0.361  -0.354  -0.351  -0.350
 -0.342  -0.340  -0.338  -0.332  -0.329  -0.325  -0.322  -0.311
 -0.310  -0.304  -0.304  -0.301  -0.293  -0.280  -0.277  -0.275
 -0.270  -0.256  -0.253  -0.244  -0.244  -0.234  -0.233  -0.183
 -0.180  -0.168  -0.164  -0.162  -0.157  -0.146  -0.145  -0.142
 -0.141

          Ground-State Mulliken Net Atomic Charges

     Atom                 Charge (a.u.)
  ----------------------------------------
      1 O                    -0.212572
      2 C                     0.212808
      3 C                    -0.078088
      4 C                    -0.079948
      5 C                     0.212202
      6 O                    -0.173146
      7 C                    -0.049540
      8 C                    -0.052924
      9 O                    -0.175885
     10 C                     0.217759
     11 C                    -0.076852
     12 C                    -0.081570
     13 C                     0.216458
     14 O                    -0.215837
     15 O                    -0.167675
     16 O                    -0.177735
     17 O                    -0.204559
     18 C                    -0.128556
     19 C                     0.024796
     20 C                    -0.143899
     21 C                    -0.143635
     22 C                     0.024348
     23 O                    -0.190105
     24 H                     0.087490
     25 H                     0.083332
     26 H                     0.084100
     27 H                     0.078325
     28 H                     0.073825
     29 H                     0.078160
     30 H                     0.073313
     31 H                     0.090167
     32 O                    -0.216565
     33 C                    -0.127337
     34 C                     0.023059
     35 C                    -0.144173
     36 C                    -0.144059
     37 C                     0.025989
     38 O                    -0.187732
     39 H                     0.085090
     40 H                     0.086326
     41 H                     0.089172
     42 H                     0.092316
     43 H                     0.077847
     44 H                     0.072733
     45 H                     0.077704
     46 H                     0.073761
     47 H                     0.084181
     48 H                     0.093819
     49 H                     0.091675
     50 H                     0.084150
     51 H                     0.086769
     52 H                     0.092112
     53 H                     0.106840
     54 H                     0.085395
     55 H                     0.099055
     56 H                     0.087314
  ----------------------------------------
  Sum of atomic charges =    -0.000000

                    Cartesian Multipole Moments
 -----------------------------------------------------------------
    Charge (ESU x 10^10)
                -0.0000
    Dipole Moment (Debye)
         X      -0.9165      Y       1.1609      Z      -1.0656
       Tot       1.8229
    Quadrupole Moments (Debye-Ang)
        XX    -156.0392     XY      -3.8261     YY    -150.3958
        XZ     -21.5154     YZ      -1.3138     ZZ    -164.1882

 Total job time:  50.51s(wall), 2404.19s(cpu)
        *  Thank you very much for using Q-Chem.  Have a nice day.  *
