 Q-Chem 5.0, Q-Chem, Inc., Pleasanton, CA (2017)
 Q-Chem 5.0.1 for Intel X86 EM64T Linux

User input:
--------------------------------------------------------------
$molecule
0  1
O -4.3834831656 -1.349164164 1.5241108497
C -4.9096951805 -0.3797608973 0.9324773689
C -4.1696872832 0.9236131669 0.4613799138
C -2.730190487 0.6073038083 -0.1293823223
C -2.3837614809 -0.9231444386 -0.1700788204
O -1.3364035483 -1.1685267534 0.7786505218
C -0.7331970013 -2.5040368317 0.5546449306
C 0.7870573212 -2.3959467268 0.8922028713
O 1.4945217595 -1.7445788586 -0.2389789163
C 2.3705589312 -0.7191756014 0.2396169946
C 3.4465174977 -0.4281140716 -0.8591231446
C 4.428680504 0.7449514043 -0.459151625
C 4.0238242322 1.5168259683 0.8521588351
O 4.6273710075 1.5262034666 1.9451736241
O -6.3041696431 -0.285429568 0.638966413
O 2.888168309 2.3393202924 0.5391935319
O 2.3222112013 -0.2315510171 1.3921135534
C 2.4169972296 3.024629564 1.7622073219
C 4.4605641654 -1.651536703 -0.9279413238
C 5.3818925711 -1.480079898 -2.2007041467
C 6.3708917487 -0.3556045974 -1.7149611834
C 5.7911844949 -0.0465276091 -0.2803581842
O 5.3680736779 -1.3808942033 0.2090748001
H 2.9467522908 -0.2530822347 -1.8287060133
H 4.4972398318 1.4823484939 -1.2791262118
H 3.9786528896 -2.6430941598 -0.8228638593
H 5.9116447732 -2.4204739971 -2.4213038172
H 4.8037253513 -1.1836152239 -3.090595669
H 7.4034606819 -0.7323096542 -1.6406084547
H 6.362378383 0.530944877 -2.3688346836
H 6.4924115385 0.4204635988 0.4381053245
O -2.8204962553 -1.779669007 -0.9693879277
C -7.0017457623 -1.5111072021 1.0932768391
C -4.8631896565 1.6258527896 -0.779092929
C -4.2689282426 3.081362251 -0.9280978553
C -2.8412539792 2.7678837033 -1.512151842
C -2.8858707188 1.1914190279 -1.5991452463
O -4.2966769007 0.8982393872 -1.938512194
H -4.1006116322 1.6063334771 1.3289251522
H -1.9389145052 1.1223677461 0.4426304243
H -6.9186827952 -1.6444282659 2.1913740849
H -5.9674246924 1.5535170248 -0.7753054959
H -4.8734355036 3.6729949968 -1.6338570994
H -4.2283012588 3.6146125003 0.0351364274
H -2.7093996991 3.2047069317 -2.5148027777
H -2.0264563268 3.1243517205 -0.862122504
H -2.2070460798 0.7384176824 -2.3473291088
H -6.5967131253 -2.4158120267 0.595916848
H -8.063222291 -1.3773450519 0.8148604706
H 1.5782449401 3.6732464216 1.4488144924
H 3.2145362408 3.6445010637 2.22072152
H 2.0594516653 2.2941617741 2.5170344774
H 0.9436203332 -1.7982880189 1.8164618876
H 1.2138349551 -3.4137932514 1.0281859714
H -0.8959847699 -2.8294452002 -0.4955923128
H -1.2092267432 -3.2528189139 1.2266637383
$end

$rem
JOBTYPE                   OPT
METHOD                    B3LYP
DFT_D                     d3_op
BASIS                     STO-3G
GEOM_OPT_MAX_CYCLES       100
GEOM_OPT_TOL_GRADIENT     300
GEOM_OPT_TOL_DISPLACEMENT 1200
GEOM_OPT_TOL_ENERGY       100
SYMMETRY                  False
THRESH                    12
SCF_CONVERGENCE           8
MAX_SUB_FILE_NUM          128
MEM_STATIC                400
MEM_TOTAL                 4000
$end
--------------------------------------------------------------

   16   -1510.2811607324      6.14E-09 Convergence criterion met
 Total energy in the final basis set = -1510.28116073
   14   -1510.2840031041      1.44E-09 Convergence criterion met
 Total energy in the final basis set = -1510.28400310
   14   -1510.2856784059      1.66E-09 Convergence criterion met
 Total energy in the final basis set = -1510.28567841
   14   -1510.2867244229      3.65E-09 Convergence criterion met
 Total energy in the final basis set = -1510.28672442
   14   -1510.2882062407      2.91E-09 Convergence criterion met
 Total energy in the final basis set = -1510.28820624
   15   -1510.2801420956      6.20E-09 Convergence criterion met
 Total energy in the final basis set = -1510.28014210
   14   -1510.2892820353      1.77E-09 Convergence criterion met
 Total energy in the final basis set = -1510.28928204
   13   -1510.2913867500      6.97E-09 Convergence criterion met
   13   -1510.3025634869      2.67E-09 Convergence criterion met
 Total energy in the final basis set = -1510.30256349
   12   -1510.3027400211      7.56E-09 Convergence criterion met
 Total energy in the final basis set = -1510.30274002
   12   -1510.3027820105      2.48E-09 Convergence criterion met
 Total energy in the final basis set = -1510.30278201
   11   -1510.3027918309      7.35E-09 Convergence criterion met
 Total energy in the final basis set = -1510.30279183
   11   -1510.3027905051      5.21E-09 Convergence criterion met
 Total energy in the final basis set = -1510.30279051
   11   -1510.3027996767      3.60E-09 Convergence criterion met
 Total energy in the final basis set = -1510.30279968

             Standard Nuclear Orientation (Angstroms)
    I     Atom           X                Y                Z
 ----------------------------------------------------------------
    1      O       3.6006406654    -1.5785325589     0.0449078070
    2      C       3.7493088488    -0.3846009865    -0.3011090068
    3      C       2.7289346476     0.7841489767    -0.1046921601
    4      C       1.2982791245     0.2672774778     0.3176469144
    5      C       1.1197407456    -1.2876746594     0.2584921569
    6      O       1.1194009280    -1.6661120041    -1.1363772586
    7      C       0.7488875367    -3.0878291079    -1.2885096422
    8      C      -0.7825622723    -3.1891220645    -1.6434956454
    9      O      -1.5704730916    -2.5886203074    -0.5398583623
   10      C      -1.7708815979    -1.1934643538    -0.7627972537
   11      C      -2.3415955993    -0.5631651032     0.5491274768
   12      C      -2.6111159358     0.9880758782     0.4061852440
   13      C      -2.2004098138     1.5999398052    -0.9837513451
   14      O      -2.9514168271     1.9396226338    -1.9195498806
   15      O       4.9291292542     0.1282347590    -0.9234669996
   16      O      -0.7857645611     1.9086217205    -0.9438480305
   17      O      -1.5428744865    -0.5949385583    -1.8401317264
   18      C      -0.3451586672     2.4431817003    -2.2507981791
   19      C      -3.8054967027    -1.0973132769     0.8626523393
   20      C      -4.1835704355    -0.6786916679     2.3371868768
   21      C      -4.4833036947     0.8553000959     2.1524180159
   22      C      -4.1846444875     1.0388274385     0.6134327839
   23      O      -4.6574016143    -0.2324613227     0.0161285491
   24      H      -1.6401809717    -0.7907328561     1.3723986294
   25      H      -2.0769073699     1.5457698935     1.1955644220
   26      H      -3.9582730037    -2.1661513237     0.6167527881
   27      H      -5.0758463606    -1.2283982558     2.6761417188
   28      H      -3.3603232269    -0.8711334913     3.0435327846
   29      H      -5.5375059152     1.0894453121     2.3699642802
   30      H      -3.8416902860     1.4941458195     2.7801526512
   31      H      -4.6787449088     1.9002773137     0.1237074251
   32      O       0.8691704581    -2.0685349313     1.2007875511
   33      C       5.9268872108    -0.9551479666    -1.0860559343
   34      C       3.1235826113     1.6398386644     1.1780997149
   35      C       2.2366897290     2.9478024529     1.2017342190
   36      C       0.8485496936     2.3715685060     1.6670624608
   37      C       1.1928697517     0.8350048849     1.7929667650
   38      O       2.5886952726     0.8273245493     2.2918322921
   39      H       2.7073693479     1.4039183168    -1.0184759078
   40      H       0.5048807769     0.7300086847    -0.3130531755
   41      H       5.5331423103    -1.7796424938    -1.7148595547
   42      H       4.2122249278     1.8047128780     1.2983136395
   43      H       2.6411526556     3.6739043215     1.9248900092
   44      H       2.1843050230     3.4268402296     0.2109089671
   45      H       0.5383353678     2.7896910392     2.6375711977
   46      H       0.0579042855     2.5407434145     0.9159976983
   47      H       0.5409091082     0.2423083426     2.4637676418
   48      H       6.2352267422    -1.3758287189    -0.1071327931
   49      H       6.8000028264    -0.4940446153    -1.5832228539
   50      H       0.7115592028     2.7405638923    -2.1209325212
   51      H      -0.9495483468     3.3217502338    -2.5534627849
   52      H      -0.4202671054     1.6676836863    -3.0403264048
   53      H      -0.9925804229    -2.6566457536    -2.5954080203
   54      H      -1.0931798113    -4.2507958632    -1.7201302626
   55      H       0.9479293753    -3.6323490880    -0.3406195327
   56      H       1.3564515487    -3.5123003110    -2.1139314725
 ----------------------------------------------------------------

    9   -1510.3028000118      6.44E-09 Convergence criterion met
 Total energy in the final basis set = -1510.30280001
 Final energy is   -1510.30280001182
 **  OPTIMIZATION CONVERGED  **

                    Orbital Energies (a.u.)
 --------------------------------------------------------------

 Alpha MOs
 -- Occupied --
-18.943 -18.938 -18.937 -18.917 -18.889 -18.889 -18.880 -18.879
-18.875 -18.862 -10.109 -10.102 -10.100 -10.089 -10.074 -10.066
-10.066 -10.065 -10.062 -10.060 -10.056 -10.049 -10.042 -10.038
-10.034 -10.021 -10.020 -10.015 -10.015 -10.008  -1.024  -1.014
 -1.009  -0.996  -0.972  -0.964  -0.947  -0.938  -0.937  -0.926
 -0.766  -0.757  -0.727  -0.719  -0.713  -0.703  -0.694  -0.663
 -0.663  -0.617  -0.597  -0.576  -0.548  -0.541  -0.538  -0.531
 -0.514  -0.506  -0.489  -0.472  -0.469  -0.459  -0.452  -0.446
 -0.433  -0.427  -0.425  -0.417  -0.414  -0.413  -0.410  -0.402
 -0.398  -0.379  -0.374  -0.368  -0.359  -0.358  -0.352  -0.350
 -0.343  -0.340  -0.337  -0.334  -0.328  -0.327  -0.319  -0.315
 -0.309  -0.306  -0.302  -0.299  -0.295  -0.285  -0.280  -0.274
 -0.269  -0.255  -0.253  -0.249  -0.237  -0.236  -0.226  -0.194
 -0.180  -0.179  -0.165  -0.157  -0.154  -0.152  -0.146  -0.144
 -0.138

          Ground-State Mulliken Net Atomic Charges

     Atom                 Charge (a.u.)
  ----------------------------------------
      1 O                    -0.207821
      2 C                     0.214449
      3 C                    -0.077809
      4 C                    -0.098299
      5 C                     0.211677
      6 O                    -0.181250
      7 C                    -0.053456
      8 C                    -0.051850
      9 O                    -0.169141
     10 C                     0.215340
     11 C                    -0.079580
     12 C                    -0.083078
     13 C                     0.221246
     14 O                    -0.208449
     15 O                    -0.169742
     16 O                    -0.177116
     17 O                    -0.206239
     18 C                    -0.127393
     19 C                     0.025676
     20 C                    -0.143782
     21 C                    -0.143887
     22 C                     0.025299
     23 O                    -0.188712
     24 H                     0.092492
     25 H                     0.084860
     26 H                     0.088111
     27 H                     0.079027
     28 H                     0.075995
     29 H                     0.078724
     30 H                     0.073608
     31 H                     0.088719
     32 O                    -0.218864
     33 C                    -0.128278
     34 C                     0.025017
     35 C                    -0.143440
     36 C                    -0.151467
     37 C                     0.022309
     38 O                    -0.192085
     39 H                     0.083403
     40 H                     0.107838
     41 H                     0.089838
     42 H                     0.081842
     43 H                     0.075807
     44 H                     0.070518
     45 H                     0.071031
     46 H                     0.083886
     47 H                     0.081326
     48 H                     0.090598
     49 H                     0.090936
     50 H                     0.086139
     51 H                     0.091603
     52 H                     0.096856
     53 H                     0.098290
     54 H                     0.090657
     55 H                     0.102006
     56 H                     0.086613
  ----------------------------------------
  Sum of atomic charges =     0.000000

                    Cartesian Multipole Moments
 -----------------------------------------------------------------
    Charge (ESU x 10^10)
                -0.0000
    Dipole Moment (Debye)
         X       1.2199      Y       0.7135      Z      -0.5207
       Tot       1.5061
    Quadrupole Moments (Debye-Ang)
        XX    -158.0379     XY       2.3476     YY    -151.5616
        XZ     -16.4369     YZ       7.9839     ZZ    -162.3484

 Total job time:  92.75s(wall), 4417.52s(cpu)
        *  Thank you very much for using Q-Chem.  Have a nice day.  *
