 Q-Chem 5.0, Q-Chem, Inc., Pleasanton, CA (2017)
 Q-Chem 5.0.1 for Intel X86 EM64T Linux

User input:
--------------------------------------------------------------
$molecule
0  1
O 4.452391636 -1.62865268 -0.9525408382
C 4.7287240805 -0.5422540383 -0.3973348768
C 3.8947801966 0.7859592121 -0.4830753691
C 2.326546232 0.5429554547 -0.4810715517
C 1.9562156374 -0.910787102 -0.0298623247
O 0.9993526215 -1.4670341475 -0.9456937875
C 0.5933147516 -2.8102454876 -0.4669565022
C -0.8858354114 -3.1236078861 -0.8786154608
O -1.8613033191 -2.5324754443 0.0681867357
C -2.2092572445 -1.196778272 -0.3012032104
C -3.2697185422 -0.6872825063 0.7311761002
C -3.6575162235 0.8346504923 0.5418393265
C -2.961001737 1.5363098743 -0.6797302885
O -3.5048702025 1.8514529939 -1.7609265657
O 5.9099790996 -0.3207915066 0.3765502457
O -1.6325130743 1.9314133058 -0.2981066354
O -1.7828176154 -0.6010229446 -1.3151072633
C -0.9632756527 2.5659724256 -1.4556564049
C -4.6826431267 -1.3903952409 0.5117126435
C -5.5553260188 -1.1585924359 1.8068789385
C -5.9311875639 0.3617363182 1.6495105243
C -5.2179106681 0.7136335677 0.2852080546
O -5.3342527839 -0.5360739986 -0.5039710656
H -2.8874147347 -0.8884599238 1.747998382
H -3.4265769925 1.412736789 1.4545585817
H -4.6189522192 -2.4398439997 0.1637977016
H -6.4506991959 -1.799952316 1.7822615929
H -4.9949327549 -1.3687006017 2.7319066136
H -7.0203586466 0.5018968723 1.563347007
H -5.5599245576 0.979838922 2.4824979558
H -5.6484524068 1.5630283256 -0.2793592804
O 2.3462551709 -1.4904999671 1.0077600893
C 6.7070976565 -1.5676294988 0.4441234597
C 4.0600699149 1.7586390342 0.7649340278
C 3.6714804734 3.2107076779 0.2939217575
C 2.11775366 3.0503385056 0.1125809095
C 1.8863794331 1.5763022482 0.6414993622
O 2.9412714881 1.3915494262 1.6646791013
H 4.1987512297 1.299741214 -1.4144283887
H 1.864418538 0.7491718641 -1.461939028
H 7.0505036624 -1.887208659 -0.5612319285
H 5.0307557119 1.6608198447 1.2871378773
H 3.9118193476 3.944724264 1.0795973356
H 4.183918164 3.5047883447 -0.6356393503
H 1.5556655371 3.7731259858 0.7244906606
H 1.8091028055 3.1619416833 -0.9377035628
H 0.8819056551 1.3854168106 1.0676613153
H 6.1258009055 -2.3960109182 0.8977268544
H 7.5824198138 -1.3363303455 1.0784164963
H -0.5211093348 3.5245376404 -1.1253002497
H -1.7109695389 2.7383948667 -2.2562700233
H -0.165001325 1.8958735551 -1.8309497448
H -1.0724895425 -2.758534443 -1.9115980218
H -1.0477826239 -4.2196676545 -0.8315564228
H 0.719994824 -2.8665771983 0.6360664864
H 1.2588491927 -3.5757868024 -0.9250213809
$end

$rem
JOBTYPE                   OPT
METHOD                    B3LYP
DFT_D                     d3_op
BASIS                     STO-3G
GEOM_OPT_MAX_CYCLES       100
GEOM_OPT_TOL_GRADIENT     300
GEOM_OPT_TOL_DISPLACEMENT 1200
GEOM_OPT_TOL_ENERGY       100
SYMMETRY                  False
THRESH                    12
SCF_CONVERGENCE           8
MAX_SUB_FILE_NUM          128
MEM_STATIC                400
MEM_TOTAL                 4000
$end
--------------------------------------------------------------

   16   -1510.2850601824      5.54E-09 Convergence criterion met
 Total energy in the final basis set = -1510.28506018
   14   -1510.2840930464      4.63E-09 Convergence criterion met
 Total energy in the final basis set = -1510.28409305
   14   -1510.2866655112      2.66E-09 Convergence criterion met
 Total energy in the final basis set = -1510.28666551
   14   -1510.2225197567      6.44E-09 Convergence criterion met
 Total energy in the final basis set = -1510.22251976
   14   -1510.2876102323      6.17E-09 Convergence criterion met
 Total energy in the final basis set = -1510.28761023
   13   -1510.2887877590      5.19E-09 Convergence criterion met
 Total energy in the final basis set = -1510.28878776
   14   -1510.2906237773      2.71E-09 Convergence criterion met
 Total energy in the final basis set = -1510.29062378
   14   -1510.2924847442      2.20E-09 Convergence criterion met
   10   -1510.2975720417      9.70E-09 Convergence criterion met
 Total energy in the final basis set = -1510.29757204
    9   -1510.2975730457      5.07E-09 Convergence criterion met
 Total energy in the final basis set = -1510.29757305
    9   -1510.2975736263      5.82E-09 Convergence criterion met
 Total energy in the final basis set = -1510.29757363
    9   -1510.2975742737      9.48E-09 Convergence criterion met
 Total energy in the final basis set = -1510.29757427
    9   -1510.2975760577      7.78E-09 Convergence criterion met
 Total energy in the final basis set = -1510.29757606
    9   -1510.2975771940      6.75E-09 Convergence criterion met
 Total energy in the final basis set = -1510.29757719

             Standard Nuclear Orientation (Angstroms)
    I     Atom           X                Y                Z
 ----------------------------------------------------------------
    1      O       3.2741157894    -1.9384071385     0.4080767044
    2      C       3.8641175818    -0.8452912638     0.5665498020
    3      C       3.4758693410     0.5357834582    -0.0577388822
    4      C       2.0660842529     0.5203526568    -0.7792898219
    5      C       1.2677467514    -0.8132560699    -0.5512551567
    6      O       1.3758634647    -1.6040337135    -1.7474126873
    7      C       0.7177997151    -2.9197586507    -1.5765861259
    8      C      -0.8235187719    -2.8936129747    -1.9109041083
    9      O      -1.6202281139    -2.4720933986    -0.7344247387
   10      C      -1.8757546538    -1.0679736578    -0.7772820066
   11      C      -2.4987489077    -0.6296281175     0.5870005629
   12      C      -2.9545933056     0.8855249333     0.5923201676
   13      C      -2.7455323411     1.6243495951    -0.7779118399
   14      O      -3.5875248001     1.7922307477    -1.6853205556
   15      O       5.0412635306    -0.6831775036     1.3591633725
   16      O      -1.4470578882     2.2586276449    -0.7610820628
   17      O      -1.6316791958    -0.3320991764    -1.7616432428
   18      C      -1.1877576035     2.9179957893    -2.0601392612
   19      C      -3.8713605171    -1.3662706085     0.8980504200
   20      C      -4.2026832812    -1.1620488969     2.4283033617
   21      C      -4.6532746339     0.3457298424     2.4418288905
   22      C      -4.4995713887     0.7252733237     0.9163111346
   23      O      -4.8717506772    -0.5217066196     0.2071767428
   24      H      -1.7411183298    -0.8311228401     1.3667883878
   25      H      -2.4187860497     1.4519805385     1.3743557342
   26      H      -3.9172698541    -2.4112516936     0.5344950131
   27      H      -5.0207920426    -1.8318375081     2.7378070392
   28      H      -3.3270841729    -1.3518892418     3.0692451410
   29      H      -5.7022442228     0.4514568765     2.7611912727
   30      H      -4.0207622139     0.9727114223     3.0904561333
   31      H      -5.1279623894     1.5666895904     0.5660928042
   32      O       0.5651527227    -1.1164282163     0.4367268308
   33      C       5.4288288736    -1.9810563253     1.9607062797
   34      C       3.2502031574     1.6742626656     1.0318214594
   35      C       3.3634978887     3.0655654306     0.2980868206
   36      C       2.0183011035     3.0772586302    -0.5166387292
   37      C       1.3452679613     1.7269439890    -0.0440898612
   38      O       1.8098404963     1.5735424385     1.3557718639
   39      H       4.2789829341     0.8246272558    -0.7608379235
   40      H       2.1683366392     0.6818198903    -1.8665337411
   41      H       5.6536367328    -2.7394382482     1.1831942949
   42      H       3.8715000219     1.5599630375     1.9413906067
   43      H       3.3986248537     3.8844870338     1.0344480992
   44      H       4.2561247127     3.1293271129    -0.3444689305
   45      H       1.3855976889     3.9362570503    -0.2429256689
   46      H       2.1827471945     3.0965285834    -1.6058595935
   47      H       0.2315612647     1.7263014014    -0.1176494240
   48      H       4.6304213376    -2.3784005550     2.6201590354
   49      H       6.3377291758    -1.7808688948     2.5573276837
   50      H      -0.8208983442     3.9439559341    -1.8659938974
   51      H      -2.1283319910     2.9429183854    -2.6460974878
   52      H      -0.4158759078     2.3493678273    -2.6159966604
   53      H      -1.0128848523    -2.2083363071    -2.7650985695
   54      H      -1.1601518348    -3.9195391387    -2.1651190102
   55      H       0.8608929644    -3.2988746015    -0.5419804727
   56      H       1.2240657890    -3.5993739732    -2.2926317378
 ----------------------------------------------------------------

    9   -1510.2975779815      3.72E-09 Convergence criterion met
 Total energy in the final basis set = -1510.29757798
 Final energy is   -1510.29757798155
 **  OPTIMIZATION CONVERGED  **

                    Orbital Energies (a.u.)
 --------------------------------------------------------------

 Alpha MOs
 -- Occupied --
-18.942 -18.934 -18.924 -18.920 -18.883 -18.882 -18.879 -18.878
-18.865 -18.859 -10.105 -10.103 -10.093 -10.091 -10.069 -10.069
-10.066 -10.055 -10.055 -10.054 -10.050 -10.038 -10.036 -10.032
-10.030 -10.028 -10.016 -10.014 -10.014 -10.011  -1.019  -1.016
 -1.000  -0.996  -0.965  -0.961  -0.942  -0.939  -0.926  -0.925
 -0.758  -0.758  -0.722  -0.717  -0.710  -0.700  -0.691  -0.664
 -0.653  -0.615  -0.593  -0.574  -0.542  -0.539  -0.533  -0.529
 -0.508  -0.506  -0.480  -0.473  -0.455  -0.452  -0.448  -0.446
 -0.429  -0.426  -0.426  -0.415  -0.413  -0.406  -0.404  -0.400
 -0.392  -0.377  -0.374  -0.363  -0.358  -0.351  -0.350  -0.345
 -0.344  -0.334  -0.329  -0.326  -0.325  -0.320  -0.319  -0.310
 -0.309  -0.300  -0.300  -0.296  -0.294  -0.276  -0.275  -0.271
 -0.270  -0.257  -0.249  -0.241  -0.237  -0.229  -0.224  -0.187
 -0.182  -0.166  -0.159  -0.158  -0.155  -0.147  -0.141  -0.140
 -0.136

          Ground-State Mulliken Net Atomic Charges

     Atom                 Charge (a.u.)
  ----------------------------------------
      1 O                    -0.210148
      2 C                     0.213322
      3 C                    -0.079314
      4 C                    -0.081592
      5 C                     0.217934
      6 O                    -0.175151
      7 C                    -0.050820
      8 C                    -0.054127
      9 O                    -0.169166
     10 C                     0.221795
     11 C                    -0.078790
     12 C                    -0.081576
     13 C                     0.221287
     14 O                    -0.214664
     15 O                    -0.168789
     16 O                    -0.176150
     17 O                    -0.213991
     18 C                    -0.134319
     19 C                     0.024694
     20 C                    -0.143399
     21 C                    -0.144200
     22 C                     0.025594
     23 O                    -0.189269
     24 H                     0.102002
     25 H                     0.087683
     26 H                     0.087131
     27 H                     0.077133
     28 H                     0.075745
     29 H                     0.077180
     30 H                     0.074082
     31 H                     0.086293
     32 O                    -0.224172
     33 C                    -0.128033
     34 C                     0.024718
     35 C                    -0.143606
     36 C                    -0.145680
     37 C                     0.009851
     38 O                    -0.191802
     39 H                     0.085134
     40 H                     0.083344
     41 H                     0.089740
     42 H                     0.084936
     43 H                     0.076112
     44 H                     0.071254
     45 H                     0.074847
     46 H                     0.069429
     47 H                     0.108300
     48 H                     0.091907
     49 H                     0.091910
     50 H                     0.082107
     51 H                     0.103299
     52 H                     0.084448
     53 H                     0.100427
     54 H                     0.088187
     55 H                     0.099807
     56 H                     0.087126
  ----------------------------------------
  Sum of atomic charges =     0.000000

                    Cartesian Multipole Moments
 -----------------------------------------------------------------
    Charge (ESU x 10^10)
                 0.0000
    Dipole Moment (Debye)
         X       3.1328      Y      -0.4078      Z       0.6266
       Tot       3.2208
    Quadrupole Moments (Debye-Ang)
        XX    -156.8144     XY      -0.4823     YY    -149.1109
        XZ      -7.6664     YZ       0.1257     ZZ    -157.0142

 Total job time:  128.83s(wall), 6136.90s(cpu)
        *  Thank you very much for using Q-Chem.  Have a nice day.  *
