 Q-Chem 5.0, Q-Chem, Inc., Pleasanton, CA (2017)
 Q-Chem 5.0.1 for Intel X86 EM64T Linux

User input:
--------------------------------------------------------------
$molecule
0  1
O -3.94934 -3.66094 2.70899
C -3.26408 -4.56952 2.26188
C -3.36658 -6.02376 2.66595
C -4.77383 -6.57968 2.93882
C -5.93494 -5.66934 2.60535
O -6.8192 -5.64499 3.64598
C -7.98676 -4.86242 3.37463
C -9.18804 -5.43474 4.11996
O -9.75637 -6.52083 3.37144
C -9.22529 -7.74308 3.62279
C -9.89172 -8.8471 2.83687
C -9.24053 -10.2301 2.98359
C -8.2715 -10.38504 4.13844
O -8.49101 -11.00368 5.16978
O -2.17837 -4.22292 1.5175
O -7.02538 -9.84763 4.01696
O -8.33908 -7.86647 4.45118
C -6.11991 -9.87378 5.06671
C -11.33803 -9.13735 3.26727
C -12.09254 -9.78487 2.10828
C -11.431 -11.14772 2.06791
C -10.51628 -11.04669 3.29542
O -11.21929 -10.20246 4.17619
H -9.86502 -8.52435 1.771
H -8.73358 -10.59813 2.06464
H -11.8804 -8.23787 3.63187
H -13.14861 -9.91119 2.43871
H -12.0736 -9.22051 1.15115
H -12.21543 -11.92151 2.22278
H -10.85229 -11.36919 1.14511
H -10.28244 -12.0645 3.67888
O -6.09489 -5.12278 1.51859
C -1.87716 -2.93569 1.12325
C -2.97441 -6.90577 1.44166
C -2.51946 -8.28278 1.90172
C -3.84403 -8.88514 2.279
C -4.80215 -7.74035 1.9186
O -4.19101 -7.17175 0.79161
H -2.63262 -6.20081 3.48285
H -4.87657 -6.96472 3.97813
H -1.72399 -2.28779 2.01262
H -2.17294 -6.48212 0.7997
H -2.11458 -8.83615 1.02397
H -1.75653 -8.2566 2.70972
H -4.04222 -9.74575 1.60108
H -3.87168 -9.23422 3.31864
H -5.83096 -8.13681 1.76424
H -2.69825 -2.52655 0.49649
H -0.943 -2.94781 0.52521
H -5.25486 -9.23776 4.85038
H -5.79107 -10.91544 5.26892
H -6.58143 -9.4442 5.98251
H -9.00127 -5.65573 5.19536
H -9.95971 -4.63538 4.10662
H -8.25389 -4.73679 2.30026
H -7.79179 -3.85421 3.80106
$end

$opt
CONSTRAINT
tors           1           2           3           4     +37.741
tors           3           4           5           6    -132.605
tors           4           5           6           7    -176.638
tors           5           6           7           8    +149.030
tors           6           7           8           9     -82.886
tors           7           8           9          10     +88.232
tors           8           9          10          11    +178.277
tors           9          10          11          12    +174.426
tors          11          12          13          14    +106.430
ENDCONSTRAINT
$end

$rem
JOBTYPE                   OPT
METHOD                    B3LYP
DFT_D                     d3_op
BASIS                     STO-3G
GEOM_OPT_MAX_CYCLES       100
GEOM_OPT_TOL_GRADIENT     300
GEOM_OPT_TOL_DISPLACEMENT 1200
GEOM_OPT_TOL_ENERGY       100
SYMMETRY                  False
THRESH                    12
SCF_CONVERGENCE           8
MAX_SUB_FILE_NUM          128
MEM_STATIC                400
MEM_TOTAL                 4000
$end
--------------------------------------------------------------

   15   -1510.1492548375      7.36E-09 Convergence criterion met
 Total energy in the final basis set = -1510.14925484
   14   -1510.2204379894      3.61E-09 Convergence criterion met
 Total energy in the final basis set = -1510.22043799
   13   -1510.2579728038      8.21E-09 Convergence criterion met
 Total energy in the final basis set = -1510.25797280
   14   -1510.2735640894      8.56E-09 Convergence criterion met
 Total energy in the final basis set = -1510.27356409
   14   -1510.2769251031      6.59E-09 Convergence criterion met
 Total energy in the final basis set = -1510.27692510
   14   -1510.2772013698      6.97E-09 Convergence criterion met
 Total energy in the final basis set = -1510.27720137
   13   -1510.2815995668      9.84E-09 Convergence criterion met
 Total energy in the final basis set = -1510.28159957
   12   -1510.2828657448      9.62E-09 Convergence criterion met
   12   -1510.2848269852      5.07E-09 Convergence criterion met
 Total energy in the final basis set = -1510.28482699
   11   -1510.2849647012      8.71E-09 Convergence criterion met
 Total energy in the final basis set = -1510.28496470
   12   -1510.2850320655      1.96E-09 Convergence criterion met
 Total energy in the final basis set = -1510.28503207
   11   -1510.2850740116      6.26E-09 Convergence criterion met
 Total energy in the final basis set = -1510.28507401
   11   -1510.2850775119      3.05E-09 Convergence criterion met
 Total energy in the final basis set = -1510.28507751
    9   -1510.2850834275      8.37E-09 Convergence criterion met
 Total energy in the final basis set = -1510.28508343

             Standard Nuclear Orientation (Angstroms)
    I     Atom           X                Y                Z
 ----------------------------------------------------------------
    1      O       4.4523916360    -1.6286526800    -0.9525408382
    2      C       4.7287240805    -0.5422540383    -0.3973348768
    3      C       3.8947801966     0.7859592121    -0.4830753691
    4      C       2.3265462320     0.5429554547    -0.4810715517
    5      C       1.9562156374    -0.9107871020    -0.0298623247
    6      O       0.9993526215    -1.4670341475    -0.9456937875
    7      C       0.5933147516    -2.8102454876    -0.4669565022
    8      C      -0.8858354114    -3.1236078861    -0.8786154608
    9      O      -1.8613033191    -2.5324754443     0.0681867357
   10      C      -2.2092572445    -1.1967782720    -0.3012032104
   11      C      -3.2697185422    -0.6872825063     0.7311761002
   12      C      -3.6575162235     0.8346504923     0.5418393265
   13      C      -2.9610017370     1.5363098743    -0.6797302885
   14      O      -3.5048702025     1.8514529939    -1.7609265657
   15      O       5.9099790996    -0.3207915066     0.3765502457
   16      O      -1.6325130743     1.9314133058    -0.2981066354
   17      O      -1.7828176154    -0.6010229446    -1.3151072633
   18      C      -0.9632756527     2.5659724256    -1.4556564049
   19      C      -4.6826431267    -1.3903952409     0.5117126435
   20      C      -5.5553260188    -1.1585924359     1.8068789385
   21      C      -5.9311875639     0.3617363182     1.6495105243
   22      C      -5.2179106681     0.7136335677     0.2852080546
   23      O      -5.3342527839    -0.5360739986    -0.5039710656
   24      H      -2.8874147347    -0.8884599238     1.7479983820
   25      H      -3.4265769925     1.4127367890     1.4545585817
   26      H      -4.6189522192    -2.4398439997     0.1637977016
   27      H      -6.4506991959    -1.7999523160     1.7822615929
   28      H      -4.9949327549    -1.3687006017     2.7319066136
   29      H      -7.0203586466     0.5018968723     1.5633470070
   30      H      -5.5599245576     0.9798389220     2.4824979558
   31      H      -5.6484524068     1.5630283256    -0.2793592804
   32      O       2.3462551709    -1.4904999671     1.0077600893
   33      C       6.7070976565    -1.5676294988     0.4441234597
   34      C       4.0600699149     1.7586390342     0.7649340278
   35      C       3.6714804734     3.2107076779     0.2939217575
   36      C       2.1177536600     3.0503385056     0.1125809095
   37      C       1.8863794331     1.5763022482     0.6414993622
   38      O       2.9412714881     1.3915494262     1.6646791013
   39      H       4.1987512297     1.2997412140    -1.4144283887
   40      H       1.8644185380     0.7491718641    -1.4619390280
   41      H       7.0505036624    -1.8872086590    -0.5612319285
   42      H       5.0307557119     1.6608198447     1.2871378773
   43      H       3.9118193476     3.9447242640     1.0795973356
   44      H       4.1839181640     3.5047883447    -0.6356393503
   45      H       1.5556655371     3.7731259858     0.7244906606
   46      H       1.8091028055     3.1619416833    -0.9377035628
   47      H       0.8819056551     1.3854168106     1.0676613153
   48      H       6.1258009055    -2.3960109182     0.8977268544
   49      H       7.5824198138    -1.3363303455     1.0784164963
   50      H      -0.5211093348     3.5245376404    -1.1253002497
   51      H      -1.7109695389     2.7383948667    -2.2562700233
   52      H      -0.1650013250     1.8958735551    -1.8309497448
   53      H      -1.0724895425    -2.7585344430    -1.9115980218
   54      H      -1.0477826239    -4.2196676545    -0.8315564228
   55      H       0.7199948240    -2.8665771983     0.6360664864
   56      H       1.2588491927    -3.5757868024    -0.9250213809
 ----------------------------------------------------------------

    9   -1510.2850841902      3.65E-09 Convergence criterion met
 Total energy in the final basis set = -1510.28508419
 Final energy is   -1510.28508419024
 **  OPTIMIZATION CONVERGED  **

                    Orbital Energies (a.u.)
 --------------------------------------------------------------

 Alpha MOs
 -- Occupied --
-18.938 -18.937 -18.930 -18.919 -18.887 -18.886 -18.885 -18.872
-18.867 -18.863 -10.105 -10.099 -10.094 -10.091 -10.078 -10.068
-10.064 -10.061 -10.058 -10.057 -10.056 -10.047 -10.039 -10.037
-10.035 -10.034 -10.020 -10.019 -10.019 -10.018  -1.019  -1.012
 -1.005  -0.998  -0.970  -0.968  -0.943  -0.936  -0.929  -0.924
 -0.763  -0.761  -0.728  -0.721  -0.715  -0.705  -0.697  -0.661
 -0.653  -0.618  -0.597  -0.576  -0.545  -0.542  -0.536  -0.535
 -0.512  -0.511  -0.485  -0.471  -0.460  -0.455  -0.452  -0.448
 -0.434  -0.431  -0.426  -0.415  -0.411  -0.410  -0.405  -0.402
 -0.396  -0.378  -0.373  -0.364  -0.362  -0.354  -0.352  -0.349
 -0.343  -0.340  -0.336  -0.332  -0.328  -0.325  -0.319  -0.312
 -0.310  -0.304  -0.302  -0.298  -0.291  -0.283  -0.279  -0.276
 -0.271  -0.255  -0.253  -0.245  -0.240  -0.234  -0.232  -0.188
 -0.178  -0.167  -0.162  -0.159  -0.155  -0.147  -0.146  -0.144
 -0.140

          Ground-State Mulliken Net Atomic Charges

     Atom                 Charge (a.u.)
  ----------------------------------------
      1 O                    -0.215839
      2 C                     0.212719
      3 C                    -0.079027
      4 C                    -0.077429
      5 C                     0.211951
      6 O                    -0.168717
      7 C                    -0.054385
      8 C                    -0.050017
      9 O                    -0.174175
     10 C                     0.214105
     11 C                    -0.078492
     12 C                    -0.080883
     13 C                     0.217725
     14 O                    -0.217036
     15 O                    -0.168860
     16 O                    -0.177430
     17 O                    -0.201885
     18 C                    -0.136523
     19 C                     0.025535
     20 C                    -0.143373
     21 C                    -0.144565
     22 C                     0.025608
     23 O                    -0.188160
     24 H                     0.086859
     25 H                     0.084294
     26 H                     0.084951
     27 H                     0.078295
     28 H                     0.074069
     29 H                     0.078209
     30 H                     0.073358
     31 H                     0.089314
     32 O                    -0.215341
     33 C                    -0.127407
     34 C                     0.023520
     35 C                    -0.143436
     36 C                    -0.144688
     37 C                     0.025124
     38 O                    -0.187436
     39 H                     0.083816
     40 H                     0.085987
     41 H                     0.088178
     42 H                     0.092634
     43 H                     0.077647
     44 H                     0.072590
     45 H                     0.077687
     46 H                     0.073484
     47 H                     0.088226
     48 H                     0.093407
     49 H                     0.090829
     50 H                     0.080206
     51 H                     0.102737
     52 H                     0.082454
     53 H                     0.100846
     54 H                     0.091750
     55 H                     0.100494
     56 H                     0.086496
  ----------------------------------------
  Sum of atomic charges =    -0.000000

                    Cartesian Multipole Moments
 -----------------------------------------------------------------
    Charge (ESU x 10^10)
                -0.0000
    Dipole Moment (Debye)
         X       1.1005      Y       0.0995      Z       0.9885
       Tot       1.4825
    Quadrupole Moments (Debye-Ang)
        XX    -151.4960     XY       4.4114     YY    -148.9233
        XZ     -15.8723     YZ       0.2314     ZZ    -165.5172

 Total job time:  83.42s(wall), 3974.72s(cpu)
        *  Thank you very much for using Q-Chem.  Have a nice day.  *
