 Q-Chem 5.0, Q-Chem, Inc., Pleasanton, CA (2017)
 Q-Chem 5.0.1 for Intel X86 EM64T Linux

User input:
--------------------------------------------------------------
$molecule
0  1
O -3.94934 -3.66094 2.70899
C -3.26408 -4.56952 2.26188
C -3.36658 -6.02376 2.66595
C -4.75477 -6.54337 3.07434
C -5.91734 -5.59895 2.86316
O -6.55718 -5.37814 4.04945
C -7.67566 -4.49275 3.92972
C -8.86432 -5.03841 4.71425
O -9.66481 -5.87889 3.86827
C -9.63224 -7.20237 4.16235
C -10.62869 -8.00748 3.36263
C -10.61094 -9.518 3.63881
C -9.88036 -9.95174 4.89373
O -10.40331 -10.43757 5.88624
O -2.18682 -4.23834 1.50061
O -8.52744 -10.06168 4.77198
O -8.82511 -7.64024 4.96631
C -7.69086 -10.55587 5.75138
C -12.09658 -7.66325 3.67525
C -12.97023 -8.03502 2.47941
C -12.91102 -9.54737 2.5478
C -12.12647 -9.73249 3.85335
O -12.4855 -8.61646 4.63154
H -10.41541 -7.79231 2.29075
H -10.22468 -10.12655 2.79149
H -12.25415 -6.5983 3.95311
H -14.00651 -7.70769 2.72352
H -12.66761 -7.59254 1.50599
H -13.94961 -9.93362 2.64839
H -12.39909 -10.04278 1.69452
H -12.35492 -10.72792 4.29428
O -6.21984 -5.1115 1.77887
C -1.88457 -2.9562 1.09154
C -3.10683 -6.96739 1.46075
C -2.6735 -8.34724 1.95813
C -3.98407 -8.87718 2.49694
C -4.92155 -7.72898 2.1136
O -4.37805 -7.22741 0.91967
H -2.56797 -6.20829 3.41858
H -4.75299 -6.87856 4.1373
H -1.71707 -2.3014 1.97323
H -2.34801 -6.5852 0.74444
H -2.39347 -8.9484 1.06326
H -1.82662 -8.3468 2.67753
H -4.25122 -9.79815 1.93229
H -4.00171 -9.08338 3.58911
H -5.97424 -8.08677 2.06178
H -2.7117 -2.5484 0.47182
H -0.95831 -2.97795 0.48159
H -6.64426 -10.52417 5.38476
H -7.95606 -11.60866 5.98685
H -7.76785 -9.93416 6.66887
H -8.54134 -5.46496 5.69086
H -9.52235 -4.18146 4.97407
H -7.98778 -4.17078 2.91091
H -7.36316 -3.56988 4.46484
$end

$opt
CONSTRAINT
tors           1           2           3           4     +31.807
tors           3           4           5           6    -122.117
tors           4           5           6           7    -179.862
tors           5           6           7           8    +135.775
tors           6           7           8           9     -90.348
tors           7           8           9          10    +110.371
tors           8           9          10          11    +172.353
tors           9          10          11          12    +178.804
tors          11          12          13          14    +112.378
ENDCONSTRAINT
$end

$rem
JOBTYPE                   OPT
METHOD                    B3LYP
DFT_D                     d3_op
BASIS                     STO-3G
GEOM_OPT_MAX_CYCLES       100
GEOM_OPT_TOL_GRADIENT     300
GEOM_OPT_TOL_DISPLACEMENT 1200
GEOM_OPT_TOL_ENERGY       100
SYMMETRY                  False
THRESH                    12
SCF_CONVERGENCE           8
MAX_SUB_FILE_NUM          128
MEM_STATIC                400
MEM_TOTAL                 4000
$end
--------------------------------------------------------------

   15   -1510.1479628868      6.54E-09 Convergence criterion met
 Total energy in the final basis set = -1510.14796289
   14   -1510.2178381601      2.96E-09 Convergence criterion met
 Total energy in the final basis set = -1510.21783816
   13   -1510.2546840219      8.33E-09 Convergence criterion met
 Total energy in the final basis set = -1510.25468402
   14   -1510.2707032550      3.18E-09 Convergence criterion met
 Total energy in the final basis set = -1510.27070325
   13   -1510.2777566720      7.35E-09 Convergence criterion met
 Total energy in the final basis set = -1510.27775667
   13   -1510.2812162970      4.30E-09 Convergence criterion met
 Total energy in the final basis set = -1510.28121630
   13   -1510.2834206835      3.03E-09 Convergence criterion met
 Total energy in the final basis set = -1510.28342068
   13   -1510.2842544994      3.74E-09 Convergence criterion met
   10   -1510.2860255903      9.86E-09 Convergence criterion met
 Total energy in the final basis set = -1510.28602559
   11   -1510.2860725549      5.13E-09 Convergence criterion met
 Total energy in the final basis set = -1510.28607255
    9   -1510.2860951476      1.00E-08 Convergence criterion met
 Total energy in the final basis set = -1510.28609515
   10   -1510.2861094435      8.21E-09 Convergence criterion met
 Total energy in the final basis set = -1510.28610944
    9   -1510.2861147568      9.80E-09 Convergence criterion met
 Total energy in the final basis set = -1510.28611476
    9   -1510.2861168561      4.17E-09 Convergence criterion met
 Total energy in the final basis set = -1510.28611686

             Standard Nuclear Orientation (Angstroms)
    I     Atom           X                Y                Z
 ----------------------------------------------------------------
    1      O       4.4583076347    -1.6669507482    -0.8478317018
    2      C       4.8583673636    -0.5686303011    -0.4012029512
    3      C       4.1029230846     0.8033339417    -0.5013421607
    4      C       2.5261081513     0.6426033022    -0.4780353645
    5      C       2.0351625452    -0.8123352222    -0.1585071636
    6      O       1.2190585493    -1.2396335022    -1.2574934699
    7      C       0.7075977754    -2.6129787544    -1.0338596861
    8      C      -0.8083614309    -2.6231808914    -1.4289498475
    9      O      -1.6358795888    -2.2928666329    -0.2409364001
   10      C      -2.2346005098    -1.0040039427    -0.3862578626
   11      C      -3.2444648221    -0.7864564028     0.7900760981
   12      C      -3.9404212121     0.6328401902     0.7336810666
   13      C      -3.3265131369     1.6217526258    -0.3257109434
   14      O      -3.8642091935     2.0516567148    -1.3673935417
   15      O       6.1227507855    -0.3773766436     0.2358999571
   16      O      -2.0594753685     2.0703131478     0.1835389858
   17      O      -2.0197726505    -0.2314911167    -1.3483928364
   18      C      -1.4069305702     2.9483775035    -0.8113355095
   19      C      -4.5034588408    -1.7358167382     0.5815412038
   20      C      -5.4101965875    -1.6830692053     1.8760518532
   21      C      -6.1247701248    -0.2912844938     1.6951824204
   22      C      -5.4321126691     0.2294386420     0.3774562519
   23      O      -5.2880597424    -1.0015578363    -0.4361158910
   24      H      -2.7357078424    -0.9742071634     1.7525252169
   25      H      -3.8838231851     1.1225797810     1.7225210659
   26      H      -4.2459803621    -2.7521119681     0.2247173683
   27      H      -6.1324947747    -2.5148174223     1.8752672124
   28      H      -4.8114210311    -1.7364162923     2.7995015697
   29      H      -7.2083660095    -0.4135402544     1.5380146360
   30      H      -5.9646131047     0.3854954222     2.5495504496
   31      H      -5.9839862026     1.0029924157    -0.1909881455
   32      O       2.2054519360    -1.4710735334     0.8904917144
   33      C       6.8510470620    -1.6659891272     0.3059301711
   34      C       4.3329940308     1.7735526190     0.7355083852
   35      C       3.9342873708     3.2343607570     0.2893537752
   36      C       2.3665552778     3.1113150538     0.2305876546
   37      C       2.1545229659     1.6218235513     0.7159204155
   38      O       3.2556446889     1.4009189367     1.6809722018
   39      H       4.4263113862     1.2877636012    -1.4418174294
   40      H       2.0684994625     0.9561676311    -1.4323603570
   41      H       7.0567000800    -2.0730419465    -0.7051941573
   42      H       5.3267117621     1.6690388224     1.2113628049
   43      H       4.2528992528     3.9669535627     1.0480909812
   44      H       4.3788088598     3.5118455016    -0.6795405545
   45      H       1.8778669238     3.8168849133     0.9210005611
   46      H       1.9685720847     3.2736331103    -0.7837105663
   47      H       1.1743854890     1.4148517489     1.1880458471
   48      H       6.2810054219    -2.4233764261     0.8816062501
   49      H       7.8054345668    -1.4490654580     0.8198990662
   50      H      -0.4537211353     3.2728777967    -0.3562554363
   51      H      -2.0275839244     3.8372066343    -1.0468301109
   52      H      -1.2015063212     2.4012803493    -1.7544135023
   53      H      -0.9961760553    -1.8766849738    -2.2306302934
   54      H      -1.1117310355    -3.6368762804    -1.7644839723
   55      H       0.8559880461    -2.8964013662     0.0312761781
   56      H       1.2744652874    -3.3175672608    -1.6806871351
 ----------------------------------------------------------------

    9   -1510.2861192793      2.26E-09 Convergence criterion met
 Total energy in the final basis set = -1510.28611928
 Final energy is   -1510.28611927927
 **  OPTIMIZATION CONVERGED  **

                    Orbital Energies (a.u.)
 --------------------------------------------------------------

 Alpha MOs
 -- Occupied --
-18.940 -18.938 -18.926 -18.918 -18.887 -18.885 -18.885 -18.877
-18.867 -18.860 -10.105 -10.102 -10.094 -10.089 -10.072 -10.067
-10.066 -10.060 -10.059 -10.058 -10.055 -10.054 -10.040 -10.039
-10.035 -10.031 -10.021 -10.020 -10.020 -10.018  -1.019  -1.015
 -1.003  -0.996  -0.970  -0.969  -0.943  -0.939  -0.929  -0.923
 -0.763  -0.761  -0.727  -0.722  -0.714  -0.705  -0.695  -0.664
 -0.654  -0.617  -0.597  -0.576  -0.545  -0.543  -0.537  -0.535
 -0.513  -0.510  -0.486  -0.472  -0.461  -0.454  -0.451  -0.449
 -0.434  -0.430  -0.427  -0.415  -0.413  -0.409  -0.403  -0.402
 -0.398  -0.378  -0.372  -0.364  -0.361  -0.354  -0.352  -0.351
 -0.341  -0.339  -0.336  -0.331  -0.329  -0.323  -0.321  -0.312
 -0.311  -0.304  -0.303  -0.300  -0.294  -0.284  -0.275  -0.275
 -0.270  -0.257  -0.253  -0.244  -0.243  -0.234  -0.233  -0.187
 -0.180  -0.165  -0.163  -0.161  -0.157  -0.148  -0.144  -0.143
 -0.140

          Ground-State Mulliken Net Atomic Charges

     Atom                 Charge (a.u.)
  ----------------------------------------
      1 O                    -0.212823
      2 C                     0.213030
      3 C                    -0.078754
      4 C                    -0.079376
      5 C                     0.213639
      6 O                    -0.173691
      7 C                    -0.054671
      8 C                    -0.054271
      9 O                    -0.173079
     10 C                     0.216622
     11 C                    -0.076925
     12 C                    -0.081725
     13 C                     0.216635
     14 O                    -0.216448
     15 O                    -0.168626
     16 O                    -0.178356
     17 O                    -0.206488
     18 C                    -0.129693
     19 C                     0.024804
     20 C                    -0.144133
     21 C                    -0.143457
     22 C                     0.024221
     23 O                    -0.190547
     24 H                     0.088562
     25 H                     0.083416
     26 H                     0.084995
     27 H                     0.078119
     28 H                     0.073962
     29 H                     0.077878
     30 H                     0.073322
     31 H                     0.089927
     32 O                    -0.215714
     33 C                    -0.127607
     34 C                     0.023817
     35 C                    -0.143392
     36 C                    -0.145262
     37 C                     0.025338
     38 O                    -0.187126
     39 H                     0.084943
     40 H                     0.087020
     41 H                     0.088999
     42 H                     0.091766
     43 H                     0.078207
     44 H                     0.073161
     45 H                     0.077455
     46 H                     0.073096
     47 H                     0.086309
     48 H                     0.093530
     49 H                     0.091465
     50 H                     0.084192
     51 H                     0.085983
     52 H                     0.091446
     53 H                     0.107380
     54 H                     0.087549
     55 H                     0.104890
     56 H                     0.086485
  ----------------------------------------
  Sum of atomic charges =    -0.000000

                    Cartesian Multipole Moments
 -----------------------------------------------------------------
    Charge (ESU x 10^10)
                -0.0000
    Dipole Moment (Debye)
         X       1.6847      Y       0.1342      Z       0.5647
       Tot       1.7819
    Quadrupole Moments (Debye-Ang)
        XX    -149.9616     XY       5.3288     YY    -150.7247
        XZ     -16.6843     YZ       1.5479     ZZ    -163.8418

 Total job time:  54.70s(wall), 2602.68s(cpu)
        *  Thank you very much for using Q-Chem.  Have a nice day.  *
