 Q-Chem 5.0, Q-Chem, Inc., Pleasanton, CA (2017)
 Q-Chem 5.0.1 for Intel X86 EM64T Linux

User input:
--------------------------------------------------------------
$molecule
0  1
O 4.4583076347 -1.6669507482 -0.8478317018
C 4.8583673636 -0.5686303011 -0.4012029512
C 4.1029230846 0.8033339417 -0.5013421607
C 2.5261081513 0.6426033022 -0.4780353645
C 2.0351625452 -0.8123352222 -0.1585071636
O 1.2190585493 -1.2396335022 -1.2574934699
C 0.7075977754 -2.6129787544 -1.0338596861
C -0.8083614309 -2.6231808914 -1.4289498475
O -1.6358795888 -2.2928666329 -0.2409364001
C -2.2346005098 -1.0040039427 -0.3862578626
C -3.2444648221 -0.7864564028 0.7900760981
C -3.9404212121 0.6328401902 0.7336810666
C -3.3265131369 1.6217526258 -0.3257109434
O -3.8642091935 2.0516567148 -1.3673935417
O 6.1227507855 -0.3773766436 0.2358999571
O -2.0594753685 2.0703131478 0.1835389858
O -2.0197726505 -0.2314911167 -1.3483928364
C -1.4069305702 2.9483775035 -0.8113355095
C -4.5034588408 -1.7358167382 0.5815412038
C -5.4101965875 -1.6830692053 1.8760518532
C -6.1247701248 -0.2912844938 1.6951824204
C -5.4321126691 0.229438642 0.3774562519
O -5.2880597424 -1.0015578363 -0.436115891
H -2.7357078424 -0.9742071634 1.7525252169
H -3.8838231851 1.122579781 1.7225210659
H -4.2459803621 -2.7521119681 0.2247173683
H -6.1324947747 -2.5148174223 1.8752672124
H -4.8114210311 -1.7364162923 2.7995015697
H -7.2083660095 -0.4135402544 1.538014636
H -5.9646131047 0.3854954222 2.5495504496
H -5.9839862026 1.0029924157 -0.1909881455
O 2.205451936 -1.4710735334 0.8904917144
C 6.851047062 -1.6659891272 0.3059301711
C 4.3329940308 1.773552619 0.7355083852
C 3.9342873708 3.234360757 0.2893537752
C 2.3665552778 3.1113150538 0.2305876546
C 2.1545229659 1.6218235513 0.7159204155
O 3.2556446889 1.4009189367 1.6809722018
H 4.4263113862 1.2877636012 -1.4418174294
H 2.0684994625 0.9561676311 -1.432360357
H 7.05670008 -2.0730419465 -0.7051941573
H 5.3267117621 1.6690388224 1.2113628049
H 4.2528992528 3.9669535627 1.0480909812
H 4.3788088598 3.5118455016 -0.6795405545
H 1.8778669238 3.8168849133 0.9210005611
H 1.9685720847 3.2736331103 -0.7837105663
H 1.174385489 1.4148517489 1.1880458471
H 6.2810054219 -2.4233764261 0.8816062501
H 7.8054345668 -1.449065458 0.8198990662
H -0.4537211353 3.2728777967 -0.3562554363
H -2.0275839244 3.8372066343 -1.0468301109
H -1.2015063212 2.4012803493 -1.7544135023
H -0.9961760553 -1.8766849738 -2.2306302934
H -1.1117310355 -3.6368762804 -1.7644839723
H 0.8559880461 -2.8964013662 0.0312761781
H 1.2744652874 -3.3175672608 -1.6806871351
$end

$rem
JOBTYPE                   OPT
METHOD                    B3LYP
DFT_D                     d3_op
BASIS                     STO-3G
GEOM_OPT_MAX_CYCLES       100
GEOM_OPT_TOL_GRADIENT     300
GEOM_OPT_TOL_DISPLACEMENT 1200
GEOM_OPT_TOL_ENERGY       100
SYMMETRY                  False
THRESH                    12
SCF_CONVERGENCE           8
MAX_SUB_FILE_NUM          128
MEM_STATIC                400
MEM_TOTAL                 4000
$end
--------------------------------------------------------------

   16   -1510.2861919132      6.95E-09 Convergence criterion met
 Total energy in the final basis set = -1510.28619191
   14   -1510.2735351660      3.67E-09 Convergence criterion met
 Total energy in the final basis set = -1510.27353517
   14   -1510.2873658577      2.57E-09 Convergence criterion met
 Total energy in the final basis set = -1510.28736586
   13   -1510.2881428211      3.50E-09 Convergence criterion met
 Total energy in the final basis set = -1510.28814282
   14   -1510.2891100666      3.09E-09 Convergence criterion met
 Total energy in the final basis set = -1510.28911007
   14   -1510.2904365147      4.17E-09 Convergence criterion met
 Total energy in the final basis set = -1510.29043651
   14   -1510.2920306182      9.48E-09 Convergence criterion met
 Total energy in the final basis set = -1510.29203062
   14   -1510.2916657369      8.26E-09 Convergence criterion met
   13   -1510.2973505584      2.29E-09 Convergence criterion met
 Total energy in the final basis set = -1510.29735056
   12   -1510.2974345590      7.96E-09 Convergence criterion met
 Total energy in the final basis set = -1510.29743456
   12   -1510.2974013602      6.32E-09 Convergence criterion met
 Total energy in the final basis set = -1510.29740136
   12   -1510.2974361240      2.59E-09 Convergence criterion met
 Total energy in the final basis set = -1510.29743612
    9   -1510.2974347286      9.30E-09 Convergence criterion met
 Total energy in the final basis set = -1510.29743473
    9   -1510.2974320033      8.13E-09 Convergence criterion met
 Total energy in the final basis set = -1510.29743200

             Standard Nuclear Orientation (Angstroms)
    I     Atom           X                Y                Z
 ----------------------------------------------------------------
    1      O       3.4009101489    -1.9869032678     0.0433118243
    2      C       3.8405622804    -0.8980222677     0.4775410532
    3      C       3.4079846087     0.5377533140     0.0294262451
    4      C       2.0595203363     0.5565315314    -0.8011856004
    5      C       1.2913587716    -0.8114995365    -0.7294047487
    6      O       1.3297574832    -1.4172540123    -2.0322814024
    7      C       0.6998223216    -2.7581404876    -2.0127384040
    8      C      -0.8578999174    -2.7172673949    -2.2526555647
    9      O      -1.5775580319    -2.3784334557    -1.0021431333
   10      C      -1.8476846072    -0.9776427066    -0.9442058276
   11      C      -2.3441234590    -0.6183623104     0.4934392920
   12      C      -2.8378368555     0.8800577142     0.6147203384
   13      C      -2.7706573353     1.6870012900    -0.7320052151
   14      O      -3.6897789951     1.8768676134    -1.5544365262
   15      O       4.8637911240    -0.7893903565     1.4687851631
   16      O      -1.4838216845     2.3357007303    -0.8055570221
   17      O      -1.6899132517    -0.1881269756    -1.9044715364
   18      C      -1.3407452699     3.0198937423    -2.1085431912
   19      C      -3.6582929107    -1.4094234630     0.9041264852
   20      C      -3.8478911672    -1.2747710708     2.4656404161
   21      C      -4.3426862764     0.2146073624     2.5854176224
   22      C      -4.3414590261     0.6588766073     1.0698899569
   23      O      -4.7435393108    -0.5707808618     0.3463307158
   24      H      -1.5039842272    -0.8315108584     1.1812990709
   25      H      -2.2484989090     1.4249167794     1.3732113322
   26      H      -3.7095780648    -2.4407255507     0.5042957242
   27      H      -4.6118939930    -1.9839999836     2.8221901159
   28      H      -2.9101374099    -1.4592148901     3.0138948491
   29      H      -5.3608722801     0.2700699400     3.0021422378
   30      H      -3.6731763629     0.8372577003     3.2001610332
   31      H      -5.0220553699     1.4937018561     0.8139799248
   32      O       0.6784986896    -1.2850048444     0.2515645263
   33      C       5.2913248235    -2.1395586801     1.9046192390
   34      C       3.0403151876     1.5104426593     1.2362922856
   35      C       3.1888386152     2.9879597302     0.7059846768
   36      C       1.9481326358     3.0732265444    -0.2578418593
   37      C       1.2527113976     1.6732800260    -0.0150727359
   38      O       1.5774329113     1.3549983749     1.3960742885
   39      H       4.2381397118     0.9661299264    -0.5620637153
   40      H       2.2329035922     0.8108773558    -1.8611077665
   41      H       5.7218027411    -2.7220681146     1.0645330389
   42      H       3.5703193776     1.2802562287     2.1808601498
   43      H       3.1033781655     3.7040638260     1.5390245804
   44      H       4.1480142295     3.1556665802     0.1905835872
   45      H       1.2684832481     3.8921087588     0.0263241196
   46      H       2.2409872884     3.2099354076    -1.3112580967
   47      H       0.1513444555     1.6875636318    -0.1984764665
   48      H       4.4461787339    -2.7142461751     2.3354201923
   49      H       6.0642031011    -1.9792138241     2.6785793528
   50      H      -0.3586994064     3.5258130874    -2.0862622832
   51      H      -2.1445441816     3.7674640745    -2.2643684147
   52      H      -1.3658052817     2.2897781997    -2.9432980057
   53      H      -1.1020073866    -1.9760940203    -3.0439017147
   54      H      -1.2068939804    -3.7259609230    -2.5550054619
   55      H       0.9060720201    -3.2731836268    -1.0499823060
   56      H       1.1721763798    -3.3214556593    -2.8437836404
 ----------------------------------------------------------------

    9   -1510.2974279003      8.98E-09 Convergence criterion met
 Total energy in the final basis set = -1510.29742790
 Final energy is   -1510.29742790029
 **  OPTIMIZATION CONVERGED  **

                    Orbital Energies (a.u.)
 --------------------------------------------------------------

 Alpha MOs
 -- Occupied --
-18.941 -18.935 -18.926 -18.923 -18.881 -18.881 -18.880 -18.878
-18.863 -18.860 -10.103 -10.103 -10.092 -10.092 -10.070 -10.068
-10.067 -10.056 -10.055 -10.054 -10.053 -10.038 -10.036 -10.032
-10.029 -10.029 -10.015 -10.015 -10.014 -10.011  -1.018  -1.016
 -1.001  -0.997  -0.965  -0.962  -0.941  -0.939  -0.927  -0.926
 -0.758  -0.757  -0.722  -0.717  -0.710  -0.700  -0.691  -0.664
 -0.655  -0.616  -0.593  -0.574  -0.541  -0.539  -0.532  -0.530
 -0.508  -0.506  -0.481  -0.473  -0.456  -0.454  -0.448  -0.445
 -0.429  -0.427  -0.426  -0.415  -0.412  -0.405  -0.404  -0.400
 -0.393  -0.376  -0.375  -0.363  -0.357  -0.353  -0.348  -0.346
 -0.345  -0.337  -0.329  -0.327  -0.323  -0.319  -0.319  -0.310
 -0.309  -0.300  -0.300  -0.296  -0.294  -0.277  -0.274  -0.271
 -0.271  -0.257  -0.249  -0.244  -0.239  -0.229  -0.225  -0.188
 -0.182  -0.168  -0.160  -0.158  -0.156  -0.143  -0.142  -0.139
 -0.135

          Ground-State Mulliken Net Atomic Charges

     Atom                 Charge (a.u.)
  ----------------------------------------
      1 O                    -0.211763
      2 C                     0.212493
      3 C                    -0.079706
      4 C                    -0.080998
      5 C                     0.215526
      6 O                    -0.173488
      7 C                    -0.050879
      8 C                    -0.054121
      9 O                    -0.168287
     10 C                     0.219766
     11 C                    -0.080009
     12 C                    -0.082781
     13 C                     0.219443
     14 O                    -0.213354
     15 O                    -0.169141
     16 O                    -0.175574
     17 O                    -0.214343
     18 C                    -0.128030
     19 C                     0.024797
     20 C                    -0.143371
     21 C                    -0.144115
     22 C                     0.025321
     23 O                    -0.189646
     24 H                     0.103738
     25 H                     0.087314
     26 H                     0.087371
     27 H                     0.076934
     28 H                     0.076193
     29 H                     0.076950
     30 H                     0.074118
     31 H                     0.086054
     32 O                    -0.222916
     33 C                    -0.127964
     34 C                     0.024644
     35 C                    -0.143224
     36 C                    -0.146473
     37 C                     0.008556
     38 O                    -0.192282
     39 H                     0.084639
     40 H                     0.084041
     41 H                     0.089301
     42 H                     0.085970
     43 H                     0.076061
     44 H                     0.071175
     45 H                     0.075281
     46 H                     0.068856
     47 H                     0.107611
     48 H                     0.092062
     49 H                     0.091630
     50 H                     0.086516
     51 H                     0.088882
     52 H                     0.094401
     53 H                     0.100547
     54 H                     0.088642
     55 H                     0.099779
     56 H                     0.087853
  ----------------------------------------
  Sum of atomic charges =     0.000000

                    Cartesian Multipole Moments
 -----------------------------------------------------------------
    Charge (ESU x 10^10)
                 0.0000
    Dipole Moment (Debye)
         X       3.2426      Y      -0.1618      Z       0.5430
       Tot       3.2917
    Quadrupole Moments (Debye-Ang)
        XX    -159.5196     XY       0.4954     YY    -149.3226
        XZ      -6.3094     YZ       0.5274     ZZ    -155.6206

 Total job time:  94.11s(wall), 4484.05s(cpu)
        *  Thank you very much for using Q-Chem.  Have a nice day.  *
