 Q-Chem 5.0, Q-Chem, Inc., Pleasanton, CA (2017)
 Q-Chem 5.0.1 for Intel X86 EM64T Linux

User input:
--------------------------------------------------------------
$molecule
0  1
O -3.94934 -3.66094 2.70899
C -3.26408 -4.56952 2.26188
C -3.36658 -6.02376 2.66595
C -4.75164 -6.53928 3.08985
C -5.91354 -5.59098 2.8928
O -6.45819 -5.26678 4.10263
C -7.62328 -4.44229 3.9929
C -8.57477 -4.71995 5.15208
O -9.13288 -6.03698 5.02243
C -8.69667 -6.94693 5.92844
C -9.34992 -8.29878 5.76592
C -8.87315 -9.37135 6.75616
C -8.10606 -8.86428 7.9608
O -8.49849 -8.90142 9.11803
O -2.18749 -4.23924 1.49938
O -6.78096 -8.62552 7.74998
O -7.82501 -6.66228 6.73343
C -5.88117 -8.28309 8.73828
C -10.86517 -8.29121 6.04076
C -11.51922 -9.45966 5.30694
C -10.99175 -10.62845 6.11377
C -10.25336 -9.8795 7.23097
O -10.9816 -8.68539 7.38438
H -9.16447 -8.61071 4.71279
H -8.27444 -10.18317 6.28714
H -11.36233 -7.33543 5.76609
H -12.61637 -9.37428 5.479
H -11.32432 -9.5119 4.21415
H -11.8602 -11.19392 6.51874
H -10.30905 -11.31461 5.56723
H -10.17917 -10.52457 8.13423
O -6.2484 -5.11938 1.81087
C -1.8851 -2.95736 1.08964
C -3.12682 -6.96806 1.45682
C -2.68631 -8.34753 1.94833
C -3.98733 -8.87468 2.51299
C -4.93222 -7.72916 2.13865
O -4.40639 -7.23016 0.93565
H -2.55843 -6.21291 3.40726
H -4.73442 -6.86232 4.15653
H -1.71646 -2.30238 1.97099
H -2.37955 -6.5862 0.72823
H -2.42513 -8.94937 1.04819
H -1.82533 -8.34948 2.6508
H -4.26215 -9.80078 1.96065
H -3.98624 -9.07115 3.60711
H -5.98547 -8.08675 2.10388
H -2.71267 -2.54938 0.47063
H -0.95945 -2.97968 0.47878
H -4.87866 -8.1436 8.2844
H -5.82046 -9.09107 9.49833
H -6.19009 -7.3326 9.22347
H -8.04656 -4.50517 6.10719
H -9.41685 -3.99702 5.1082
H -8.20227 -4.60762 3.05434
H -7.30665 -3.37768 4.03851
$end

$opt
CONSTRAINT
tors           1           2           3           4     +31.122
tors           3           4           5           6    -116.255
tors           4           5           6           7    -175.986
tors           5           6           7           8    +149.448
tors           6           7           8           9     -68.575
tors           7           8           9          10    +109.457
tors           8           9          10          11    +178.277
tors           9          10          11          12    +179.113
tors          11          12          13          14    +112.378
ENDCONSTRAINT
$end

$rem
JOBTYPE                   OPT
METHOD                    B3LYP
DFT_D                     d3_op
BASIS                     STO-3G
GEOM_OPT_MAX_CYCLES       100
GEOM_OPT_TOL_GRADIENT     300
GEOM_OPT_TOL_DISPLACEMENT 1200
GEOM_OPT_TOL_ENERGY       100
SYMMETRY                  False
THRESH                    12
SCF_CONVERGENCE           8
MAX_SUB_FILE_NUM          128
MEM_STATIC                400
MEM_TOTAL                 4000
$end
--------------------------------------------------------------

   15   -1510.1510988326      6.19E-09 Convergence criterion met
 Total energy in the final basis set = -1510.15109883
   14   -1510.2209008854      7.17E-09 Convergence criterion met
 Total energy in the final basis set = -1510.22090089
   14   -1510.2576023107      6.43E-09 Convergence criterion met
 Total energy in the final basis set = -1510.25760231
   14   -1510.2732185788      2.11E-09 Convergence criterion met
 Total energy in the final basis set = -1510.27321858
   13   -1510.2799008570      8.26E-09 Convergence criterion met
 Total energy in the final basis set = -1510.27990086
    2   -1510.2799008571      8.69E-09 Convergence criterion met
 Total energy in the final basis set = -1510.27990086
   13   -1510.2828254738      3.66E-09 Convergence criterion met
 Total energy in the final basis set = -1510.28282547
   13   -1510.2844675213      2.75E-09 Convergence criterion met
   12   -1510.2867632973      3.19E-09 Convergence criterion met
 Total energy in the final basis set = -1510.28676330
   11   -1510.2868394561      7.44E-09 Convergence criterion met
 Total energy in the final basis set = -1510.28683946
   10   -1510.2868970504      8.85E-09 Convergence criterion met
 Total energy in the final basis set = -1510.28689705
   11   -1510.2869183645      5.12E-09 Convergence criterion met
 Total energy in the final basis set = -1510.28691836
   10   -1510.2869126894      8.82E-09 Convergence criterion met
 Total energy in the final basis set = -1510.28691269
    9   -1510.2869027350      8.84E-09 Convergence criterion met
 Total energy in the final basis set = -1510.28690274

             Standard Nuclear Orientation (Angstroms)
    I     Atom           X                Y                Z
 ----------------------------------------------------------------
    1      O       4.1227653707    -1.5492026291    -1.1049377128
    2      C       4.5090749341    -0.3917672813    -0.8258869329
    3      C       3.5904856985     0.8604168742    -0.6030698247
    4      C       2.1786206065     0.4763954142     0.0044876200
    5      C       2.0211745814    -1.0417755362     0.3769995821
    6      O       0.9899919466    -1.5615762744    -0.4688112537
    7      C       0.6730066520    -2.9747043311    -0.1518908357
    8      C      -0.8420787709    -3.1162814576    -0.5080569580
    9      O      -1.6091913011    -2.3114130480     0.4772107777
   10      C      -2.1622458180    -1.1544035561    -0.1503864967
   11      C      -2.9962565405    -0.3612588599     0.9103437246
   12      C      -3.6336023227     0.9562462785     0.3116098067
   13      C      -3.1013026882     1.3441551827    -1.1177035649
   14      O      -3.7333855087     1.3384289272    -2.1942683078
   15      O       5.8811841593    -0.0103551505    -0.7194335730
   16      O      -1.7628500594     1.8475434078    -0.9575549881
   17      O      -2.0271524074    -0.8756379958    -1.3639731000
   18      C      -1.1759187232     2.1317719247    -2.2846026870
   19      C      -4.3112659295    -1.1822015295     1.2660799604
   20      C      -5.0431220237    -0.4864365542     2.4820495644
   21      C      -5.7234385609     0.7423988134     1.7717709463
   22      C      -5.1738880114     0.5770424822     0.3019998192
   23      O      -5.1841132760    -0.8924447999     0.1058918273
   24      H      -2.3707643391    -0.1671218083     1.8001634977
   25      H      -3.4382186788     1.8103751823     0.9848075640
   26      H      -4.1465807337    -2.2722051446     1.3730201248
   27      H      -5.7888782407    -1.1668951326     2.9226128337
   28      H      -4.3341264501    -0.1830098814     3.2691747271
   29      H      -6.8216726782     0.6552484336     1.7833353494
   30      H      -5.4399298300     1.7072522077     2.2212832770
   31      H      -5.7572001086     1.0758657779    -0.4961685483
   32      O       2.5638805162    -1.6766711241     1.3062044466
   33      C       6.7510107703    -1.1864749654    -0.9556735839
   34      C       4.1313531833     1.8755852079     0.4904417717
   35      C       3.3667969072     3.2459824136     0.3056495098
   36      C       1.9482180570     2.8809585534     0.8817589394
   37      C       2.1704373729     1.3780669584     1.3119533323
   38      O       3.5820608121     1.3421598503     1.7577661423
   39      H       3.4706563404     1.3622859888    -1.5817519935
   40      H       1.3557781555     0.7369280691    -0.6841020146
   41      H       6.6261622358    -1.5852421095    -1.9833167263
   42      H       5.2352527988     1.9413640739     0.5374171894
   43      H       3.8510274620     4.0390873226     0.8972033937
   44      H       3.3310205738     3.5638180025    -0.7487256967
   45      H       1.6961638035     3.4994319650     1.7578521300
   46      H       1.1429554789     2.9816632354     0.1364422358
   47      H       1.5020890438     1.0128842454     2.1155065367
   48      H       6.5377390024    -2.0003905876    -0.2333151096
   49      H       7.7886575987    -0.8302339874    -0.8201894360
   50      H      -0.1808594281     2.5750783277    -2.0940728392
   51      H      -1.7950285574     2.8453039585    -2.8660527370
   52      H      -1.0594716985     1.2005953469    -2.8767512678
   53      H      -1.0367023949    -2.7267881594    -1.5301802737
   54      H      -1.1754078877    -4.1713999525    -0.4205645718
   55      H       0.8655798305    -3.1906661112     0.9209528639
   56      H       1.2921387815    -3.6598936784    -0.7726964197
 ----------------------------------------------------------------

    9   -1510.2869025646      4.17E-09 Convergence criterion met
 Total energy in the final basis set = -1510.28690256
 Final energy is   -1510.28690256458
 **  OPTIMIZATION CONVERGED  **

                    Orbital Energies (a.u.)
 --------------------------------------------------------------

 Alpha MOs
 -- Occupied --
-18.940 -18.939 -18.925 -18.918 -18.886 -18.886 -18.886 -18.878
-18.864 -18.861 -10.106 -10.103 -10.093 -10.091 -10.073 -10.069
-10.067 -10.061 -10.058 -10.058 -10.056 -10.056 -10.041 -10.039
-10.033 -10.032 -10.021 -10.020 -10.019 -10.019  -1.020  -1.016
 -1.002  -0.997  -0.969  -0.969  -0.944  -0.940  -0.928  -0.924
 -0.763  -0.762  -0.728  -0.721  -0.714  -0.705  -0.696  -0.664
 -0.655  -0.617  -0.596  -0.576  -0.545  -0.543  -0.537  -0.536
 -0.513  -0.510  -0.487  -0.475  -0.463  -0.456  -0.453  -0.449
 -0.432  -0.431  -0.419  -0.416  -0.413  -0.411  -0.404  -0.403
 -0.398  -0.378  -0.373  -0.366  -0.361  -0.354  -0.352  -0.351
 -0.342  -0.338  -0.337  -0.332  -0.329  -0.324  -0.321  -0.311
 -0.310  -0.305  -0.303  -0.301  -0.295  -0.282  -0.276  -0.275
 -0.271  -0.257  -0.253  -0.245  -0.244  -0.234  -0.233  -0.184
 -0.181  -0.168  -0.165  -0.161  -0.157  -0.145  -0.144  -0.142
 -0.141

          Ground-State Mulliken Net Atomic Charges

     Atom                 Charge (a.u.)
  ----------------------------------------
      1 O                    -0.211871
      2 C                     0.213283
      3 C                    -0.078566
      4 C                    -0.080706
      5 C                     0.213503
      6 O                    -0.175569
      7 C                    -0.049335
      8 C                    -0.052522
      9 O                    -0.172914
     10 C                     0.219122
     11 C                    -0.076805
     12 C                    -0.081734
     13 C                     0.216926
     14 O                    -0.215675
     15 O                    -0.168341
     16 O                    -0.179484
     17 O                    -0.205936
     18 C                    -0.128882
     19 C                     0.024762
     20 C                    -0.144328
     21 C                    -0.143331
     22 C                     0.024252
     23 O                    -0.190355
     24 H                     0.087246
     25 H                     0.082813
     26 H                     0.085444
     27 H                     0.078294
     28 H                     0.073612
     29 H                     0.078077
     30 H                     0.073125
     31 H                     0.090042
     32 O                    -0.216632
     33 C                    -0.127593
     34 C                     0.023639
     35 C                    -0.143895
     36 C                    -0.144348
     37 C                     0.026264
     38 O                    -0.188001
     39 H                     0.084579
     40 H                     0.088121
     41 H                     0.088912
     42 H                     0.091225
     43 H                     0.077804
     44 H                     0.072142
     45 H                     0.077476
     46 H                     0.075199
     47 H                     0.083043
     48 H                     0.093875
     49 H                     0.091680
     50 H                     0.080377
     51 H                     0.087608
     52 H                     0.093067
     53 H                     0.107308
     54 H                     0.087813
     55 H                     0.098006
     56 H                     0.088186
  ----------------------------------------
  Sum of atomic charges =    -0.000000

                    Cartesian Multipole Moments
 -----------------------------------------------------------------
    Charge (ESU x 10^10)
                -0.0000
    Dipole Moment (Debye)
         X       1.1217      Y       1.0333      Z       0.5311
       Tot       1.6149
    Quadrupole Moments (Debye-Ang)
        XX    -157.8956     XY       0.2205     YY    -150.1842
        XZ     -20.9291     YZ       0.7418     ZZ    -163.6636

 Total job time:  53.84s(wall), 2562.96s(cpu)
        *  Thank you very much for using Q-Chem.  Have a nice day.  *
