 Q-Chem 5.0, Q-Chem, Inc., Pleasanton, CA (2017)
 Q-Chem 5.0.1 for Intel X86 EM64T Linux

User input:
--------------------------------------------------------------
$molecule
0  1
O 4.1227653707 -1.5492026291 -1.1049377128
C 4.5090749341 -0.3917672813 -0.8258869329
C 3.5904856985 0.8604168742 -0.6030698247
C 2.1786206065 0.4763954142 0.00448762
C 2.0211745814 -1.0417755362 0.3769995821
O 0.9899919466 -1.5615762744 -0.4688112537
C 0.673006652 -2.9747043311 -0.1518908357
C -0.8420787709 -3.1162814576 -0.508056958
O -1.6091913011 -2.311413048 0.4772107777
C -2.162245818 -1.1544035561 -0.1503864967
C -2.9962565405 -0.3612588599 0.9103437246
C -3.6336023227 0.9562462785 0.3116098067
C -3.1013026882 1.3441551827 -1.1177035649
O -3.7333855087 1.3384289272 -2.1942683078
O 5.8811841593 -0.0103551505 -0.719433573
O -1.7628500594 1.8475434078 -0.9575549881
O -2.0271524074 -0.8756379958 -1.3639731
C -1.1759187232 2.1317719247 -2.284602687
C -4.3112659295 -1.1822015295 1.2660799604
C -5.0431220237 -0.4864365542 2.4820495644
C -5.7234385609 0.7423988134 1.7717709463
C -5.1738880114 0.5770424822 0.3019998192
O -5.184113276 -0.8924447999 0.1058918273
H -2.3707643391 -0.1671218083 1.8001634977
H -3.4382186788 1.8103751823 0.984807564
H -4.1465807337 -2.2722051446 1.3730201248
H -5.7888782407 -1.1668951326 2.9226128337
H -4.3341264501 -0.1830098814 3.2691747271
H -6.8216726782 0.6552484336 1.7833353494
H -5.43992983 1.7072522077 2.221283277
H -5.7572001086 1.0758657779 -0.4961685483
O 2.5638805162 -1.6766711241 1.3062044466
C 6.7510107703 -1.1864749654 -0.9556735839
C 4.1313531833 1.8755852079 0.4904417717
C 3.3667969072 3.2459824136 0.3056495098
C 1.948218057 2.8809585534 0.8817589394
C 2.1704373729 1.3780669584 1.3119533323
O 3.5820608121 1.3421598503 1.7577661423
H 3.4706563404 1.3622859888 -1.5817519935
H 1.3557781555 0.7369280691 -0.6841020146
H 6.6261622358 -1.5852421095 -1.9833167263
H 5.2352527988 1.9413640739 0.5374171894
H 3.851027462 4.0390873226 0.8972033937
H 3.3310205738 3.5638180025 -0.7487256967
H 1.6961638035 3.499431965 1.75785213
H 1.1429554789 2.9816632354 0.1364422358
H 1.5020890438 1.0128842454 2.1155065367
H 6.5377390024 -2.0003905876 -0.2333151096
H 7.7886575987 -0.8302339874 -0.820189436
H -0.1808594281 2.5750783277 -2.0940728392
H -1.7950285574 2.8453039585 -2.866052737
H -1.0594716985 1.2005953469 -2.8767512678
H -1.0367023949 -2.7267881594 -1.5301802737
H -1.1754078877 -4.1713999525 -0.4205645718
H 0.8655798305 -3.1906661112 0.9209528639
H 1.2921387815 -3.6598936784 -0.7726964197
$end

$rem
JOBTYPE                   OPT
METHOD                    B3LYP
DFT_D                     d3_op
BASIS                     STO-3G
GEOM_OPT_MAX_CYCLES       100
GEOM_OPT_TOL_GRADIENT     300
GEOM_OPT_TOL_DISPLACEMENT 1200
GEOM_OPT_TOL_ENERGY       100
SYMMETRY                  False
THRESH                    12
SCF_CONVERGENCE           8
MAX_SUB_FILE_NUM          128
MEM_STATIC                400
MEM_TOTAL                 4000
$end
--------------------------------------------------------------

   16   -1510.2869404361      6.78E-09 Convergence criterion met
 Total energy in the final basis set = -1510.28694044
   14   -1510.2845608056      5.04E-09 Convergence criterion met
 Total energy in the final basis set = -1510.28456081
   14   -1510.2897036519      2.53E-09 Convergence criterion met
 Total energy in the final basis set = -1510.28970365
   14   -1510.2931785260      3.70E-09 Convergence criterion met
 Total energy in the final basis set = -1510.29317853
   14   -1510.2887283329      7.65E-09 Convergence criterion met
 Total energy in the final basis set = -1510.28872833
   14   -1510.2949663426      9.82E-09 Convergence criterion met
 Total energy in the final basis set = -1510.29496634
   13   -1510.2957219742      2.57E-09 Convergence criterion met
 Total energy in the final basis set = -1510.29572197
   14   -1510.2961285437      2.18E-09 Convergence criterion met
   12   -1510.3027100309      8.02E-09 Convergence criterion met
 Total energy in the final basis set = -1510.30271003
   11   -1510.3026953385      7.29E-09 Convergence criterion met
 Total energy in the final basis set = -1510.30269534
   11   -1510.3027107489      5.59E-09 Convergence criterion met
 Total energy in the final basis set = -1510.30271075
   11   -1510.3026984193      4.38E-09 Convergence criterion met
 Total energy in the final basis set = -1510.30269842
    9   -1510.3027023509      5.29E-09 Convergence criterion met
 Total energy in the final basis set = -1510.30270235
    8   -1510.3026996601      8.41E-09 Convergence criterion met
 Total energy in the final basis set = -1510.30269966

             Standard Nuclear Orientation (Angstroms)
    I     Atom           X                Y                Z
 ----------------------------------------------------------------
    1      O       3.5877591100    -1.4651221284     0.5567067176
    2      C       3.7638570103    -0.3939329474    -0.0674285675
    3      C       2.7453117740     0.7833345464    -0.2133686311
    4      C       1.2922447197     0.3782930917     0.2569693761
    5      C       1.1048044976    -1.1447550433     0.5688012205
    6      O       1.1723544021    -1.8488177198    -0.6912776250
    7      C       0.8133124777    -3.2705386300    -0.5124965428
    8      C      -0.6982879790    -3.4804012869    -0.9050289866
    9      O      -1.5454677113    -2.6698586240     0.0026228462
   10      C      -1.7422892803    -1.3588176545    -0.5265674044
   11      C      -2.3433971925    -0.4615524411     0.6032387414
   12      C      -2.5878017401     1.0276609606     0.1320701680
   13      C      -2.1845796998     1.3152980458    -1.3616093836
   14      O      -2.9390787264     1.4166121348    -2.3493025299
   15      O       4.9753569609    -0.0515278422    -0.7435476296
   16      O      -0.7757571477     1.6500031818    -1.3987855059
   17      O      -1.4834926204    -1.0092969789    -1.7019782362
   18      C      -0.3448696868     1.8809356785    -2.7948914257
   19      C      -3.8198658527    -0.9074457031     0.9880523961
   20      C      -4.2124365774    -0.2086521878     2.3489850267
   21      C      -4.4573493643     1.2708344528     1.8702393085
   22      C      -4.1583137037     1.1452892552     0.3255006712
   23      O      -4.6509930928    -0.2094722003    -0.0178831383
   24      H      -1.6650988808    -0.5161445991     1.4745013821
   25      H      -2.0385456881     1.7344746529     0.7784154967
   26      H      -3.9861058198    -2.0015048142     0.9493297263
   27      H      -5.1302739355    -0.6578401169     2.7606438196
   28      H      -3.4115620577    -0.2882944100     3.1015538620
   29      H      -5.5009181266     1.5817998638     2.0366437028
   30      H      -3.7900679339     1.9948330633     2.3643323540
   31      H      -4.6397285776     1.9035222316    -0.3217812829
   32      O       0.7997796121    -1.6759879385     1.6575282510
   33      C       5.9641961064    -1.1447705448    -0.5917482870
   34      C       3.0843609794     1.9336266369     0.8345720628
   35      C       2.2054129795     3.2013494652     0.4917360944
   36      C       0.7919735655     2.7474348440     1.0141111141
   37      C       1.1223569145     1.2942460138     1.5380313336
   38      O       2.4928854999     1.4199367271     2.0880619026
   39      H       2.7689125021     1.1579671809    -1.2522028009
   40      H       0.5313312842     0.6687470318    -0.5023851364
   41      H       5.6014577384    -2.0869612650    -1.0511630474
   42      H       4.1672998656     2.1287596396     0.9609602281
   43      H       2.5781729427     4.0845007621     1.0344903833
   44      H       2.2059734495     3.4230302565    -0.5874654512
   45      H       0.4326618254     3.3930042294     1.8307743931
   46      H       0.0429271449     2.7121721131     0.2033826847
   47      H       0.4370119360     0.8848725873     2.3054325020
   48      H       6.1962364370    -1.3403765461     0.4749735683
   49      H       6.8771382691    -0.8055070735    -1.1146444952
   50      H       0.7095439008     2.2086850350    -2.7412307967
   51      H      -0.9579448250     2.6645597854    -3.2838083823
   52      H      -0.4161475769     0.9474278707    -3.3896286303
   53      H      -0.8668186870    -3.1754861641    -1.9596150345
   54      H      -0.9927238355    -4.5395743413    -0.7597020434
   55      H       0.9673215798    -3.5677087410     0.5469355836
   56      H       1.4631546958    -3.8716870675    -1.1812597976
 ----------------------------------------------------------------

    9   -1510.3026991632      1.68E-09 Convergence criterion met
 Total energy in the final basis set = -1510.30269916
 Final energy is   -1510.30269916319
 **  OPTIMIZATION CONVERGED  **

                    Orbital Energies (a.u.)
 --------------------------------------------------------------

 Alpha MOs
 -- Occupied --
-18.942 -18.938 -18.938 -18.917 -18.889 -18.889 -18.880 -18.879
-18.876 -18.863 -10.109 -10.102 -10.100 -10.089 -10.074 -10.067
-10.066 -10.066 -10.062 -10.060 -10.056 -10.048 -10.041 -10.038
-10.034 -10.021 -10.020 -10.015 -10.015 -10.006  -1.024  -1.014
 -1.009  -0.997  -0.972  -0.964  -0.947  -0.938  -0.937  -0.926
 -0.766  -0.757  -0.727  -0.719  -0.712  -0.703  -0.694  -0.664
 -0.663  -0.617  -0.597  -0.576  -0.548  -0.541  -0.538  -0.531
 -0.514  -0.506  -0.489  -0.472  -0.469  -0.458  -0.451  -0.446
 -0.433  -0.427  -0.426  -0.416  -0.414  -0.414  -0.410  -0.402
 -0.398  -0.379  -0.374  -0.368  -0.359  -0.357  -0.352  -0.350
 -0.343  -0.340  -0.337  -0.334  -0.328  -0.327  -0.319  -0.315
 -0.309  -0.306  -0.302  -0.298  -0.295  -0.285  -0.280  -0.274
 -0.269  -0.255  -0.253  -0.249  -0.238  -0.236  -0.226  -0.194
 -0.180  -0.179  -0.165  -0.157  -0.154  -0.152  -0.146  -0.144
 -0.138

          Ground-State Mulliken Net Atomic Charges

     Atom                 Charge (a.u.)
  ----------------------------------------
      1 O                    -0.208023
      2 C                     0.214370
      3 C                    -0.077837
      4 C                    -0.097982
      5 C                     0.211890
      6 O                    -0.181215
      7 C                    -0.053513
      8 C                    -0.051903
      9 O                    -0.169449
     10 C                     0.214951
     11 C                    -0.080109
     12 C                    -0.083024
     13 C                     0.221220
     14 O                    -0.207951
     15 O                    -0.169527
     16 O                    -0.176675
     17 O                    -0.206495
     18 C                    -0.127338
     19 C                     0.025777
     20 C                    -0.143451
     21 C                    -0.144209
     22 C                     0.025522
     23 O                    -0.188315
     24 H                     0.093456
     25 H                     0.085321
     26 H                     0.087931
     27 H                     0.078980
     28 H                     0.076227
     29 H                     0.078574
     30 H                     0.073657
     31 H                     0.088193
     32 O                    -0.219397
     33 C                    -0.128277
     34 C                     0.025143
     35 C                    -0.143592
     36 C                    -0.152708
     37 C                     0.022254
     38 O                    -0.192345
     39 H                     0.083596
     40 H                     0.107736
     41 H                     0.089335
     42 H                     0.081784
     43 H                     0.075755
     44 H                     0.070389
     45 H                     0.070500
     46 H                     0.085262
     47 H                     0.080935
     48 H                     0.091190
     49 H                     0.090994
     50 H                     0.086435
     51 H                     0.091479
     52 H                     0.097088
     53 H                     0.098244
     54 H                     0.090573
     55 H                     0.102083
     56 H                     0.086489
  ----------------------------------------
  Sum of atomic charges =    -0.000000

                    Cartesian Multipole Moments
 -----------------------------------------------------------------
    Charge (ESU x 10^10)
                -0.0000
    Dipole Moment (Debye)
         X       1.3466      Y       0.4958      Z      -0.6795
       Tot       1.5878
    Quadrupole Moments (Debye-Ang)
        XX    -157.4459     XY      -1.8513     YY    -148.4184
        XZ     -15.9989     YZ       4.2085     ZZ    -165.9232

 Total job time:  100.68s(wall), 4801.17s(cpu)
        *  Thank you very much for using Q-Chem.  Have a nice day.  *
