 Q-Chem 5.0, Q-Chem, Inc., Pleasanton, CA (2017)
 Q-Chem 5.0.1 for Intel X86 EM64T Linux

User input:
--------------------------------------------------------------
$molecule
0  1
O 4.5115171191 -1.3832911852 -1.1831400872
C 4.8011309177 -0.309013297 -0.6120571522
C 3.8708540716 0.9450223763 -0.4473204966
C 2.3344723661 0.5834946776 -0.3249338367
C 2.0561003353 -0.9392014014 -0.071396824
O 1.0254322276 -1.3479602801 -0.9797967425
C 0.6904477886 -2.7796241947 -0.7852737005
C -0.824654182 -2.9277045464 -1.1375862721
O -1.6275963638 -2.3927065136 -0.0085649807
C -2.2694766338 -1.174482769 -0.3915238938
C -3.1069875726 -0.6486097373 0.8197408187
C -3.7137422586 0.790259551 0.5615699769
C -3.2196723794 1.4728622803 -0.7680186441
O -3.8928309138 1.7164153504 -1.7910593813
O 6.0829997869 -0.025668933 -0.0454241896
O -1.8606828587 1.8956938468 -0.5644999717
O -2.1918629498 -0.6651541533 -1.5331352457
C -1.3183277424 2.4399277792 -1.8281424704
C -4.4393076772 -1.505710586 0.9685813206
C -5.1308100396 -1.1336733382 2.3406465196
C -5.7701384642 0.2625866746 1.9945294004
C -5.2653647195 0.4636715133 0.5133706002
O -5.3239527813 -0.9047953257 -0.0538119595
H -2.4882149673 -0.6920625211 1.7335640832
H -3.4687402852 1.4642066814 1.4021438894
H -4.3037442847 -2.5895246159 0.7853818755
H -5.8993605278 -1.8791767782 2.5995188633
H -4.4031097017 -1.0757960645 3.1658051738
H -6.8706063924 0.2196441117 2.024434683
H -5.4285057099 1.0668947179 2.6654297188
H -5.8540937924 1.1633809528 -0.1111112063
O 2.5390281482 -1.6714338338 0.8188748383
C 6.9746176085 -1.1977837994 -0.2058296846
C 4.1024103969 1.7772558871 0.8863079883
C 3.535215013 3.2301177017 0.6479487955
C 1.9865624972 2.9491859169 0.6562310444
C 1.9532029599 1.403349206 0.9833076021
O 3.137971233 1.1933358248 1.8470767072
H 4.0371078285 1.5891860305 -1.3315295424
H 1.7560141743 0.9036880287 -1.2085775945
H 7.1316067977 -1.4481744993 -1.2749736108
H 5.1350126795 1.7185387491 1.2802471848
H 3.827356606 3.8967694926 1.4749709392
H 3.8859374801 3.6675339807 -0.3003713498
H 1.4719487118 3.5214638576 1.4441145481
H 1.5092420498 3.1747494889 -0.310687137
H 1.0331124944 1.0508855126 1.4883835782
H 6.5661645077 -2.0913029988 0.3088912429
H 7.9385890665 -0.9123769034 0.2539398537
H -0.2978510309 2.7969333859 -1.5974912119
H -1.9299333482 3.2825500922 -2.2104656339
H -1.2686759249 1.654305327 -2.6102171897
H -1.0662261837 -2.3562983616 -2.0598497822
H -1.0895937474 -3.9983462214 -1.2627137611
H 0.8997638384 -3.0858736955 0.2623113707
H 1.3059870492 -3.4070976128 -1.4677243153
$end

$rem
JOBTYPE                   OPT
METHOD                    B3LYP
DFT_D                     d3_op
BASIS                     STO-3G
GEOM_OPT_MAX_CYCLES       100
GEOM_OPT_TOL_GRADIENT     300
GEOM_OPT_TOL_DISPLACEMENT 1200
GEOM_OPT_TOL_ENERGY       100
SYMMETRY                  False
THRESH                    12
SCF_CONVERGENCE           8
MAX_SUB_FILE_NUM          128
MEM_STATIC                400
MEM_TOTAL                 4000
$end
--------------------------------------------------------------

   15   -1510.2861610648      9.23E-09 Convergence criterion met
 Total energy in the final basis set = -1510.28616106
   14   -1510.2710168915      3.90E-09 Convergence criterion met
 Total energy in the final basis set = -1510.27101689
   14   -1510.2871345972      1.74E-09 Convergence criterion met
 Total energy in the final basis set = -1510.28713460
   13   -1510.2883939312      9.52E-09 Convergence criterion met
 Total energy in the final basis set = -1510.28839393
   14   -1510.2898234678      5.53E-09 Convergence criterion met
 Total energy in the final basis set = -1510.28982347
   14   -1510.2891071135      5.54E-09 Convergence criterion met
 Total energy in the final basis set = -1510.28910711
   14   -1510.2912428436      1.68E-09 Convergence criterion met
 Total energy in the final basis set = -1510.29124284
   13   -1510.2927258875      5.54E-09 Convergence criterion met
   11   -1510.3025487175      3.42E-09 Convergence criterion met
 Total energy in the final basis set = -1510.30254872
    9   -1510.3025555230      8.41E-09 Convergence criterion met
 Total energy in the final basis set = -1510.30255552
   10   -1510.3025572436      9.04E-09 Convergence criterion met
 Total energy in the final basis set = -1510.30255724
   11   -1510.3025651851      4.72E-09 Convergence criterion met
 Total energy in the final basis set = -1510.30256519
   10   -1510.3025583477      3.63E-09 Convergence criterion met
 Total energy in the final basis set = -1510.30255835
   11   -1510.3025549846      3.52E-09 Convergence criterion met
 Total energy in the final basis set = -1510.30255498

             Standard Nuclear Orientation (Angstroms)
    I     Atom           X                Y                Z
 ----------------------------------------------------------------
    1      O       3.5896951139    -1.5803199342     0.4677116885
    2      C       3.7823804203    -0.4469425242    -0.0281282431
    3      C       2.7757679010     0.7491786314    -0.0523817522
    4      C       1.3099774451     0.3071401941     0.3369160006
    5      C       1.1077580371    -1.2396538867     0.4771006310
    6      O       1.1822636507    -1.8034061430    -0.8514820061
    7      C       0.8001856370    -3.2303458794    -0.8298888528
    8      C      -0.7107029414    -3.3707432956    -1.2541598478
    9      O      -1.5520851743    -2.6274345928    -0.2852596582
   10      C      -1.7176192975    -1.2710627149    -0.6976043380
   11      C      -2.3388620602    -0.4697963458     0.4924518240
   12      C      -2.5740141612     1.0532978302     0.1398853001
   13      C      -2.0989919892     1.4741831429    -1.2995014304
   14      O      -2.8040138137     1.6858900886    -2.3061286519
   15      O       5.0057896267    -0.0414116379    -0.6458605561
   16      O      -0.6848197614     1.7824421592    -1.2386146041
   17      O      -1.4258802780    -0.8216567603    -1.8304752897
   18      C      -0.1853555486     2.1449628728    -2.5829095340
   19      C      -3.8241040677    -0.9432830435     0.8026273468
   20      C      -4.2605422204    -0.3413235182     2.1957597189
   21      C      -4.5128401168     1.1642097255     1.8114982433
   22      C      -4.1527534496     1.1498080944     0.2746722945
   23      O      -4.6249190764    -0.1791778798    -0.1797654739
   24      H      -1.6800713279    -0.5966494365     1.3709865852
   25      H      -2.0608884078     1.7022346173     0.8712209336
   26      H      -3.9844117704    -2.0324616643     0.6833364351
   27      H      -5.1819574491    -0.8280081411     2.5528312007
   28      H      -3.4774667834    -0.4619443225     2.9613764106
   29      H      -5.5676285509     1.4468399623     1.9567829857
   30      H      -3.8783669990     1.8622020243     2.3806053757
   31      H      -4.6124273418     1.9500536034    -0.3369407120
   32      O       0.7908650584    -1.8846134146     1.4989662812
   33      C       5.9852036397    -1.1525257722    -0.6013915687
   34      C       3.1014750869     1.7632870296     1.1311194207
   35      C       2.2440454396     3.0733794807     0.9212115172
   36      C       0.8141120120     2.5799398484     1.3539011123
   37      C       1.1164492834     1.0714493381     1.7111861886
   38      O       2.4753663898     1.1130025907     2.3023133163
   39      H       2.8241115549     1.2433356284    -1.0388283888
   40      H       0.5690130869     0.6860755231    -0.4034031301
   41      H       5.6070226991    -2.0495259312    -1.1328978992
   42      H       4.1829854573     1.9285845183     1.3039643096
   43      H       2.6121698756     3.8810598686     1.5737677296
   44      H       2.2726750982     3.4221077929    -0.1236122236
   45      H       0.4398773248     3.1305271435     2.2311159390
   46      H       0.0856576796     2.6489274360     0.5272533005
   47      H       0.4082183315     0.5834410094     2.4084770296
   48      H       6.2296057789    -1.4391370543     0.4418885495
   49      H       6.8948533109    -0.7782243959    -1.1057866678
   50      H       0.8723708982     2.4370283449    -2.4490934583
   51      H      -0.7575088294     2.9913111348    -3.0134522636
   52      H      -0.2493135597     1.2808069127    -3.2751664644
   53      H      -0.8609057598    -2.9667849014    -2.2778846751
   54      H      -1.0290945610    -4.4319153791    -1.2092798290
   55      H       0.9401717449    -3.6411804259     0.1927718660
   56      H       1.4465274291    -3.7668628901    -1.5545008880
 ----------------------------------------------------------------

    9   -1510.3025549648      2.98E-09 Convergence criterion met
 Total energy in the final basis set = -1510.30255496
 Final energy is   -1510.30255496479
 **  OPTIMIZATION CONVERGED  **

                    Orbital Energies (a.u.)
 --------------------------------------------------------------

 Alpha MOs
 -- Occupied --
-18.942 -18.938 -18.937 -18.917 -18.889 -18.889 -18.880 -18.879
-18.876 -18.863 -10.109 -10.102 -10.100 -10.089 -10.074 -10.066
-10.066 -10.066 -10.062 -10.060 -10.056 -10.049 -10.041 -10.038
-10.034 -10.021 -10.020 -10.015 -10.015 -10.007  -1.024  -1.014
 -1.009  -0.997  -0.972  -0.964  -0.947  -0.938  -0.937  -0.926
 -0.766  -0.757  -0.727  -0.719  -0.713  -0.703  -0.694  -0.664
 -0.663  -0.617  -0.597  -0.576  -0.548  -0.541  -0.538  -0.531
 -0.514  -0.506  -0.489  -0.472  -0.469  -0.459  -0.452  -0.446
 -0.433  -0.427  -0.425  -0.417  -0.414  -0.413  -0.410  -0.402
 -0.398  -0.379  -0.374  -0.368  -0.359  -0.357  -0.352  -0.350
 -0.343  -0.340  -0.337  -0.334  -0.328  -0.327  -0.319  -0.315
 -0.309  -0.306  -0.302  -0.298  -0.295  -0.285  -0.280  -0.274
 -0.269  -0.255  -0.253  -0.249  -0.238  -0.236  -0.226  -0.194
 -0.180  -0.179  -0.165  -0.157  -0.154  -0.152  -0.146  -0.144
 -0.138

          Ground-State Mulliken Net Atomic Charges

     Atom                 Charge (a.u.)
  ----------------------------------------
      1 O                    -0.207878
      2 C                     0.214230
      3 C                    -0.077916
      4 C                    -0.097923
      5 C                     0.211579
      6 O                    -0.181140
      7 C                    -0.053618
      8 C                    -0.051926
      9 O                    -0.169269
     10 C                     0.215201
     11 C                    -0.079674
     12 C                    -0.083132
     13 C                     0.221174
     14 O                    -0.208104
     15 O                    -0.169590
     16 O                    -0.176953
     17 O                    -0.206274
     18 C                    -0.127337
     19 C                     0.025713
     20 C                    -0.143656
     21 C                    -0.143996
     22 C                     0.025384
     23 O                    -0.188628
     24 H                     0.092759
     25 H                     0.085118
     26 H                     0.088145
     27 H                     0.079058
     28 H                     0.076061
     29 H                     0.078605
     30 H                     0.073572
     31 H                     0.088515
     32 O                    -0.218877
     33 C                    -0.128288
     34 C                     0.025127
     35 C                    -0.143479
     36 C                    -0.152202
     37 C                     0.022324
     38 O                    -0.192021
     39 H                     0.083468
     40 H                     0.107572
     41 H                     0.089889
     42 H                     0.081779
     43 H                     0.075833
     44 H                     0.070555
     45 H                     0.070788
     46 H                     0.084651
     47 H                     0.081070
     48 H                     0.090596
     49 H                     0.090941
     50 H                     0.086318
     51 H                     0.091233
     52 H                     0.097058
     53 H                     0.098267
     54 H                     0.090625
     55 H                     0.102142
     56 H                     0.086528
  ----------------------------------------
  Sum of atomic charges =    -0.000000

                    Cartesian Multipole Moments
 -----------------------------------------------------------------
    Charge (ESU x 10^10)
                -0.0000
    Dipole Moment (Debye)
         X       1.3039      Y       0.6286      Z      -0.5574
       Tot       1.5511
    Quadrupole Moments (Debye-Ang)
        XX    -156.3329     XY      -0.1894     YY    -149.5466
        XZ     -15.9624     YZ       6.3134     ZZ    -165.9517

 Total job time:  105.76s(wall), 5036.67s(cpu)
        *  Thank you very much for using Q-Chem.  Have a nice day.  *
