 Q-Chem 5.0, Q-Chem, Inc., Pleasanton, CA (2017)
 Q-Chem 5.0.1 for Intel X86 EM64T Linux

User input:
--------------------------------------------------------------
$molecule
0  1
O -3.94934 -3.66094 2.70899
C -3.26408 -4.56952 2.26188
C -3.36658 -6.02376 2.66595
C -4.75477 -6.54337 3.07434
C -5.91734 -5.59895 2.86316
O -6.69465 -5.56164 3.98558
C -7.83094 -4.70076 3.85529
C -8.99107 -5.23151 4.69107
O -9.59854 -6.35217 4.02927
C -9.40108 -7.55617 4.62133
C -10.06806 -8.69173 3.88221
C -9.73332 -10.09383 4.41168
C -9.09184 -10.1463 5.7837
O -9.61597 -10.59106 6.79466
O -2.18507 -4.23713 1.50344
O -7.74893 -9.91613 5.80957
O -8.70848 -7.65628 5.62153
C -6.95755 -10.03108 6.93367
C -11.60187 -8.68287 3.97722
C -12.18851 -9.43578 2.78539
C -11.79621 -10.8583 3.13039
C -11.17462 -10.6445 4.51682
O -11.88655 -9.55077 5.04532
H -9.74943 -8.59736 2.81879
H -9.11087 -10.70366 3.72005
H -12.03514 -7.66113 4.04487
H -13.29613 -9.3441 2.85768
H -11.85674 -9.08216 1.78547
H -12.72375 -11.46868 3.20234
H -11.07676 -11.33683 2.43116
H -11.2254 -11.58838 5.1033
O -6.17775 -5.05499 1.79465
C -1.88236 -2.95459 1.09594
C -3.10034 -6.96038 1.45809
C -2.67817 -8.34597 1.9492
C -3.99759 -8.87517 2.46453
C -4.92216 -7.71369 2.09124
O -4.36849 -7.20447 0.90571
H -2.57065 -6.20671 3.42162
H -4.76667 -6.90915 4.12705
H -1.71724 -2.30029 1.97846
H -2.33316 -6.5776 0.75107
H -2.38557 -8.94288 1.05558
H -1.84293 -8.34971 2.68212
H -4.26774 -9.78121 1.87744
H -4.02752 -9.10547 3.55159
H -5.97635 -8.06549 2.0271
H -2.70816 -2.54674 0.4745
H -0.95462 -2.97556 0.48821
H -5.91001 -9.78142 6.66727
H -6.9902 -11.07193 7.32061
H -7.30501 -9.32659 7.71931
H -8.65034 -5.39444 5.73758
H -9.76999 -4.44185 4.7519
H -8.19975 -4.5476 2.81541
H -7.54282 -3.71182 4.27345
$end

$opt
CONSTRAINT
tors           1           2           3           4     +31.807
tors           3           4           5           6    -132.748
tors           4           5           6           7    -179.131
tors           5           6           7           8    +148.793
tors           6           7           8           9     -76.301
tors           7           8           9          10    +110.044
tors           8           9          10          11    +179.770
tors           9          10          11          12    +172.825
tors          11          12          13          14    +111.692
ENDCONSTRAINT
$end

$rem
JOBTYPE                   OPT
METHOD                    B3LYP
DFT_D                     d3_op
BASIS                     STO-3G
GEOM_OPT_MAX_CYCLES       100
GEOM_OPT_TOL_GRADIENT     300
GEOM_OPT_TOL_DISPLACEMENT 1200
GEOM_OPT_TOL_ENERGY       100
SYMMETRY                  False
THRESH                    12
SCF_CONVERGENCE           8
MAX_SUB_FILE_NUM          128
MEM_STATIC                400
MEM_TOTAL                 4000
$end
--------------------------------------------------------------

   15   -1510.1520759701      6.37E-09 Convergence criterion met
 Total energy in the final basis set = -1510.15207597
   14   -1510.2218075490      5.27E-09 Convergence criterion met
 Total energy in the final basis set = -1510.22180755
   13   -1510.2587152480      8.23E-09 Convergence criterion met
 Total energy in the final basis set = -1510.25871525
   14   -1510.2744860728      2.05E-09 Convergence criterion met
 Total energy in the final basis set = -1510.27448607
   13   -1510.2804246727      8.10E-09 Convergence criterion met
 Total energy in the final basis set = -1510.28042467
   13   -1510.2831346927      3.64E-09 Convergence criterion met
 Total energy in the final basis set = -1510.28313469
   13   -1510.2844152815      2.89E-09 Convergence criterion met
 Total energy in the final basis set = -1510.28441528
   12   -1510.2850156434      8.96E-09 Convergence criterion met
   11   -1510.2861370881      5.61E-09 Convergence criterion met
 Total energy in the final basis set = -1510.28613709
   10   -1510.2861564717      7.57E-09 Convergence criterion met
 Total energy in the final basis set = -1510.28615647
   10   -1510.2861693255      7.89E-09 Convergence criterion met
 Total energy in the final basis set = -1510.28616933
    9   -1510.2861746393      7.96E-09 Convergence criterion met
 Total energy in the final basis set = -1510.28617464
    9   -1510.2861761744      5.01E-09 Convergence criterion met
 Total energy in the final basis set = -1510.28617617
    9   -1510.2861776336      2.63E-09 Convergence criterion met
 Total energy in the final basis set = -1510.28617763

             Standard Nuclear Orientation (Angstroms)
    I     Atom           X                Y                Z
 ----------------------------------------------------------------
    1      O       4.5115171191    -1.3832911852    -1.1831400872
    2      C       4.8011309177    -0.3090132970    -0.6120571522
    3      C       3.8708540716     0.9450223763    -0.4473204966
    4      C       2.3344723661     0.5834946776    -0.3249338367
    5      C       2.0561003353    -0.9392014014    -0.0713968240
    6      O       1.0254322276    -1.3479602801    -0.9797967425
    7      C       0.6904477886    -2.7796241947    -0.7852737005
    8      C      -0.8246541820    -2.9277045464    -1.1375862721
    9      O      -1.6275963638    -2.3927065136    -0.0085649807
   10      C      -2.2694766338    -1.1744827690    -0.3915238938
   11      C      -3.1069875726    -0.6486097373     0.8197408187
   12      C      -3.7137422586     0.7902595510     0.5615699769
   13      C      -3.2196723794     1.4728622803    -0.7680186441
   14      O      -3.8928309138     1.7164153504    -1.7910593813
   15      O       6.0829997869    -0.0256689330    -0.0454241896
   16      O      -1.8606828587     1.8956938468    -0.5644999717
   17      O      -2.1918629498    -0.6651541533    -1.5331352457
   18      C      -1.3183277424     2.4399277792    -1.8281424704
   19      C      -4.4393076772    -1.5057105860     0.9685813206
   20      C      -5.1308100396    -1.1336733382     2.3406465196
   21      C      -5.7701384642     0.2625866746     1.9945294004
   22      C      -5.2653647195     0.4636715133     0.5133706002
   23      O      -5.3239527813    -0.9047953257    -0.0538119595
   24      H      -2.4882149673    -0.6920625211     1.7335640832
   25      H      -3.4687402852     1.4642066814     1.4021438894
   26      H      -4.3037442847    -2.5895246159     0.7853818755
   27      H      -5.8993605278    -1.8791767782     2.5995188633
   28      H      -4.4031097017    -1.0757960645     3.1658051738
   29      H      -6.8706063924     0.2196441117     2.0244346830
   30      H      -5.4285057099     1.0668947179     2.6654297188
   31      H      -5.8540937924     1.1633809528    -0.1111112063
   32      O       2.5390281482    -1.6714338338     0.8188748383
   33      C       6.9746176085    -1.1977837994    -0.2058296846
   34      C       4.1024103969     1.7772558871     0.8863079883
   35      C       3.5352150130     3.2301177017     0.6479487955
   36      C       1.9865624972     2.9491859169     0.6562310444
   37      C       1.9532029599     1.4033492060     0.9833076021
   38      O       3.1379712330     1.1933358248     1.8470767072
   39      H       4.0371078285     1.5891860305    -1.3315295424
   40      H       1.7560141743     0.9036880287    -1.2085775945
   41      H       7.1316067977    -1.4481744993    -1.2749736108
   42      H       5.1350126795     1.7185387491     1.2802471848
   43      H       3.8273566060     3.8967694926     1.4749709392
   44      H       3.8859374801     3.6675339807    -0.3003713498
   45      H       1.4719487118     3.5214638576     1.4441145481
   46      H       1.5092420498     3.1747494889    -0.3106871370
   47      H       1.0331124944     1.0508855126     1.4883835782
   48      H       6.5661645077    -2.0913029988     0.3088912429
   49      H       7.9385890665    -0.9123769034     0.2539398537
   50      H      -0.2978510309     2.7969333859    -1.5974912119
   51      H      -1.9299333482     3.2825500922    -2.2104656339
   52      H      -1.2686759249     1.6543053270    -2.6102171897
   53      H      -1.0662261837    -2.3562983616    -2.0598497822
   54      H      -1.0895937474    -3.9983462214    -1.2627137611
   55      H       0.8997638384    -3.0858736955     0.2623113707
   56      H       1.3059870492    -3.4070976128    -1.4677243153
 ----------------------------------------------------------------

    9   -1510.2861783413      1.83E-09 Convergence criterion met
 Total energy in the final basis set = -1510.28617834
 Final energy is   -1510.28617834130
 **  OPTIMIZATION CONVERGED  **

                    Orbital Energies (a.u.)
 --------------------------------------------------------------

 Alpha MOs
 -- Occupied --
-18.939 -18.937 -18.927 -18.919 -18.887 -18.886 -18.885 -18.875
-18.868 -18.861 -10.106 -10.101 -10.094 -10.090 -10.073 -10.069
-10.065 -10.061 -10.060 -10.058 -10.056 -10.055 -10.040 -10.038
-10.035 -10.033 -10.021 -10.020 -10.019 -10.019  -1.020  -1.013
 -1.005  -0.997  -0.970  -0.969  -0.943  -0.938  -0.929  -0.924
 -0.763  -0.762  -0.728  -0.722  -0.714  -0.706  -0.697  -0.662
 -0.655  -0.617  -0.597  -0.576  -0.545  -0.543  -0.537  -0.536
 -0.514  -0.511  -0.486  -0.473  -0.462  -0.455  -0.453  -0.450
 -0.434  -0.431  -0.421  -0.415  -0.412  -0.411  -0.404  -0.403
 -0.399  -0.377  -0.373  -0.365  -0.360  -0.355  -0.353  -0.349
 -0.342  -0.339  -0.338  -0.332  -0.329  -0.324  -0.320  -0.311
 -0.311  -0.304  -0.303  -0.301  -0.293  -0.286  -0.276  -0.275
 -0.271  -0.256  -0.253  -0.246  -0.245  -0.234  -0.233  -0.185
 -0.179  -0.168  -0.164  -0.162  -0.156  -0.147  -0.144  -0.142
 -0.141

          Ground-State Mulliken Net Atomic Charges

     Atom                 Charge (a.u.)
  ----------------------------------------
      1 O                    -0.213423
      2 C                     0.212932
      3 C                    -0.079144
      4 C                    -0.078907
      5 C                     0.213100
      6 O                    -0.174412
      7 C                    -0.051474
      8 C                    -0.053841
      9 O                    -0.172902
     10 C                     0.217456
     11 C                    -0.077462
     12 C                    -0.081373
     13 C                     0.216501
     14 O                    -0.215140
     15 O                    -0.169641
     16 O                    -0.178401
     17 O                    -0.206505
     18 C                    -0.128249
     19 C                     0.025170
     20 C                    -0.143989
     21 C                    -0.143672
     22 C                     0.024625
     23 O                    -0.189395
     24 H                     0.087523
     25 H                     0.083004
     26 H                     0.084667
     27 H                     0.078276
     28 H                     0.073916
     29 H                     0.078102
     30 H                     0.073207
     31 H                     0.090047
     32 O                    -0.214007
     33 C                    -0.127667
     34 C                     0.023866
     35 C                    -0.143372
     36 C                    -0.143357
     37 C                     0.026268
     38 O                    -0.187535
     39 H                     0.084021
     40 H                     0.086752
     41 H                     0.088737
     42 H                     0.092246
     43 H                     0.077994
     44 H                     0.072747
     45 H                     0.078820
     46 H                     0.071322
     47 H                     0.084102
     48 H                     0.093103
     49 H                     0.090873
     50 H                     0.080408
     51 H                     0.087336
     52 H                     0.093280
     53 H                     0.107614
     54 H                     0.087932
     55 H                     0.100754
     56 H                     0.087165
  ----------------------------------------
  Sum of atomic charges =    -0.000000

                    Cartesian Multipole Moments
 -----------------------------------------------------------------
    Charge (ESU x 10^10)
                -0.0000
    Dipole Moment (Debye)
         X       1.5159      Y       0.7307      Z       0.8358
       Tot       1.8789
    Quadrupole Moments (Debye-Ang)
        XX    -156.3388     XY       4.3703     YY    -150.2507
        XZ     -17.8162     YZ       1.4216     ZZ    -163.5859

 Total job time:  55.27s(wall), 2628.72s(cpu)
        *  Thank you very much for using Q-Chem.  Have a nice day.  *
