 Q-Chem 5.0, Q-Chem, Inc., Pleasanton, CA (2017)
 Q-Chem 5.0.1 for Intel X86 EM64T Linux

User input:
--------------------------------------------------------------
$molecule
0  1
O 4.2425479902 -1.4219903749 -0.9866146776
C 4.4938279567 -0.3024027159 -0.4875241467
C 3.5062424437 0.9161741605 -0.4059497412
C 2.0078848807 0.4689664595 -0.1518122403
C 1.8270074665 -1.057811958 0.1339618525
O 0.925529705 -1.6083248871 -0.8435656197
C 0.6387102528 -3.0185964453 -0.4933637977
C -0.8711750821 -3.3118965877 -0.787507279
O -1.7072737035 -2.5956112797 0.2100007367
C -2.0679353712 -1.3064203946 -0.3050882638
C -2.9816323657 -0.5860618087 0.7362507559
C -3.2889000681 0.9193893791 0.3521489911
C -2.6669955332 1.4197842013 -1.0078140929
O -3.323041993 1.8214087406 -1.9938046058
O 5.7652985735 0.064582496 0.0506514098
O -1.2455610298 1.6138412563 -0.8813350385
O -1.7990428446 -0.9045586126 -1.4602596541
C -0.7236407868 2.0613581142 -2.1949360881
C -4.4511054864 -1.199913092 0.7461346649
C -5.180534409 -0.7029186661 2.0567629116
C -5.4875629975 0.7951672839 1.6818670847
C -4.8691472999 0.8804186289 0.2327784046
O -5.1334976283 -0.4625311044 -0.3380589955
H -2.5144707568 -0.6662273601 1.7340871012
H -2.9503436693 1.6006530187 1.1541375195
H -4.4909138342 -2.2921183724 0.5671672155
H -6.1056257556 -1.2770604992 2.2251494881
H -4.538946157 -0.7960517206 2.9475334207
H -6.5714551587 0.9890872431 1.6501867161
H -5.0203973073 1.5115595399 2.3763822534
H -5.284311234 1.6650505754 -0.4288625346
O 2.2734427983 -1.6997534642 1.1104486891
C 6.7000634062 -1.0812149368 -0.0423072778
C 3.7548979757 1.8729025212 0.834547907
C 2.9949493389 3.2327526042 0.5643821677
C 1.5047665029 2.8071457669 0.8364967789
C 1.683048817 1.2792321033 1.1813349019
O 2.967737811 1.2408145843 1.917745963
H 3.5878854539 1.4729255041 -1.3585390866
H 1.3416452179 0.7467019672 -0.9843284491
H 6.8759454856 -1.3792459991 -1.0962143392
H 4.8186799502 1.9641072098 1.1254587614
H 3.3291847399 4.0098671157 1.2700706988
H 3.1538999764 3.5978442576 -0.4628222788
H 1.0852461245 3.3426612252 1.7028791017
H 0.8402738872 2.963038617 -0.0263103812
H 0.8718564046 0.8381051169 1.7918514625
H 6.3185984915 -1.9615090289 0.5139876104
H 7.6486692643 -0.7377020905 0.4094498646
H 0.3310430092 2.349598903 -2.0376954015
H -1.2925150906 2.9293319781 -2.5847808124
H -0.7738011905 1.2413206366 -2.9402380897
H -1.1331648583 -2.9839876508 -1.8156772573
H -1.0782323022 -4.3938530367 -0.6596220845
H 0.8871064887 -3.1880482893 0.5767227343
H 1.2746661281 -3.6904853059 -1.1118239543
$end

$rem
JOBTYPE                   OPT
METHOD                    B3LYP
DFT_D                     d3_op
BASIS                     STO-3G
GEOM_OPT_MAX_CYCLES       100
GEOM_OPT_TOL_GRADIENT     300
GEOM_OPT_TOL_DISPLACEMENT 1200
GEOM_OPT_TOL_ENERGY       100
SYMMETRY                  False
THRESH                    12
SCF_CONVERGENCE           8
MAX_SUB_FILE_NUM          128
MEM_STATIC                400
MEM_TOTAL                 4000
$end
--------------------------------------------------------------

   16   -1510.2855578365      6.09E-09 Convergence criterion met
 Total energy in the final basis set = -1510.28555784
   14   -1510.2858756753      5.44E-09 Convergence criterion met
 Total energy in the final basis set = -1510.28587568
   14   -1510.2902567679      4.97E-09 Convergence criterion met
 Total energy in the final basis set = -1510.29025677
   14   -1510.2829858855      5.44E-09 Convergence criterion met
 Total energy in the final basis set = -1510.28298589
   14   -1510.2927011659      4.04E-09 Convergence criterion met
 Total energy in the final basis set = -1510.29270117
   13   -1510.2938335702      9.22E-09 Convergence criterion met
 Total energy in the final basis set = -1510.29383357
   14   -1510.2947142430      4.16E-09 Convergence criterion met
 Total energy in the final basis set = -1510.29471424
   13   -1510.2963065858      9.77E-09 Convergence criterion met
   13   -1510.3024032578      3.20E-09 Convergence criterion met
 Total energy in the final basis set = -1510.30240326
   13   -1510.3026299839      3.40E-09 Convergence criterion met
 Total energy in the final basis set = -1510.30262998
   12   -1510.3026155322      7.28E-09 Convergence criterion met
 Total energy in the final basis set = -1510.30261553
   12   -1510.3026732022      5.70E-09 Convergence criterion met
 Total energy in the final basis set = -1510.30267320
   12   -1510.3026742034      2.63E-09 Convergence criterion met
 Total energy in the final basis set = -1510.30267420
   11   -1510.3026793818      7.50E-09 Convergence criterion met
 Total energy in the final basis set = -1510.30267938

             Standard Nuclear Orientation (Angstroms)
    I     Atom           X                Y                Z
 ----------------------------------------------------------------
    1      O       3.5678192304    -1.5012255208     0.6591830743
    2      C       3.7604835214    -0.4249268361     0.0490687863
    3      C       2.7508593069     0.7588414440    -0.1048606999
    4      C       1.2836427640     0.3535972755     0.3186942525
    5      C       1.0809413505    -1.1727388862     0.6024780994
    6      O       1.1853748694    -1.8598934809    -0.6644023584
    7      C       0.8131075652    -3.2818226475    -0.5158923411
    8      C      -0.6873691897    -3.4767855472    -0.9555348080
    9      O      -1.5559788660    -2.6693535519    -0.0655459757
   10      C      -1.7318966824    -1.3534801644    -0.5896516350
   11      C      -2.3654671146    -0.4627514614     0.5276987426
   12      C      -2.5973039283     1.0279836898     0.0553617574
   13      C      -2.1292290188     1.3306899405    -1.4162517353
   14      O      -2.8401985994     1.4516468443    -2.4336537069
   15      O       4.9858201438    -0.0816351986    -0.6015033358
   16      O      -0.7182352071     1.6571799844    -1.3887980455
   17      O      -1.4355722824    -0.9951564743    -1.7535690551
   18      C      -0.2276980048     1.9086724301    -2.7615244696
   19      C      -3.8530438726    -0.9113665173     0.8630890709
   20      C      -4.2968661170    -0.2085754694     2.2062849215
   21      C      -4.5379028446     1.2666853873     1.7122082005
   22      C      -4.1752468765     1.1376650623     0.1816623050
   23      O      -4.6484285742    -0.2201762525    -0.1760096593
   24      H      -1.7133273321    -0.5211656426     1.4185035211
   25      H      -2.0808731997     1.7327396843     0.7305216921
   26      H      -4.0142429387    -2.0061374927     0.8228240842
   27      H      -5.2239315188    -0.6635557925     2.5898215087
   28      H      -3.5207038374    -0.2776560614     2.9853679989
   29      H      -5.5907376274     1.5665345456     1.8350956685
   30      H      -3.8989349350     1.9998132332     2.2296537700
   31      H      -4.6321031326     1.8915928980    -0.4880835927
   32      O       0.7421280415    -1.7179143530     1.6741548955
   33      C       5.9663547581    -1.1814996953    -0.4441043347
   34      C       3.0650753135     1.8910851633     0.9699107542
   35      C       2.2014576626     3.1679617804     0.6219234176
   36      C       0.7720439419     2.7132287397     1.0979702994
   37      C       1.0812517847     1.2506842311     1.6083579508
   38      O       2.4364402341     1.3614317148     2.1984592513
   39      H       2.8045540381     1.1496841011    -1.1365134737
   40      H       0.5463901896     0.6594030906    -0.4578765037
   41      H       5.6046227993    -2.1184428763    -0.9148669754
   42      H       4.1447708308     2.0796333125     1.1297874699
   43      H       2.5626779334     4.0412214714     1.1879745928
   44      H       2.2327777244     3.4055592389    -0.4534308865
   45      H       0.3929483890     3.3479795151     1.9141451297
   46      H       0.0458198525     2.6944179242     0.2662778594
   47      H       0.3725965839     0.8323891194     2.3493215645
   48      H       6.1829713822    -1.3858021718     0.6242501056
   49      H       6.8881961251    -0.8437640565    -0.9521845736
   50      H       0.8255287312     2.2279975092    -2.6579804287
   51      H      -0.8144882865     2.7050139017    -3.2620769858
   52      H      -0.2799455100     0.9861892460    -3.3749785404
   53      H      -0.8219134023    -3.1591847197    -2.0112945533
   54      H      -0.9933791911    -4.5352430898    -0.8306440808
   55      H       0.9346809830    -3.5942024230     0.5433695081
   56      H       1.4787514761    -3.8777012345    -1.1737082620
 ----------------------------------------------------------------

    9   -1510.3026793785      5.94E-09 Convergence criterion met
 Total energy in the final basis set = -1510.30267938
 Final energy is   -1510.30267937846
 **  OPTIMIZATION CONVERGED  **

                    Orbital Energies (a.u.)
 --------------------------------------------------------------

 Alpha MOs
 -- Occupied --
-18.942 -18.938 -18.938 -18.917 -18.889 -18.889 -18.880 -18.879
-18.876 -18.863 -10.109 -10.103 -10.100 -10.089 -10.074 -10.066
-10.066 -10.066 -10.062 -10.060 -10.056 -10.048 -10.041 -10.038
-10.034 -10.021 -10.020 -10.015 -10.015 -10.007  -1.024  -1.014
 -1.009  -0.997  -0.972  -0.964  -0.947  -0.938  -0.937  -0.926
 -0.766  -0.757  -0.727  -0.719  -0.712  -0.703  -0.694  -0.664
 -0.663  -0.617  -0.597  -0.576  -0.548  -0.541  -0.538  -0.531
 -0.514  -0.506  -0.489  -0.472  -0.469  -0.459  -0.452  -0.446
 -0.433  -0.427  -0.426  -0.417  -0.414  -0.413  -0.410  -0.402
 -0.398  -0.379  -0.374  -0.368  -0.359  -0.357  -0.352  -0.350
 -0.343  -0.340  -0.337  -0.334  -0.328  -0.327  -0.319  -0.315
 -0.309  -0.306  -0.302  -0.298  -0.295  -0.285  -0.280  -0.275
 -0.269  -0.255  -0.253  -0.249  -0.238  -0.236  -0.226  -0.194
 -0.180  -0.179  -0.165  -0.157  -0.154  -0.152  -0.146  -0.144
 -0.138

          Ground-State Mulliken Net Atomic Charges

     Atom                 Charge (a.u.)
  ----------------------------------------
      1 O                    -0.208148
      2 C                     0.214264
      3 C                    -0.077876
      4 C                    -0.098142
      5 C                     0.211771
      6 O                    -0.181143
      7 C                    -0.053539
      8 C                    -0.051931
      9 O                    -0.169342
     10 C                     0.215124
     11 C                    -0.079939
     12 C                    -0.083040
     13 C                     0.221218
     14 O                    -0.208084
     15 O                    -0.169610
     16 O                    -0.176754
     17 O                    -0.206335
     18 C                    -0.127328
     19 C                     0.025745
     20 C                    -0.143537
     21 C                    -0.144124
     22 C                     0.025468
     23 O                    -0.188492
     24 H                     0.093307
     25 H                     0.085238
     26 H                     0.088010
     27 H                     0.079019
     28 H                     0.076155
     29 H                     0.078592
     30 H                     0.073631
     31 H                     0.088391
     32 O                    -0.219100
     33 C                    -0.128293
     34 C                     0.025167
     35 C                    -0.143566
     36 C                    -0.152475
     37 C                     0.022270
     38 O                    -0.192224
     39 H                     0.083485
     40 H                     0.107821
     41 H                     0.089362
     42 H                     0.081721
     43 H                     0.075777
     44 H                     0.070359
     45 H                     0.070609
     46 H                     0.084958
     47 H                     0.081027
     48 H                     0.091039
     49 H                     0.090942
     50 H                     0.086430
     51 H                     0.091471
     52 H                     0.097028
     53 H                     0.098342
     54 H                     0.090624
     55 H                     0.102117
     56 H                     0.086540
  ----------------------------------------
  Sum of atomic charges =     0.000000

                    Cartesian Multipole Moments
 -----------------------------------------------------------------
    Charge (ESU x 10^10)
                -0.0000
    Dipole Moment (Debye)
         X       1.3269      Y       0.5223      Z      -0.6311
       Tot       1.5594
    Quadrupole Moments (Debye-Ang)
        XX    -156.3998     XY      -1.8067     YY    -148.5089
        XZ     -15.8153     YZ       4.5139     ZZ    -167.0107

 Total job time:  89.80s(wall), 4282.12s(cpu)
        *  Thank you very much for using Q-Chem.  Have a nice day.  *
