 Q-Chem 5.0, Q-Chem, Inc., Pleasanton, CA (2017)
 Q-Chem 5.0.1 for Intel X86 EM64T Linux

User input:
--------------------------------------------------------------
$molecule
0  1
O -3.94934 -3.66094 2.70899
C -3.26408 -4.56952 2.26188
C -3.36658 -6.02376 2.66595
C -4.76948 -6.56829 2.98092
C -5.93244 -5.64732 2.68525
O -6.65638 -5.43391 3.82358
C -7.85194 -4.67973 3.59751
C -8.98748 -5.22425 4.45784
O -9.40372 -6.50715 3.96406
C -8.78808 -7.57638 4.52698
C -9.29754 -8.8953 3.99637
C -8.51455 -10.129 4.46881
C -7.59209 -9.91309 5.65166
O -7.6869 -10.47064 6.7355
O -2.20675 -4.23768 1.47319
O -6.40661 -9.30014 5.37044
O -7.94564 -7.41863 5.39628
C -5.3869 -9.12954 6.28638
C -10.72446 -9.24719 4.44535
C -11.34887 -10.2116 3.43968
C -10.54338 -11.46602 3.71413
C -9.70898 -11.0017 4.91527
O -10.54006 -10.07179 5.5694
H -9.25054 -8.81893 2.88578
H -7.91795 -10.61014 3.66233
H -11.37515 -8.35723 4.58933
H -12.39938 -10.38408 3.76703
H -11.34707 -9.86948 2.38238
H -11.2474 -12.2756 4.00898
H -9.89556 -11.80807 2.8781
H -9.39123 -11.88098 5.51772
O -6.16265 -5.15804 1.5841
C -1.91855 -2.95638 1.05146
C -2.99727 -6.97472 1.49559
C -2.585 -8.34363 2.03984
C -3.92868 -8.89561 2.45958
C -4.84713 -7.75738 2.01117
O -4.21975 -7.2534 0.85967
H -2.62904 -6.18065 3.48414
H -4.83673 -6.90355 4.0405
H -1.73159 -2.29743 1.92611
H -2.18791 -6.59096 0.83837
H -2.20929 -8.94915 1.18396
H -1.81074 -8.31397 2.83641
H -4.1391 -9.80756 1.85735
H -4.03073 -9.12811 3.53923
H -5.88791 -8.12984 1.87988
H -2.76182 -2.55364 0.45045
H -1.00747 -2.97799 0.41907
H -4.54536 -8.5902 5.8088
H -5.0213 -10.1166 6.6415
H -5.74588 -8.52906 7.14939
H -8.74192 -5.21232 5.54408
H -9.85081 -4.53536 4.33911
H -8.20457 -4.6475 2.54119
H -7.65971 -3.63697 3.93015
$end

$opt
CONSTRAINT
tors           1           2           3           4     +35.905
tors           3           4           5           6    -122.117
tors           4           5           6           7    -174.084
tors           5           6           7           8    +141.286
tors           6           7           8           9     -70.701
tors           7           8           9          10     +92.102
tors           8           9          10          11    +178.277
tors           9          10          11          12    +172.664
tors          11          12          13          14    +118.227
ENDCONSTRAINT
$end

$rem
JOBTYPE                   OPT
METHOD                    B3LYP
DFT_D                     d3_op
BASIS                     STO-3G
GEOM_OPT_MAX_CYCLES       100
GEOM_OPT_TOL_GRADIENT     300
GEOM_OPT_TOL_DISPLACEMENT 1200
GEOM_OPT_TOL_ENERGY       100
SYMMETRY                  False
THRESH                    12
SCF_CONVERGENCE           8
MAX_SUB_FILE_NUM          128
MEM_STATIC                400
MEM_TOTAL                 4000
$end
--------------------------------------------------------------

   15   -1510.1550112130      7.76E-09 Convergence criterion met
 Total energy in the final basis set = -1510.15501121
   14   -1510.2246111239      5.72E-09 Convergence criterion met
 Total energy in the final basis set = -1510.22461112
   14   -1510.2604671161      8.28E-09 Convergence criterion met
 Total energy in the final basis set = -1510.26046712
   14   -1510.2748799210      4.19E-09 Convergence criterion met
 Total energy in the final basis set = -1510.27487992
   14   -1510.2790076932      7.98E-09 Convergence criterion met
 Total energy in the final basis set = -1510.27900769
   13   -1510.2818754589      6.82E-09 Convergence criterion met
 Total energy in the final basis set = -1510.28187546
   13   -1510.2842133921      4.93E-09 Convergence criterion met
 Total energy in the final basis set = -1510.28421339
   12   -1510.2846734274      5.03E-09 Convergence criterion met
   12   -1510.2854850296      3.07E-09 Convergence criterion met
 Total energy in the final basis set = -1510.28548503
   12   -1510.2855502819      3.31E-09 Convergence criterion met
 Total energy in the final basis set = -1510.28555028
   10   -1510.2855834371      7.73E-09 Convergence criterion met
 Total energy in the final basis set = -1510.28558344
   10   -1510.2855968338      8.57E-09 Convergence criterion met
 Total energy in the final basis set = -1510.28559683
   11   -1510.2856033015      3.28E-09 Convergence criterion met
 Total energy in the final basis set = -1510.28560330
   10   -1510.2856062831      6.57E-09 Convergence criterion met
 Total energy in the final basis set = -1510.28560628

             Standard Nuclear Orientation (Angstroms)
    I     Atom           X                Y                Z
 ----------------------------------------------------------------
    1      O       4.2425479902    -1.4219903749    -0.9866146776
    2      C       4.4938279567    -0.3024027159    -0.4875241467
    3      C       3.5062424437     0.9161741605    -0.4059497412
    4      C       2.0078848807     0.4689664595    -0.1518122403
    5      C       1.8270074665    -1.0578119580     0.1339618525
    6      O       0.9255297050    -1.6083248871    -0.8435656197
    7      C       0.6387102528    -3.0185964453    -0.4933637977
    8      C      -0.8711750821    -3.3118965877    -0.7875072790
    9      O      -1.7072737035    -2.5956112797     0.2100007367
   10      C      -2.0679353712    -1.3064203946    -0.3050882638
   11      C      -2.9816323657    -0.5860618087     0.7362507559
   12      C      -3.2889000681     0.9193893791     0.3521489911
   13      C      -2.6669955332     1.4197842013    -1.0078140929
   14      O      -3.3230419930     1.8214087406    -1.9938046058
   15      O       5.7652985735     0.0645824960     0.0506514098
   16      O      -1.2455610298     1.6138412563    -0.8813350385
   17      O      -1.7990428446    -0.9045586126    -1.4602596541
   18      C      -0.7236407868     2.0613581142    -2.1949360881
   19      C      -4.4511054864    -1.1999130920     0.7461346649
   20      C      -5.1805344090    -0.7029186661     2.0567629116
   21      C      -5.4875629975     0.7951672839     1.6818670847
   22      C      -4.8691472999     0.8804186289     0.2327784046
   23      O      -5.1334976283    -0.4625311044    -0.3380589955
   24      H      -2.5144707568    -0.6662273601     1.7340871012
   25      H      -2.9503436693     1.6006530187     1.1541375195
   26      H      -4.4909138342    -2.2921183724     0.5671672155
   27      H      -6.1056257556    -1.2770604992     2.2251494881
   28      H      -4.5389461570    -0.7960517206     2.9475334207
   29      H      -6.5714551587     0.9890872431     1.6501867161
   30      H      -5.0203973073     1.5115595399     2.3763822534
   31      H      -5.2843112340     1.6650505754    -0.4288625346
   32      O       2.2734427983    -1.6997534642     1.1104486891
   33      C       6.7000634062    -1.0812149368    -0.0423072778
   34      C       3.7548979757     1.8729025212     0.8345479070
   35      C       2.9949493389     3.2327526042     0.5643821677
   36      C       1.5047665029     2.8071457669     0.8364967789
   37      C       1.6830488170     1.2792321033     1.1813349019
   38      O       2.9677378110     1.2408145843     1.9177459630
   39      H       3.5878854539     1.4729255041    -1.3585390866
   40      H       1.3416452179     0.7467019672    -0.9843284491
   41      H       6.8759454856    -1.3792459991    -1.0962143392
   42      H       4.8186799502     1.9641072098     1.1254587614
   43      H       3.3291847399     4.0098671157     1.2700706988
   44      H       3.1538999764     3.5978442576    -0.4628222788
   45      H       1.0852461245     3.3426612252     1.7028791017
   46      H       0.8402738872     2.9630386170    -0.0263103812
   47      H       0.8718564046     0.8381051169     1.7918514625
   48      H       6.3185984915    -1.9615090289     0.5139876104
   49      H       7.6486692643    -0.7377020905     0.4094498646
   50      H       0.3310430092     2.3495989030    -2.0376954015
   51      H      -1.2925150906     2.9293319781    -2.5847808124
   52      H      -0.7738011905     1.2413206366    -2.9402380897
   53      H      -1.1331648583    -2.9839876508    -1.8156772573
   54      H      -1.0782323022    -4.3938530367    -0.6596220845
   55      H       0.8871064887    -3.1880482893     0.5767227343
   56      H       1.2746661281    -3.6904853059    -1.1118239543
 ----------------------------------------------------------------

   10   -1510.2856063103      8.25E-09 Convergence criterion met
 Total energy in the final basis set = -1510.28560631
 Final energy is   -1510.28560631026
 **  OPTIMIZATION CONVERGED  **

                    Orbital Energies (a.u.)
 --------------------------------------------------------------

 Alpha MOs
 -- Occupied --
-18.938 -18.937 -18.927 -18.922 -18.887 -18.885 -18.884 -18.875
-18.866 -18.862 -10.103 -10.101 -10.092 -10.091 -10.074 -10.065
-10.064 -10.062 -10.057 -10.056 -10.056 -10.056 -10.040 -10.038
-10.035 -10.032 -10.021 -10.019 -10.018 -10.016  -1.018  -1.013
 -1.003  -0.999  -0.970  -0.968  -0.942  -0.938  -0.928  -0.924
 -0.763  -0.760  -0.726  -0.721  -0.714  -0.705  -0.695  -0.662
 -0.656  -0.617  -0.597  -0.576  -0.545  -0.542  -0.537  -0.534
 -0.511  -0.510  -0.486  -0.472  -0.463  -0.456  -0.452  -0.447
 -0.433  -0.430  -0.421  -0.415  -0.414  -0.412  -0.404  -0.403
 -0.397  -0.377  -0.374  -0.363  -0.362  -0.354  -0.352  -0.350
 -0.342  -0.339  -0.337  -0.334  -0.328  -0.324  -0.320  -0.311
 -0.308  -0.304  -0.302  -0.298  -0.292  -0.283  -0.278  -0.273
 -0.271  -0.255  -0.254  -0.247  -0.244  -0.234  -0.231  -0.187
 -0.179  -0.169  -0.163  -0.158  -0.155  -0.147  -0.145  -0.142
 -0.141

          Ground-State Mulliken Net Atomic Charges

     Atom                 Charge (a.u.)
  ----------------------------------------
      1 O                    -0.213453
      2 C                     0.212956
      3 C                    -0.078320
      4 C                    -0.081042
      5 C                     0.212135
      6 O                    -0.170077
      7 C                    -0.055165
      8 C                    -0.052125
      9 O                    -0.172190
     10 C                     0.213480
     11 C                    -0.079025
     12 C                    -0.080607
     13 C                     0.215624
     14 O                    -0.217326
     15 O                    -0.168303
     16 O                    -0.176063
     17 O                    -0.203131
     18 C                    -0.130005
     19 C                     0.025605
     20 C                    -0.143354
     21 C                    -0.144439
     22 C                     0.024748
     23 O                    -0.188733
     24 H                     0.085655
     25 H                     0.082738
     26 H                     0.084913
     27 H                     0.078397
     28 H                     0.073897
     29 H                     0.078410
     30 H                     0.073136
     31 H                     0.091462
     32 O                    -0.216544
     33 C                    -0.127480
     34 C                     0.023417
     35 C                    -0.144462
     36 C                    -0.144927
     37 C                     0.028399
     38 O                    -0.188403
     39 H                     0.083647
     40 H                     0.091226
     41 H                     0.088731
     42 H                     0.091545
     43 H                     0.077215
     44 H                     0.071289
     45 H                     0.076916
     46 H                     0.078187
     47 H                     0.082306
     48 H                     0.093623
     49 H                     0.091250
     50 H                     0.080062
     51 H                     0.090597
     52 H                     0.094082
     53 H                     0.102456
     54 H                     0.090204
     55 H                     0.101605
     56 H                     0.085265
  ----------------------------------------
  Sum of atomic charges =     0.000000

                    Cartesian Multipole Moments
 -----------------------------------------------------------------
    Charge (ESU x 10^10)
                -0.0000
    Dipole Moment (Debye)
         X       1.0136      Y       0.5641      Z       0.7998
       Tot       1.4090
    Quadrupole Moments (Debye-Ang)
        XX    -154.9908     XY       3.8014     YY    -149.8463
        XZ     -17.0609     YZ       1.6191     ZZ    -164.9755

 Total job time:  54.92s(wall), 2616.28s(cpu)
        *  Thank you very much for using Q-Chem.  Have a nice day.  *
