 Q-Chem 5.0, Q-Chem, Inc., Pleasanton, CA (2017)
 Q-Chem 5.0.1 for Intel X86 EM64T Linux

User input:
--------------------------------------------------------------
$molecule
0  1
O -3.94934 -3.66094 2.70899
C -3.26408 -4.56952 2.26188
C -3.36658 -6.02376 2.66595
C -4.77651 -6.58985 2.90154
C -5.93493 -5.68896 2.53475
O -6.78774 -5.57461 3.59544
C -8.02018 -4.92823 3.25998
C -9.19375 -5.68082 3.87841
O -9.45085 -6.88256 3.13504
C -9.25918 -8.04061 3.81425
C -9.58513 -9.26529 2.99291
C -9.33002 -10.60494 3.69898
C -9.13782 -10.53438 5.20058
O -9.88201 -11.02974 6.03446
O -2.4336 -4.28081 1.22376
O -7.8883 -10.17393 5.60939
O -8.83425 -8.03203 4.95749
C -7.46339 -10.17517 6.92212
C -11.07565 -9.39515 2.63199
C -11.21972 -10.24782 1.37354
C -10.83802 -11.61154 1.9127
C -10.68596 -11.28489 3.40422
O -11.60412 -10.24079 3.62249
H -8.97874 -9.18524 2.06179
H -8.47599 -11.17763 3.27436
H -11.58718 -8.41709 2.49829
H -12.3027 -10.25793 1.11355
H -10.63587 -9.9067 0.49167
H -11.69025 -12.30606 1.7415
H -9.90243 -12.04333 1.49575
H -10.83998 -12.20461 4.0106
O -6.09251 -5.19037 1.42529
C -2.25968 -3.02186 0.68755
C -2.84981 -7.0149 1.59935
C -2.50265 -8.35745 2.24783
C -3.88588 -8.91627 2.50107
C -4.75002 -7.78859 1.93557
O -3.99723 -7.3151 0.84412
H -2.75926 -6.10491 3.59473
H -4.90903 -6.94042 3.95181
H -1.87084 -2.32676 1.46214
H -1.96864 -6.64792 1.03126
H -1.99999 -8.99685 1.48741
H -1.85304 -8.26787 3.14507
H -4.02015 -9.82349 1.87011
H -4.11668 -9.15957 3.56072
H -5.76939 -8.16842 1.69997
H -3.22322 -2.63927 0.28812
H -1.52616 -3.07844 -0.14263
H -6.40917 -9.83246 6.96298
H -7.52279 -11.20116 7.3439
H -8.08844 -9.48327 7.52623
H -9.0147 -5.79152 4.97051
H -10.10191 -5.04781 3.78484
H -8.22287 -4.77207 2.17634
H -7.99652 -3.92604 3.73982
$end

$opt
CONSTRAINT
tors           1           2           3           4     +39.364
tors           3           4           5           6    -127.226
tors           4           5           6           7    -169.951
tors           5           6           7           8    +135.775
tors           6           7           8           9     -75.576
tors           7           8           9          10    +115.781
tors           8           9          10          11    +178.277
tors           9          10          11          12    +177.638
tors          11          12          13          14    +115.284
ENDCONSTRAINT
$end

$rem
JOBTYPE                   OPT
METHOD                    B3LYP
DFT_D                     d3_op
BASIS                     STO-3G
GEOM_OPT_MAX_CYCLES       100
GEOM_OPT_TOL_GRADIENT     300
GEOM_OPT_TOL_DISPLACEMENT 1200
GEOM_OPT_TOL_ENERGY       100
SYMMETRY                  False
THRESH                    12
SCF_CONVERGENCE           8
MAX_SUB_FILE_NUM          128
MEM_STATIC                400
MEM_TOTAL                 4000
$end
--------------------------------------------------------------

   15   -1510.1507327745      6.97E-09 Convergence criterion met
 Total energy in the final basis set = -1510.15073277
   14   -1510.2205366461      6.92E-09 Convergence criterion met
 Total energy in the final basis set = -1510.22053665
   14   -1510.2569688234      4.22E-09 Convergence criterion met
 Total energy in the final basis set = -1510.25696882
   14   -1510.2724762230      3.71E-09 Convergence criterion met
 Total energy in the final basis set = -1510.27247622
   13   -1510.2790640145      9.70E-09 Convergence criterion met
 Total energy in the final basis set = -1510.27906401
   13   -1510.2819018980      4.25E-09 Convergence criterion met
 Total energy in the final basis set = -1510.28190190
   13   -1510.2835495438      3.38E-09 Convergence criterion met
 Total energy in the final basis set = -1510.28354954
   13   -1510.2842704336      4.85E-09 Convergence criterion met
   12   -1510.2860161114      5.33E-09 Convergence criterion met
 Total energy in the final basis set = -1510.28601611
   11   -1510.2860761434      6.86E-09 Convergence criterion met
 Total energy in the final basis set = -1510.28607614
   11   -1510.2861156290      4.67E-09 Convergence criterion met
 Total energy in the final basis set = -1510.28611563
   10   -1510.2861438263      6.71E-09 Convergence criterion met
 Total energy in the final basis set = -1510.28614383
   10   -1510.2861519409      5.10E-09 Convergence criterion met
 Total energy in the final basis set = -1510.28615194
    9   -1510.2861550288      8.69E-09 Convergence criterion met
 Total energy in the final basis set = -1510.28615503

             Standard Nuclear Orientation (Angstroms)
    I     Atom           X                Y                Z
 ----------------------------------------------------------------
    1      O       4.6133902940    -1.2741569218    -1.1816598638
    2      C       4.7638012033    -0.1904137019    -0.5751689932
    3      C       3.7280657412     0.9894629613    -0.5209820780
    4      C       2.2302980461     0.4875089425    -0.3906714508
    5      C       2.0675308744    -1.0585545955    -0.1928299594
    6      O       1.1508183881    -1.5157708495    -1.1950917778
    7      C       0.7421275450    -2.9196649397    -0.9483495606
    8      C      -0.8038726474    -2.9621964129    -1.1723509065
    9      O      -1.4534353956    -2.3399922245     0.0098305919
   10      C      -2.1462485725    -1.1500094670    -0.3686076392
   11      C      -2.8480577387    -0.5576870674     0.8984069408
   12      C      -3.5964036094     0.8010690071     0.5925309359
   13      C      -3.2776830143     1.4169819164    -0.8205186837
   14      O      -4.0697212524     1.5806677557    -1.7718023499
   15      O       5.9502551267     0.1685685630     0.1357962556
   16      O      -1.9278182961     1.9129288546    -0.7893965378
   17      O      -2.2062887814    -0.7099330356    -1.5400279699
   18      C      -1.5575013737     2.4164461201    -2.1297748135
   19      C      -4.0804603071    -1.4847907765     1.2880660675
   20      C      -4.6633941378    -1.0163159575     2.6803256616
   21      C      -5.4623540920     0.2743262514     2.2616939396
   22      C      -5.1125734874     0.3558509214     0.7260385382
   23      O      -5.1077521229    -1.0667571074     0.3072534762
   24      H      -2.1134351293    -0.4674866376     1.7184043632
   25      H      -3.3334466644     1.5572429293     1.3542631617
   26      H      -3.8722645277    -2.5692011745     1.2028111888
   27      H      -5.3279668178    -1.7885100526     3.0991433223
   28      H      -3.8651756409    -0.8047293026     3.4098300585
   29      H      -6.5466582379     0.1379551360     2.4014771653
   30      H      -5.1440844047     1.1728871563     2.8137526418
   31      H      -5.8109838467     0.9404441348     0.0961493312
   32      O       2.5218294963    -1.7745823772     0.7255328338
   33      C       6.9288209415    -0.9419607053     0.0734870093
   34      C       3.8525299957     1.9170387262     0.7612211459
   35      C       3.0784913174     3.2625529258     0.4675270077
   36      C       1.5838004285     2.7820145718     0.5752850092
   37      C       1.7782849730     1.2553159142     0.9271829362
   38      O       2.9991549249     1.2385148575     1.7636986910
   39      H       3.8538343122     1.5808945442    -1.4474796753
   40      H       1.6235514545     0.7817327233    -1.2645551620
   41      H       7.2194195469    -1.1720208617    -0.9719849142
   42      H       4.8866968389     2.0269643890     1.1393925836
   43      H       3.3158161187     4.0184383255     1.2328217476
   44      H       3.3245633188     3.6744825414    -0.5241970507
   45      H       1.0486256092     3.2984295379     1.3879181913
   46      H       1.0191115549     2.9193712549    -0.3603792446
   47      H       0.9312790100     0.7847943117     1.4632693461
   48      H       6.5245751235    -1.8642752885     0.5381898891
   49      H       7.8150789617    -0.5990373059     0.6382933248
   50      H      -0.5412223440     2.8407550245    -2.0317321094
   51      H      -2.2554015186     3.2030159253    -2.4828784449
   52      H      -1.5449690662     1.5940149694    -2.8745476968
   53      H      -1.0852409021    -2.3915206656    -2.0837564897
   54      H      -1.1599811831    -4.0113899214    -1.2474993703
   55      H       1.0212967420    -3.2197975726     0.0849960255
   56      H       1.2550722907    -3.5913543177    -1.6713567189
 ----------------------------------------------------------------

    9   -1510.2861556949      2.39E-09 Convergence criterion met
 Total energy in the final basis set = -1510.28615569
 Final energy is   -1510.28615569490
 **  OPTIMIZATION CONVERGED  **

                    Orbital Energies (a.u.)
 --------------------------------------------------------------

 Alpha MOs
 -- Occupied --
-18.940 -18.938 -18.928 -18.919 -18.887 -18.887 -18.886 -18.874
-18.869 -18.862 -10.107 -10.100 -10.095 -10.091 -10.073 -10.069
-10.065 -10.061 -10.060 -10.057 -10.056 -10.056 -10.041 -10.038
-10.035 -10.033 -10.021 -10.020 -10.019 -10.019  -1.021  -1.013
 -1.005  -0.998  -0.970  -0.970  -0.945  -0.937  -0.930  -0.925
 -0.764  -0.762  -0.729  -0.722  -0.715  -0.706  -0.697  -0.662
 -0.656  -0.618  -0.597  -0.576  -0.546  -0.543  -0.537  -0.536
 -0.513  -0.511  -0.487  -0.474  -0.463  -0.456  -0.453  -0.449
 -0.433  -0.431  -0.423  -0.416  -0.412  -0.411  -0.405  -0.403
 -0.400  -0.377  -0.373  -0.367  -0.361  -0.355  -0.354  -0.349
 -0.343  -0.339  -0.339  -0.333  -0.330  -0.325  -0.320  -0.312
 -0.310  -0.305  -0.303  -0.301  -0.293  -0.286  -0.277  -0.274
 -0.272  -0.256  -0.253  -0.246  -0.245  -0.234  -0.233  -0.187
 -0.178  -0.168  -0.165  -0.163  -0.156  -0.148  -0.145  -0.143
 -0.142

          Ground-State Mulliken Net Atomic Charges

     Atom                 Charge (a.u.)
  ----------------------------------------
      1 O                    -0.213640
      2 C                     0.212663
      3 C                    -0.078602
      4 C                    -0.079495
      5 C                     0.212977
      6 O                    -0.174591
      7 C                    -0.052508
      8 C                    -0.054020
      9 O                    -0.173336
     10 C                     0.217741
     11 C                    -0.076970
     12 C                    -0.081597
     13 C                     0.216684
     14 O                    -0.215839
     15 O                    -0.168486
     16 O                    -0.178902
     17 O                    -0.206620
     18 C                    -0.128314
     19 C                     0.024888
     20 C                    -0.144320
     21 C                    -0.143325
     22 C                     0.024130
     23 O                    -0.190236
     24 H                     0.087179
     25 H                     0.082954
     26 H                     0.085316
     27 H                     0.078534
     28 H                     0.074009
     29 H                     0.078222
     30 H                     0.073306
     31 H                     0.090594
     32 O                    -0.214504
     33 C                    -0.127437
     34 C                     0.023497
     35 C                    -0.144232
     36 C                    -0.142880
     37 C                     0.027001
     38 O                    -0.188080
     39 H                     0.084213
     40 H                     0.087390
     41 H                     0.088877
     42 H                     0.092465
     43 H                     0.077745
     44 H                     0.072394
     45 H                     0.078292
     46 H                     0.073892
     47 H                     0.082381
     48 H                     0.093538
     49 H                     0.090984
     50 H                     0.080535
     51 H                     0.087800
     52 H                     0.092819
     53 H                     0.107842
     54 H                     0.087451
     55 H                     0.102765
     56 H                     0.086855
  ----------------------------------------
  Sum of atomic charges =    -0.000000

                    Cartesian Multipole Moments
 -----------------------------------------------------------------
    Charge (ESU x 10^10)
                -0.0000
    Dipole Moment (Debye)
         X       1.4160      Y       0.9529      Z       0.7940
       Tot       1.8824
    Quadrupole Moments (Debye-Ang)
        XX    -159.6377     XY       3.6825     YY    -150.5784
        XZ     -15.8566     YZ       0.5168     ZZ    -162.2636

 Total job time:  53.56s(wall), 2549.57s(cpu)
        *  Thank you very much for using Q-Chem.  Have a nice day.  *
