 Q-Chem 5.0, Q-Chem, Inc., Pleasanton, CA (2017)
 Q-Chem 5.0.1 for Intel X86 EM64T Linux

User input:
--------------------------------------------------------------
$molecule
0  1
O 4.613390294 -1.2741569218 -1.1816598638
C 4.7638012033 -0.1904137019 -0.5751689932
C 3.7280657412 0.9894629613 -0.520982078
C 2.2302980461 0.4875089425 -0.3906714508
C 2.0675308744 -1.0585545955 -0.1928299594
O 1.1508183881 -1.5157708495 -1.1950917778
C 0.742127545 -2.9196649397 -0.9483495606
C -0.8038726474 -2.9621964129 -1.1723509065
O -1.4534353956 -2.3399922245 0.0098305919
C -2.1462485725 -1.150009467 -0.3686076392
C -2.8480577387 -0.5576870674 0.8984069408
C -3.5964036094 0.8010690071 0.5925309359
C -3.2776830143 1.4169819164 -0.8205186837
O -4.0697212524 1.5806677557 -1.7718023499
O 5.9502551267 0.168568563 0.1357962556
O -1.9278182961 1.9129288546 -0.7893965378
O -2.2062887814 -0.7099330356 -1.5400279699
C -1.5575013737 2.4164461201 -2.1297748135
C -4.0804603071 -1.4847907765 1.2880660675
C -4.6633941378 -1.0163159575 2.6803256616
C -5.462354092 0.2743262514 2.2616939396
C -5.1125734874 0.3558509214 0.7260385382
O -5.1077521229 -1.0667571074 0.3072534762
H -2.1134351293 -0.4674866376 1.7184043632
H -3.3334466644 1.5572429293 1.3542631617
H -3.8722645277 -2.5692011745 1.2028111888
H -5.3279668178 -1.7885100526 3.0991433223
H -3.8651756409 -0.8047293026 3.4098300585
H -6.5466582379 0.137955136 2.4014771653
H -5.1440844047 1.1728871563 2.8137526418
H -5.8109838467 0.9404441348 0.0961493312
O 2.5218294963 -1.7745823772 0.7255328338
C 6.9288209415 -0.9419607053 0.0734870093
C 3.8525299957 1.9170387262 0.7612211459
C 3.0784913174 3.2625529258 0.4675270077
C 1.5838004285 2.7820145718 0.5752850092
C 1.778284973 1.2553159142 0.9271829362
O 2.9991549249 1.2385148575 1.763698691
H 3.8538343122 1.5808945442 -1.4474796753
H 1.6235514545 0.7817327233 -1.264555162
H 7.2194195469 -1.1720208617 -0.9719849142
H 4.8866968389 2.026964389 1.1393925836
H 3.3158161187 4.0184383255 1.2328217476
H 3.3245633188 3.6744825414 -0.5241970507
H 1.0486256092 3.2984295379 1.3879181913
H 1.0191115549 2.9193712549 -0.3603792446
H 0.93127901 0.7847943117 1.4632693461
H 6.5245751235 -1.8642752885 0.5381898891
H 7.8150789617 -0.5990373059 0.6382933248
H -0.541222344 2.8407550245 -2.0317321094
H -2.2554015186 3.2030159253 -2.4828784449
H -1.5449690662 1.5940149694 -2.8745476968
H -1.0852409021 -2.3915206656 -2.0837564897
H -1.1599811831 -4.0113899214 -1.2474993703
H 1.021296742 -3.2197975726 0.0849960255
H 1.2550722907 -3.5913543177 -1.6713567189
$end

$rem
JOBTYPE                   OPT
METHOD                    B3LYP
DFT_D                     d3_op
BASIS                     STO-3G
GEOM_OPT_MAX_CYCLES       100
GEOM_OPT_TOL_GRADIENT     300
GEOM_OPT_TOL_DISPLACEMENT 1200
GEOM_OPT_TOL_ENERGY       100
SYMMETRY                  False
THRESH                    12
SCF_CONVERGENCE           8
MAX_SUB_FILE_NUM          128
MEM_STATIC                400
MEM_TOTAL                 4000
$end
--------------------------------------------------------------

   16   -1510.2860203850      7.46E-09 Convergence criterion met
 Total energy in the final basis set = -1510.28602038
   14   -1510.2838181050      3.70E-09 Convergence criterion met
 Total energy in the final basis set = -1510.28381811
   14   -1510.2885307606      7.72E-09 Convergence criterion met
 Total energy in the final basis set = -1510.28853076
   13   -1510.2897813241      7.70E-09 Convergence criterion met
 Total energy in the final basis set = -1510.28978132
   14   -1510.2910311277      3.89E-09 Convergence criterion met
 Total energy in the final basis set = -1510.29103113
   14   -1510.2930363118      2.43E-09 Convergence criterion met
 Total energy in the final basis set = -1510.29303631
   13   -1510.2951260635      3.95E-09 Convergence criterion met
 Total energy in the final basis set = -1510.29512606
   13   -1510.2966056073      8.71E-09 Convergence criterion met
   11   -1510.3025645431      9.17E-09 Convergence criterion met
 Total energy in the final basis set = -1510.30256454
   11   -1510.3025554528      4.52E-09 Convergence criterion met
 Total energy in the final basis set = -1510.30255545
   10   -1510.3025688748      9.09E-09 Convergence criterion met
 Total energy in the final basis set = -1510.30256887
   11   -1510.3025670993      3.33E-09 Convergence criterion met
 Total energy in the final basis set = -1510.30256710
    9   -1510.3025695270      8.67E-09 Convergence criterion met
 Total energy in the final basis set = -1510.30256953
    9   -1510.3025698855      5.92E-09 Convergence criterion met
 Total energy in the final basis set = -1510.30256989

             Standard Nuclear Orientation (Angstroms)
    I     Atom           X                Y                Z
 ----------------------------------------------------------------
    1      O       3.6298603405    -1.4401665615     0.4545281908
    2      C       3.7863860601    -0.2976613730    -0.0331893921
    3      C       2.7376848849     0.8614710915    -0.0607437123
    4      C       1.2865669224     0.3663669704     0.3176304920
    5      C       1.1420434173    -1.1865562862     0.4646910621
    6      O       1.2313954335    -1.7519943168    -0.8623693883
    7      C       0.9049818936    -3.1927059235    -0.8338400865
    8      C      -0.6017584968    -3.3921645651    -1.2488444324
    9      O      -1.4636050348    -2.6831574887    -0.2723946803
   10      C      -1.6913570027    -1.3359862819    -0.6854890558
   11      C      -2.3230868934    -0.5573149300     0.5135452869
   12      C      -2.6059146258     0.9603325414     0.1719413480
   13      C      -2.1800661935     1.3948071350    -1.2787156094
   14      O      -2.9158377043     1.5800889737    -2.2683816302
   15      O       4.9991803315     0.1542858340    -0.6392372736
   16      O      -0.7760450369     1.7506779433    -1.2536902561
   17      O      -1.4367434196    -0.8788079423    -1.8241369700
   18      C      -0.3229613033     2.1265843295    -2.6106281268
   19      C      -3.7897887327    -1.0742005421     0.8438708390
   20      C      -4.2120359842    -0.4996539874     2.2524035232
   21      C      -4.5074530450     1.0035641763     1.8917099606
   22      C      -4.1830671138     1.0153116929     0.3463705767
   23      O      -4.6305725852    -0.3206462522    -0.1126128445
   24      H      -1.6504572971    -0.6687522753     1.3835922036
   25      H      -2.0912595304     1.6207022649     0.8917436557
   26      H      -3.9242379947    -2.1658046534     0.7151202950
   27      H      -5.1142449779    -1.0122693462     2.6220650434
   28      H      -3.4108577485    -0.6106505934     3.0005018941
   29      H      -5.5646269250     1.2605678359     2.0644618030
   30      H      -3.8756823363     1.7093392762     2.4541251007
   31      H      -4.6779530413     1.8099547285    -0.2447634789
   32      O       0.8512287988    -1.8385487912     1.4898840918
   33      C       6.0165673400    -0.9221609355    -0.5945197625
   34      C       3.0186619907     1.8862311786     1.1258136137
   35      C       2.1227305414     3.1679786183     0.9061559257
   36      C       0.7032055012     2.6263420338     1.3152001268
   37      C       1.0514190895     1.1304136909     1.6853964185
   38      O       2.4013609921     1.2183993615     2.2918320796
   39      H       2.7739325663     1.3589035159    -1.0461010237
   40      H       0.5370366137     0.7120939786    -0.4298886333
   41      H       5.6683200634    -1.8329454207    -1.1229256473
   42      H       4.0925721835     2.0858009604     1.3095232151
   43      H       2.4542121103     3.9839813972     1.5680583012
   44      H       2.1568973797     3.5230775033    -0.1364005539
   45      H       0.2928494799     3.1676107953     2.1820148645
   46      H      -0.0116833924     2.6636338916     0.4744123255
   47      H       0.3511052273     0.6229886714     2.3767258144
   48      H       6.2731354524    -1.1975416751     0.4489081773
   49      H       6.9116775563    -0.5177647843    -1.1017141180
   50      H       0.7282532153     2.4516551187    -2.5044749941
   51      H      -0.9324057565     2.9540122289    -3.0264975264
   52      H      -0.3780088411     1.2598151835    -3.3003370389
   53      H      -0.7744094530    -2.9919086559    -2.2704484998
   54      H      -0.8784526848    -4.4649884277    -1.2042080319
   55      H       1.0661683653    -3.5944722901     0.1892429887
   56      H       1.5676487709    -3.7059748498    -1.5605126914
 ----------------------------------------------------------------

    9   -1510.3025695674      3.51E-09 Convergence criterion met
 Total energy in the final basis set = -1510.30256957
 Final energy is   -1510.30256956742
 **  OPTIMIZATION CONVERGED  **

                    Orbital Energies (a.u.)
 --------------------------------------------------------------

 Alpha MOs
 -- Occupied --
-18.942 -18.939 -18.937 -18.917 -18.889 -18.889 -18.880 -18.880
-18.876 -18.862 -10.109 -10.102 -10.100 -10.089 -10.074 -10.067
-10.066 -10.065 -10.062 -10.060 -10.056 -10.049 -10.041 -10.038
-10.034 -10.021 -10.020 -10.015 -10.015 -10.007  -1.023  -1.015
 -1.009  -0.996  -0.972  -0.964  -0.946  -0.938  -0.937  -0.926
 -0.766  -0.757  -0.727  -0.719  -0.713  -0.703  -0.694  -0.664
 -0.663  -0.617  -0.597  -0.576  -0.548  -0.541  -0.538  -0.531
 -0.514  -0.506  -0.489  -0.472  -0.469  -0.459  -0.451  -0.446
 -0.433  -0.427  -0.425  -0.417  -0.415  -0.413  -0.410  -0.402
 -0.398  -0.379  -0.374  -0.368  -0.359  -0.357  -0.352  -0.350
 -0.343  -0.340  -0.337  -0.334  -0.328  -0.327  -0.319  -0.315
 -0.309  -0.306  -0.302  -0.299  -0.295  -0.285  -0.280  -0.274
 -0.269  -0.255  -0.253  -0.249  -0.238  -0.236  -0.226  -0.193
 -0.181  -0.179  -0.165  -0.157  -0.155  -0.152  -0.146  -0.143
 -0.138

          Ground-State Mulliken Net Atomic Charges

     Atom                 Charge (a.u.)
  ----------------------------------------
      1 O                    -0.207760
      2 C                     0.214245
      3 C                    -0.078037
      4 C                    -0.097785
      5 C                     0.211588
      6 O                    -0.181195
      7 C                    -0.053611
      8 C                    -0.051999
      9 O                    -0.169408
     10 C                     0.215033
     11 C                    -0.079861
     12 C                    -0.083154
     13 C                     0.221194
     14 O                    -0.207924
     15 O                    -0.169501
     16 O                    -0.176891
     17 O                    -0.206539
     18 C                    -0.127323
     19 C                     0.025804
     20 C                    -0.143593
     21 C                    -0.144070
     22 C                     0.025478
     23 O                    -0.188439
     24 H                     0.092919
     25 H                     0.085324
     26 H                     0.088011
     27 H                     0.078994
     28 H                     0.076157
     29 H                     0.078630
     30 H                     0.073608
     31 H                     0.088377
     32 O                    -0.219009
     33 C                    -0.128290
     34 C                     0.025183
     35 C                    -0.143486
     36 C                    -0.152688
     37 C                     0.022323
     38 O                    -0.191928
     39 H                     0.083608
     40 H                     0.107507
     41 H                     0.090095
     42 H                     0.081772
     43 H                     0.075830
     44 H                     0.070679
     45 H                     0.070561
     46 H                     0.085108
     47 H                     0.080711
     48 H                     0.090482
     49 H                     0.090995
     50 H                     0.086469
     51 H                     0.091182
     52 H                     0.097146
     53 H                     0.098325
     54 H                     0.090533
     55 H                     0.102161
     56 H                     0.086460
  ----------------------------------------
  Sum of atomic charges =    -0.000000

                    Cartesian Multipole Moments
 -----------------------------------------------------------------
    Charge (ESU x 10^10)
                -0.0000
    Dipole Moment (Debye)
         X       1.3535      Y       0.6652      Z      -0.5831
       Tot       1.6169
    Quadrupole Moments (Debye-Ang)
        XX    -156.6548     XY      -0.3920     YY    -149.5524
        XZ     -16.0610     YZ       5.6238     ZZ    -165.5719

 Total job time:  96.35s(wall), 4595.18s(cpu)
        *  Thank you very much for using Q-Chem.  Have a nice day.  *
