 Q-Chem 5.0, Q-Chem, Inc., Pleasanton, CA (2017)
 Q-Chem 5.0.1 for Intel X86 EM64T Linux

User input:
--------------------------------------------------------------
$molecule
0  1
O 4.3991646287 -1.3794509485 -1.0472941922
C 4.6085301288 -0.2098755896 -0.6550703158
C 3.5508599192 0.9476830315 -0.589409831
C 2.0882641121 0.4229926162 -0.2897141809
C 1.9817975764 -1.1092465866 0.0302426061
O 1.081571894 -1.6749966987 -0.9314325184
C 0.7281402656 -3.0715826136 -0.5772211991
C -0.8166460753 -3.1556007687 -0.8006768829
O -1.4465303275 -2.3742715923 0.2969605067
C -2.0752789686 -1.2065310087 -0.2301397746
C -2.7668728137 -0.4260772585 0.9363187123
C -3.4628728965 0.8961075072 0.420857333
C -3.061842225 1.3190381033 -1.0412152302
O -3.8238307414 1.468548675 -2.0191720034
O 5.8871051382 0.2809372096 -0.248201561
O -1.677440845 1.7176092123 -1.0239546983
O -2.1161494691 -0.9149097353 -1.4486409474
C -1.2508594703 2.0594731031 -2.3984913287
C -4.0394862251 -1.2447557174 1.4277653408
C -4.6366714889 -0.5444027271 2.7127686675
C -5.3966158886 0.6780780543 2.0752056822
C -4.9959135371 0.5166057837 0.5581594044
O -5.0264896611 -0.9533549247 0.3632149987
H -2.0410494951 -0.2463667451 1.7493138638
H -3.2058308369 1.7401989473 1.0866946131
H -3.8676175467 -2.3351449145 1.5181711342
H -5.3263600357 -1.2242002801 3.2375837849
H -3.8454322328 -0.2346633532 3.4141202216
H -6.487301791 0.5789744248 2.1957156952
H -5.0804985053 1.6461700967 2.4952098297
H -5.6527667607 1.0183480126 -0.17887727
O 2.4456219211 -1.7300778395 1.0110678065
C 6.8926271517 -0.8039924533 -0.3344860385
C 3.7643707603 1.9617367943 0.6136286677
C 2.9271221069 3.2665831639 0.3071311632
C 1.4632882584 2.7617111234 0.5899770521
C 1.7340194819 1.2656060382 1.0123256967
O 3.0263670939 1.3318867047 1.7323128754
H 3.5807813367 1.4782419262 -1.5596501883
H 1.3967790221 0.6418260226 -1.1217996334
H 7.0015080642 -1.1768165808 -1.3735059121
H 4.8254600452 2.122172405 0.8844878037
H 3.2138616137 4.0776162132 0.9953528765
H 3.0668448956 3.6167367718 -0.7280194543
H 0.9979988151 3.3157675316 1.4205545944
H 0.8038803968 2.8277510953 -0.2895019073
H 0.9553986584 0.8078170666 1.6524392434
H 6.624831061 -1.6580665491 0.320316522
H 7.8477815982 -0.3616362941 0.0031741404
H -0.2105545536 2.4256117914 -2.320039689
H -1.8897589945 2.8494317609 -2.8434099171
H -1.2797441694 1.1680396758 -3.058268453
H -1.0989271728 -2.7061018851 -1.7767493202
H -1.1780643473 -4.2028809598 -0.7305225488
H 1.0107103107 -3.2786481149 0.4774348808
H 1.2649903878 -3.7797917505 -1.2458511029
$end

$rem
JOBTYPE                   OPT
METHOD                    B3LYP
DFT_D                     d3_op
BASIS                     STO-3G
GEOM_OPT_MAX_CYCLES       100
GEOM_OPT_TOL_GRADIENT     300
GEOM_OPT_TOL_DISPLACEMENT 1200
GEOM_OPT_TOL_ENERGY       100
SYMMETRY                  False
THRESH                    12
SCF_CONVERGENCE           8
MAX_SUB_FILE_NUM          128
MEM_STATIC                400
MEM_TOTAL                 4000
$end
--------------------------------------------------------------

   16   -1510.2867213346      6.04E-09 Convergence criterion met
 Total energy in the final basis set = -1510.28672133
   14   -1510.2886126382      7.02E-09 Convergence criterion met
 Total energy in the final basis set = -1510.28861264
   15   -1510.2906845867      3.54E-09 Convergence criterion met
 Total energy in the final basis set = -1510.29068459
   14   -1510.2886419145      5.25E-09 Convergence criterion met
 Total energy in the final basis set = -1510.28864191
   13   -1510.2924790270      6.39E-09 Convergence criterion met
 Total energy in the final basis set = -1510.29247903
   14   -1510.2707041595      7.91E-09 Convergence criterion met
 Total energy in the final basis set = -1510.27070416
   14   -1510.2942024546      3.44E-09 Convergence criterion met
 Total energy in the final basis set = -1510.29420245
   13   -1510.2947203948      5.67E-09 Convergence criterion met
   12   -1510.3026152817      3.58E-09 Convergence criterion met
 Total energy in the final basis set = -1510.30261528
   12   -1510.3026782644      3.07E-09 Convergence criterion met
 Total energy in the final basis set = -1510.30267826
   11   -1510.3026846069      2.54E-09 Convergence criterion met
 Total energy in the final basis set = -1510.30268461
    9   -1510.3026837117      9.84E-09 Convergence criterion met
 Total energy in the final basis set = -1510.30268371
    9   -1510.3026870373      7.01E-09 Convergence criterion met
 Total energy in the final basis set = -1510.30268704
    9   -1510.3026881609      4.77E-09 Convergence criterion met
 Total energy in the final basis set = -1510.30268816

             Standard Nuclear Orientation (Angstroms)
    I     Atom           X                Y                Z
 ----------------------------------------------------------------
    1      O       3.6208082990    -1.3806986564     0.5865740490
    2      C       3.7778551337    -0.2929023532    -0.0134040991
    3      C       2.7323209569     0.8619398650    -0.1469402664
    4      C       1.2835102466     0.4104885370     0.2919087318
    5      C       1.1313059549    -1.1242272939     0.5633817710
    6      O       1.2380736278    -1.7946684862    -0.7124679759
    7      C       0.9140246676    -3.2293455558    -0.5741946103
    8      C      -0.5849072943    -3.4672987701    -0.9971464586
    9      O      -1.4655854864    -2.7004609175    -0.0836439770
   10      C      -1.6912338211    -1.3835690328    -0.5861920781
   11      C      -2.3308523422    -0.5294482950     0.5557595070
   12      C      -2.6120409960     0.9625751307     0.1154426405
   13      C      -2.1911361755     1.2987318859    -1.3630038672
   14      O      -2.9306632763     1.4084354424    -2.3610789623
   15      O       4.9884850125     0.0930595025    -0.6673352324
   16      O      -0.7904827833     1.6678071124    -1.3664379408
   17      O      -1.4276024350    -1.0008201018    -1.7500724326
   18      C      -0.3423368246     1.9503208432    -2.7475957984
   19      C      -3.7989108448    -1.0254513037     0.9113380845
   20      C      -4.2286561247    -0.3657231450     2.2803946943
   21      C      -4.5151003270     1.1143555485     1.8272332316
   22      C      -4.1887529009     1.0294637982     0.2850733575
   23      O      -4.6360118745    -0.3316655821    -0.0924293821
   24      H      -1.6620610428    -0.5847024405     1.4343240971
   25      H      -2.0953740184     1.6694119139     0.7881728687
   26      H      -3.9329238238    -2.1228582662     0.8486871278
   27      H      -5.1359801433    -0.8516216028     2.6731419714
   28      H      -3.4335918330    -0.4344656020     3.0401527729
   29      H      -5.5708079750     1.3876898753     1.9829501877
   30      H      -3.8795713877     1.8496130546     2.3458425644
   31      H      -4.6823505278     1.7862926572    -0.3546626374
   32      O       0.8231941624    -1.6904234431     1.6334380510
   33      C       6.0021469889    -0.9784882517    -0.5249898568
   34      C       3.0279991664     1.9935365258     0.9337862636
   35      C       2.1239178639     3.2482195782     0.6097888104
   36      C       0.7145129611     2.7479400694     1.0995541920
   37      C       1.0722160896     1.2902177913     1.5924277761
   38      O       2.4315073577     1.4347422812     2.1656286808
   39      H       2.7614336541     1.2621078791    -1.1759984428
   40      H       0.5261784648     0.6999622035    -0.4714561469
   41      H       5.6626418982    -1.9237383352    -0.9956146261
   42      H       4.1039456259     2.2113230494     1.0811696742
   43      H       2.4671727671     4.1255607896     1.1807409321
   44      H       2.1346225412     3.4982566254    -0.4631578983
   45      H       0.3276043760     3.3641745571     1.9261771051
   46      H      -0.0220159342     2.7147557142     0.2773177960
   47      H       0.3856631569     0.8451849750     2.3385412808
   48      H       6.2359754699    -1.1803018874     0.5402221702
   49      H       6.9083585617    -0.6120764486    -1.0412263732
   50      H       0.7034725493     2.2991411720    -2.6662021941
   51      H      -0.9647059282     2.7350403188    -3.2228293966
   52      H      -0.3833833133     1.0341817492    -3.3712793908
   53      H      -0.7440999441    -3.1397430540    -2.0463898688
   54      H      -0.8551671906    -4.5366979349    -0.8832248796
   55      H       1.0583906964    -3.5478624392     0.4803337307
   56      H       1.5902262197    -3.7970375180    -1.2459890012
 ----------------------------------------------------------------

    9   -1510.3026847812      1.66E-09 Convergence criterion met
 Total energy in the final basis set = -1510.30268478
 Final energy is   -1510.30268478120
 **  OPTIMIZATION CONVERGED  **

                    Orbital Energies (a.u.)
 --------------------------------------------------------------

 Alpha MOs
 -- Occupied --
-18.942 -18.938 -18.938 -18.917 -18.889 -18.889 -18.880 -18.879
-18.876 -18.863 -10.109 -10.102 -10.100 -10.089 -10.074 -10.067
-10.066 -10.066 -10.062 -10.060 -10.056 -10.049 -10.041 -10.038
-10.034 -10.021 -10.020 -10.015 -10.015 -10.007  -1.023  -1.014
 -1.009  -0.997  -0.972  -0.964  -0.946  -0.938  -0.937  -0.926
 -0.766  -0.757  -0.727  -0.719  -0.712  -0.703  -0.694  -0.664
 -0.663  -0.617  -0.597  -0.576  -0.548  -0.541  -0.538  -0.531
 -0.514  -0.506  -0.489  -0.472  -0.469  -0.458  -0.451  -0.446
 -0.433  -0.427  -0.426  -0.416  -0.415  -0.414  -0.410  -0.402
 -0.398  -0.379  -0.374  -0.368  -0.359  -0.357  -0.352  -0.350
 -0.343  -0.340  -0.337  -0.334  -0.328  -0.327  -0.319  -0.315
 -0.309  -0.306  -0.302  -0.298  -0.295  -0.285  -0.280  -0.274
 -0.269  -0.255  -0.253  -0.249  -0.238  -0.236  -0.226  -0.193
 -0.181  -0.179  -0.165  -0.157  -0.154  -0.152  -0.146  -0.144
 -0.138

          Ground-State Mulliken Net Atomic Charges

     Atom                 Charge (a.u.)
  ----------------------------------------
      1 O                    -0.208009
      2 C                     0.214400
      3 C                    -0.077875
      4 C                    -0.097985
      5 C                     0.211834
      6 O                    -0.181302
      7 C                    -0.053580
      8 C                    -0.051912
      9 O                    -0.169533
     10 C                     0.214979
     11 C                    -0.080070
     12 C                    -0.083075
     13 C                     0.221194
     14 O                    -0.207923
     15 O                    -0.169502
     16 O                    -0.176704
     17 O                    -0.206517
     18 C                    -0.127333
     19 C                     0.025799
     20 C                    -0.143490
     21 C                    -0.144168
     22 C                     0.025561
     23 O                    -0.188402
     24 H                     0.093418
     25 H                     0.085278
     26 H                     0.087976
     27 H                     0.078971
     28 H                     0.076226
     29 H                     0.078584
     30 H                     0.073648
     31 H                     0.088252
     32 O                    -0.219321
     33 C                    -0.128270
     34 C                     0.025156
     35 C                    -0.143591
     36 C                    -0.152541
     37 C                     0.022226
     38 O                    -0.192272
     39 H                     0.083610
     40 H                     0.107759
     41 H                     0.089521
     42 H                     0.081744
     43 H                     0.075790
     44 H                     0.070433
     45 H                     0.070588
     46 H                     0.085061
     47 H                     0.080973
     48 H                     0.091003
     49 H                     0.090996
     50 H                     0.086467
     51 H                     0.091422
     52 H                     0.097096
     53 H                     0.098297
     54 H                     0.090541
     55 H                     0.102124
     56 H                     0.086446
  ----------------------------------------
  Sum of atomic charges =    -0.000000

                    Cartesian Multipole Moments
 -----------------------------------------------------------------
    Charge (ESU x 10^10)
                -0.0000
    Dipole Moment (Debye)
         X       1.3454      Y       0.5610      Z      -0.6440
       Tot       1.5936
    Quadrupole Moments (Debye-Ang)
        XX    -156.8391     XY      -1.7740     YY    -148.6983
        XZ     -16.0276     YZ       4.2070     ZZ    -166.2714

 Total job time:  98.37s(wall), 4682.34s(cpu)
        *  Thank you very much for using Q-Chem.  Have a nice day.  *
