 Q-Chem 5.0, Q-Chem, Inc., Pleasanton, CA (2017)
 Q-Chem 5.0.1 for Intel X86 EM64T Linux

User input:
--------------------------------------------------------------
$molecule
0  1
O -3.94934 -3.66094 2.70899
C -3.26408 -4.56952 2.26188
C -3.36658 -6.02376 2.66595
C -4.75477 -6.54337 3.07434
C -5.91734 -5.59895 2.86316
O -6.55718 -5.37814 4.04945
C -7.79587 -4.6765 3.89909
C -8.87446 -5.32339 4.76182
O -9.2599 -6.5868 4.19782
C -8.9265 -7.67837 4.93026
C -9.3945 -8.9713 4.30579
C -9.01998 -10.23983 5.08608
C -8.56448 -10.02597 6.51558
O -9.09446 -10.50515 7.50758
O -2.18705 -4.23841 1.50026
O -7.26904 -9.62023 6.64762
O -8.29851 -7.56215 5.96846
C -6.59325 -9.52715 7.84725
C -10.92638 -9.11091 4.23263
C -11.29343 -10.07719 3.10883
C -10.81706 -11.38907 3.69908
C -10.40366 -10.92538 5.10222
O -11.26895 -9.85037 5.37824
H -8.96787 -8.99268 3.2769
H -8.24695 -10.85577 4.5754
H -11.45543 -8.1423 4.09845
H -12.40564 -10.09539 3.05162
H -10.88087 -9.83106 2.10677
H -11.68317 -12.08586 3.74671
H -9.96759 -11.86952 3.16688
H -10.44655 -11.78103 5.81146
O -6.22155 -5.11092 1.77951
C -1.8851 -2.95636 1.09069
C -3.10718 -6.96757 1.46078
C -2.6738 -8.34737 1.95826
C -3.98419 -8.87711 2.49772
C -4.92183 -7.72914 2.1141
O -4.37854 -7.22776 0.92
H -2.56789 -6.20841 3.41847
H -4.75315 -6.87833 4.13745
H -1.71752 -2.30122 1.97213
H -2.34852 -6.58549 0.74423
H -2.39425 -8.94864 1.06331
H -1.82658 -8.34702 2.67727
H -4.2514 -9.79845 1.93373
H -4.00147 -9.08252 3.59005
H -5.97461 -8.0869 2.0628
H -2.71244 -2.54892 0.47102
H -0.95899 -2.97816 0.48053
H -5.56226 -9.16521 7.6561
H -6.53737 -10.52382 8.33478
H -7.10689 -8.80734 8.51976
H -8.52396 -5.33558 5.81724
H -9.77486 -4.67288 4.75383
H -8.18463 -4.58632 2.85942
H -7.64177 -3.64765 4.28991
$end

$opt
CONSTRAINT
tors           1           2           3           4     +31.807
tors           3           4           5           6    -122.117
tors           4           5           6           7    -170.199
tors           5           6           7           8    +135.775
tors           6           7           8           9     -71.836
tors           7           8           9          10    +112.625
tors           8           9          10          11    +178.277
tors           9          10          11          12    +179.002
tors          11          12          13          14    +120.991
ENDCONSTRAINT
$end

$rem
JOBTYPE                   OPT
METHOD                    B3LYP
DFT_D                     d3_op
BASIS                     STO-3G
GEOM_OPT_MAX_CYCLES       100
GEOM_OPT_TOL_GRADIENT     300
GEOM_OPT_TOL_DISPLACEMENT 1200
GEOM_OPT_TOL_ENERGY       100
SYMMETRY                  False
THRESH                    12
SCF_CONVERGENCE           8
MAX_SUB_FILE_NUM          128
MEM_STATIC                400
MEM_TOTAL                 4000
$end
--------------------------------------------------------------

   15   -1510.1469061866      6.16E-09 Convergence criterion met
 Total energy in the final basis set = -1510.14690619
   14   -1510.2171726622      7.33E-09 Convergence criterion met
 Total energy in the final basis set = -1510.21717266
   14   -1510.2536318030      7.02E-09 Convergence criterion met
 Total energy in the final basis set = -1510.25363180
   14   -1510.2697413819      2.68E-09 Convergence criterion met
 Total energy in the final basis set = -1510.26974138
   13   -1510.2769719303      7.71E-09 Convergence criterion met
 Total energy in the final basis set = -1510.27697193
   13   -1510.2801093593      3.21E-09 Convergence criterion met
 Total energy in the final basis set = -1510.28010936
   13   -1510.2820497426      2.68E-09 Convergence criterion met
 Total energy in the final basis set = -1510.28204974
   13   -1510.2834814621      3.56E-09 Convergence criterion met
   12   -1510.2865904970      2.78E-09 Convergence criterion met
 Total energy in the final basis set = -1510.28659050
   11   -1510.2866505695      6.43E-09 Convergence criterion met
 Total energy in the final basis set = -1510.28665057
   11   -1510.2866815405      5.03E-09 Convergence criterion met
 Total energy in the final basis set = -1510.28668154
   10   -1510.2866911056      9.79E-09 Convergence criterion met
 Total energy in the final basis set = -1510.28669111
   10   -1510.2866936920      7.93E-09 Convergence criterion met
 Total energy in the final basis set = -1510.28669369
    9   -1510.2866914030      5.85E-09 Convergence criterion met
 Total energy in the final basis set = -1510.28669140

             Standard Nuclear Orientation (Angstroms)
    I     Atom           X                Y                Z
 ----------------------------------------------------------------
    1      O       4.3991646287    -1.3794509485    -1.0472941922
    2      C       4.6085301288    -0.2098755896    -0.6550703158
    3      C       3.5508599192     0.9476830315    -0.5894098310
    4      C       2.0882641121     0.4229926162    -0.2897141809
    5      C       1.9817975764    -1.1092465866     0.0302426061
    6      O       1.0815718940    -1.6749966987    -0.9314325184
    7      C       0.7281402656    -3.0715826136    -0.5772211991
    8      C      -0.8166460753    -3.1556007687    -0.8006768829
    9      O      -1.4465303275    -2.3742715923     0.2969605067
   10      C      -2.0752789686    -1.2065310087    -0.2301397746
   11      C      -2.7668728137    -0.4260772585     0.9363187123
   12      C      -3.4628728965     0.8961075072     0.4208573330
   13      C      -3.0618422250     1.3190381033    -1.0412152302
   14      O      -3.8238307414     1.4685486750    -2.0191720034
   15      O       5.8871051382     0.2809372096    -0.2482015610
   16      O      -1.6774408450     1.7176092123    -1.0239546983
   17      O      -2.1161494691    -0.9149097353    -1.4486409474
   18      C      -1.2508594703     2.0594731031    -2.3984913287
   19      C      -4.0394862251    -1.2447557174     1.4277653408
   20      C      -4.6366714889    -0.5444027271     2.7127686675
   21      C      -5.3966158886     0.6780780543     2.0752056822
   22      C      -4.9959135371     0.5166057837     0.5581594044
   23      O      -5.0264896611    -0.9533549247     0.3632149987
   24      H      -2.0410494951    -0.2463667451     1.7493138638
   25      H      -3.2058308369     1.7401989473     1.0866946131
   26      H      -3.8676175467    -2.3351449145     1.5181711342
   27      H      -5.3263600357    -1.2242002801     3.2375837849
   28      H      -3.8454322328    -0.2346633532     3.4141202216
   29      H      -6.4873017910     0.5789744248     2.1957156952
   30      H      -5.0804985053     1.6461700967     2.4952098297
   31      H      -5.6527667607     1.0183480126    -0.1788772700
   32      O       2.4456219211    -1.7300778395     1.0110678065
   33      C       6.8926271517    -0.8039924533    -0.3344860385
   34      C       3.7643707603     1.9617367943     0.6136286677
   35      C       2.9271221069     3.2665831639     0.3071311632
   36      C       1.4632882584     2.7617111234     0.5899770521
   37      C       1.7340194819     1.2656060382     1.0123256967
   38      O       3.0263670939     1.3318867047     1.7323128754
   39      H       3.5807813367     1.4782419262    -1.5596501883
   40      H       1.3967790221     0.6418260226    -1.1217996334
   41      H       7.0015080642    -1.1768165808    -1.3735059121
   42      H       4.8254600452     2.1221724050     0.8844878037
   43      H       3.2138616137     4.0776162132     0.9953528765
   44      H       3.0668448956     3.6167367718    -0.7280194543
   45      H       0.9979988151     3.3157675316     1.4205545944
   46      H       0.8038803968     2.8277510953    -0.2895019073
   47      H       0.9553986584     0.8078170666     1.6524392434
   48      H       6.6248310610    -1.6580665491     0.3203165220
   49      H       7.8477815982    -0.3616362941     0.0031741404
   50      H      -0.2105545536     2.4256117914    -2.3200396890
   51      H      -1.8897589945     2.8494317609    -2.8434099171
   52      H      -1.2797441694     1.1680396758    -3.0582684530
   53      H      -1.0989271728    -2.7061018851    -1.7767493202
   54      H      -1.1780643473    -4.2028809598    -0.7305225488
   55      H       1.0107103107    -3.2786481149     0.4774348808
   56      H       1.2649903878    -3.7797917505    -1.2458511029
 ----------------------------------------------------------------

    9   -1510.2866905618      3.09E-09 Convergence criterion met
 Total energy in the final basis set = -1510.28669056
 Final energy is   -1510.28669056175
 **  OPTIMIZATION CONVERGED  **

                    Orbital Energies (a.u.)
 --------------------------------------------------------------

 Alpha MOs
 -- Occupied --
-18.940 -18.939 -18.925 -18.918 -18.887 -18.886 -18.886 -18.877
-18.866 -18.861 -10.107 -10.102 -10.094 -10.091 -10.072 -10.068
-10.066 -10.061 -10.059 -10.058 -10.057 -10.056 -10.041 -10.039
-10.034 -10.033 -10.021 -10.019 -10.019 -10.018  -1.022  -1.015
 -1.004  -0.997  -0.970  -0.969  -0.945  -0.939  -0.928  -0.925
 -0.764  -0.762  -0.728  -0.722  -0.714  -0.705  -0.696  -0.663
 -0.656  -0.617  -0.597  -0.576  -0.545  -0.543  -0.537  -0.536
 -0.513  -0.511  -0.488  -0.474  -0.463  -0.456  -0.453  -0.449
 -0.433  -0.430  -0.421  -0.416  -0.413  -0.412  -0.405  -0.403
 -0.399  -0.377  -0.373  -0.366  -0.361  -0.355  -0.352  -0.350
 -0.342  -0.339  -0.338  -0.333  -0.329  -0.324  -0.320  -0.312
 -0.310  -0.305  -0.303  -0.302  -0.295  -0.283  -0.277  -0.274
 -0.272  -0.257  -0.254  -0.246  -0.244  -0.234  -0.233  -0.186
 -0.180  -0.167  -0.165  -0.162  -0.156  -0.147  -0.145  -0.143
 -0.142

          Ground-State Mulliken Net Atomic Charges

     Atom                 Charge (a.u.)
  ----------------------------------------
      1 O                    -0.211652
      2 C                     0.213076
      3 C                    -0.078654
      4 C                    -0.080158
      5 C                     0.213538
      6 O                    -0.175161
      7 C                    -0.052231
      8 C                    -0.053715
      9 O                    -0.172209
     10 C                     0.218596
     11 C                    -0.076857
     12 C                    -0.081589
     13 C                     0.217160
     14 O                    -0.217250
     15 O                    -0.168697
     16 O                    -0.180347
     17 O                    -0.206076
     18 C                    -0.128991
     19 C                     0.024728
     20 C                    -0.144390
     21 C                    -0.143059
     22 C                     0.023913
     23 O                    -0.190656
     24 H                     0.086854
     25 H                     0.082754
     26 H                     0.085565
     27 H                     0.078461
     28 H                     0.073865
     29 H                     0.078294
     30 H                     0.073325
     31 H                     0.091178
     32 O                    -0.215715
     33 C                    -0.127618
     34 C                     0.023728
     35 C                    -0.144157
     36 C                    -0.144173
     37 C                     0.027221
     38 O                    -0.188160
     39 H                     0.084429
     40 H                     0.087918
     41 H                     0.089056
     42 H                     0.091301
     43 H                     0.077586
     44 H                     0.072065
     45 H                     0.077348
     46 H                     0.077037
     47 H                     0.081851
     48 H                     0.093516
     49 H                     0.091316
     50 H                     0.079911
     51 H                     0.088036
     52 H                     0.092702
     53 H                     0.108236
     54 H                     0.087720
     55 H                     0.102648
     56 H                     0.086586
  ----------------------------------------
  Sum of atomic charges =    -0.000000

                    Cartesian Multipole Moments
 -----------------------------------------------------------------
    Charge (ESU x 10^10)
                -0.0000
    Dipole Moment (Debye)
         X       1.3638      Y       1.0249      Z       0.5598
       Tot       1.7955
    Quadrupole Moments (Debye-Ang)
        XX    -158.5525     XY       2.0079     YY    -150.8438
        XZ     -17.5999     YZ       0.6319     ZZ    -162.6653

 Total job time:  59.64s(wall), 2837.97s(cpu)
        *  Thank you very much for using Q-Chem.  Have a nice day.  *
