 Q-Chem 5.0, Q-Chem, Inc., Pleasanton, CA (2017)
 Q-Chem 5.0.1 for Intel X86 EM64T Linux

User input:
--------------------------------------------------------------
$molecule
0  1
O 4.4783815356 -1.2594903175 -0.959788504
C 4.4845196278 -0.1920551763 -0.3075168534
C 3.4807781349 1.0053475106 -0.4794576636
C 1.9751739287 0.5327228856 -0.6415260724
C 1.7772014699 -0.9943757347 -0.3616105929
O 1.1138649649 -1.5874337446 -1.4882423561
C 0.8292542865 -3.0171386256 -1.2070804441
C -0.7258083095 -3.1891015221 -1.1991430787
O -1.2307864037 -2.4697622649 -0.0002097866
C -1.9475635735 -1.2995384442 -0.3937940473
C -2.5003030013 -0.5935116547 0.8853977265
C -3.1066141353 0.8338367583 0.5695323064
C -2.9117636567 1.3097834099 -0.9178489341
O -3.809536197 1.5224082039 -1.7595328723
O 5.4599094084 0.1283260128 0.6868065123
O -1.5221438782 1.6225603797 -1.1204518014
O -2.1485643537 -0.9609794837 -1.5835339129
C -1.3066995898 1.9600903307 -2.5448816318
C -3.7962951647 -1.3513932725 1.415172299
C -4.1606483952 -0.7865071273 2.8456912236
C -4.8025005629 0.6022638526 2.4731154921
C -4.6370169505 0.5983147039 0.9041808631
O -4.8644519377 -0.8209429217 0.5401097458
H -1.7061820585 -0.5577439401 1.6526917669
H -2.6599907673 1.5950290806 1.2345531727
H -3.7383555487 -2.455031693 1.3425197395
H -4.8856127761 -1.4479738717 3.3460726151
H -3.2715056477 -0.6870277788 3.4888354457
H -5.8682705827 0.6400979828 2.7496292639
H -4.2837116167 1.4523455339 2.9445928525
H -5.3260522286 1.2546186568 0.3379856549
O 2.078987166 -1.617529155 0.6805893132
C 6.4081187539 -0.9989007952 0.8433212268
C 3.3707501446 1.9507664436 0.7921127582
C 2.7519804233 3.3256480298 0.3261123705
C 1.2569855504 2.9063348844 0.0717865413
C 1.2802628019 1.3875963522 0.5041054367
O 2.2821290622 1.343384582 1.5938358961
H 3.8004027018 1.5787020844 -1.3696515447
H 1.5697675342 0.7630655092 -1.6416466678
H 6.9695922699 -1.1928415359 -0.0936105664
H 4.3034354041 2.0129219283 1.3842161542
H 2.8306484167 4.074916238 1.130010154
H 3.2438708885 3.7225085458 -0.5764209656
H 0.5587809426 3.4741690554 0.7065405579
H 0.9544953834 3.0318511107 -0.9786735638
H 0.3052022541 0.9864041353 0.8413530038
H 5.8844384592 -1.9302295604 1.1402163103
H 7.1111629602 -0.696567263 1.6411039142
H -0.2334370923 2.201423923 -2.6497425998
H -1.915454435 2.8329408899 -2.857735433
H -1.5565852342 1.0996936842 -3.1988812275
H -1.1800316075 -2.7435500672 -2.1101137858
H -1.0070295063 -4.2584613562 -1.1023193675
H 1.2646861488 -3.2767943842 -0.2174224025
H 1.2892385776 -3.6343668493 -2.0074045461
$end

$rem
JOBTYPE                   OPT
METHOD                    B3LYP
DFT_D                     d3_op
BASIS                     STO-3G
GEOM_OPT_MAX_CYCLES       100
GEOM_OPT_TOL_GRADIENT     300
GEOM_OPT_TOL_DISPLACEMENT 1200
GEOM_OPT_TOL_ENERGY       100
SYMMETRY                  False
THRESH                    12
SCF_CONVERGENCE           8
MAX_SUB_FILE_NUM          128
MEM_STATIC                400
MEM_TOTAL                 4000
$end
--------------------------------------------------------------

   16   -1510.2900536871      6.63E-09 Convergence criterion met
 Total energy in the final basis set = -1510.29005369
   14   -1510.2891136732      6.07E-09 Convergence criterion met
 Total energy in the final basis set = -1510.28911367
   14   -1510.2860187076      7.44E-09 Convergence criterion met
 Total energy in the final basis set = -1510.28601871
   15   -1510.2851342249      8.35E-09 Convergence criterion met
 Total energy in the final basis set = -1510.28513422
   13   -1510.2874423613      8.34E-09 Convergence criterion met
 Total energy in the final basis set = -1510.28744236
   14   -1510.2900683288      7.92E-09 Convergence criterion met
 Total energy in the final basis set = -1510.29006833
   14   -1510.2844166061      2.75E-09 Convergence criterion met
 Total energy in the final basis set = -1510.28441661
   14   -1510.2918103310      1.69E-09 Convergence criterion met
   12   -1510.3026352136      9.03E-09 Convergence criterion met
 Total energy in the final basis set = -1510.30263521
   11   -1510.3026633398      8.48E-09 Convergence criterion met
 Total energy in the final basis set = -1510.30266334
   11   -1510.3026883524      7.00E-09 Convergence criterion met
 Total energy in the final basis set = -1510.30268835
   10   -1510.3026760194      9.10E-09 Convergence criterion met
 Total energy in the final basis set = -1510.30267602
   11   -1510.3026824993      3.02E-09 Convergence criterion met
 Total energy in the final basis set = -1510.30268250
    9   -1510.3026859944      7.76E-09 Convergence criterion met
 Total energy in the final basis set = -1510.30268599

             Standard Nuclear Orientation (Angstroms)
    I     Atom           X                Y                Z
 ----------------------------------------------------------------
    1      O       3.6604226313    -1.3438302693     0.6877062619
    2      C       3.8100026682    -0.2785482257     0.0468341757
    3      C       2.7546730431     0.8607788470    -0.1357599621
    4      C       1.3085901283     0.4160699879     0.3188623863
    5      C       1.1669403958    -1.1072172786     0.6523962178
    6      O       1.2850805319    -1.8288196479    -0.5940080960
    7      C       0.9702800559    -3.2587362901    -0.3987658802
    8      C      -0.5228561344    -3.5256597043    -0.8247162468
    9      O      -1.4186119890    -2.7242390133     0.0435634955
   10      C      -1.6451119033    -1.4326634265    -0.5197599696
   11      C      -2.3142968496    -0.5341278067     0.5701648706
   12      C      -2.5990151660     0.9329072774     0.0543588416
   13      C      -2.1456388991     1.2057839515    -1.4278512910
   14      O      -2.8638110153     1.2665408871    -2.4455622100
   15      O       5.0195369040     0.0932306895    -0.6173094667
   16      O      -0.7484808827     1.5873710437    -1.4157771158
   17      O      -1.3630222252    -1.0985639680    -1.6943474524
   18      C      -0.2698521501     1.8069456651    -2.7981688510
   19      C      -3.7856364292    -1.0268941031     0.9165833907
   20      C      -4.2548955475    -0.3041765237     2.2403024224
   21      C      -4.5478864306     1.1475792892     1.7063079397
   22      C      -4.1799106019     0.9901619757     0.1796942591
   23      O      -4.6037914700    -0.3929237221    -0.1410020922
   24      H      -1.6633848651    -0.5435479414     1.4637207285
   25      H      -2.1065638649     1.6758381360     0.7061911629
   26      H      -3.9080175521    -2.1273715440     0.9060214369
   27      H      -5.1652170011    -0.7812572499     2.6369275004
   28      H      -3.4768325090    -0.3238391435     3.0203332311
   29      H      -5.6107234929     1.4133093316     1.8213152853
   30      H      -3.9353304464     1.9163557362     2.2035127730
   31      H      -4.6633720123     1.7087111682    -0.5099558511
   32      O       0.8591334427    -1.6313613801     1.7437470822
   33      C       6.0431757496    -0.9616671788    -0.4292718492
   34      C       3.0387641815     2.0386447284     0.8974808863
   35      C       2.1230123441     3.2703020416     0.5203010198
   36      C       0.7185795693     2.7792662830     1.0333263081
   37      C       1.0886118945     1.3451599721     1.5828168583
   38      O       2.4458356760     1.5257603942     2.1507143419
   39      H       2.7826193756     1.2185102514    -1.1803785174
   40      H       0.5516374770     0.6699384033    -0.4576516430
   41      H       5.7162683376    -1.9273246001    -0.8662035148
   42      H       4.1123742786     2.2725679336     1.0366703726
   43      H       2.4587895399     4.1753000538     1.0510075325
   44      H       2.1305747507     3.4717464067    -0.5628406404
   45      H       0.3301225288     3.4245528879     1.8367858481
   46      H      -0.0204450252     2.7099634498     0.2160405699
   47      H       0.4054848030     0.9242436706     2.3459681509
   48      H       6.2725279466    -1.1210799473     0.6440820684
   49      H       6.9487215193    -0.6053409557    -0.9536909302
   50      H       0.7652849165     2.1844744299    -2.7092033456
   51      H      -0.8971270693     2.5496703693    -3.3308837900
   52      H      -0.2736903822     0.8579114962    -3.3722356461
   53      H      -0.6735743511    -3.2482276985    -1.8895105450
   54      H      -0.7873322098    -4.5904927668    -0.6639495847
   55      H       1.1072988248    -3.5323330053     0.6693420389
   56      H       1.6564955087    -3.8489439859    -1.0403636483
 ----------------------------------------------------------------

    9   -1510.3026853979      3.61E-09 Convergence criterion met
 Total energy in the final basis set = -1510.30268540
 Final energy is   -1510.30268539793
 **  OPTIMIZATION CONVERGED  **

                    Orbital Energies (a.u.)
 --------------------------------------------------------------

 Alpha MOs
 -- Occupied --
-18.942 -18.938 -18.938 -18.917 -18.889 -18.889 -18.880 -18.879
-18.875 -18.863 -10.109 -10.102 -10.100 -10.089 -10.074 -10.067
-10.066 -10.065 -10.062 -10.060 -10.056 -10.048 -10.041 -10.038
-10.034 -10.021 -10.020 -10.015 -10.015 -10.007  -1.024  -1.014
 -1.009  -0.997  -0.972  -0.964  -0.947  -0.938  -0.937  -0.926
 -0.766  -0.757  -0.727  -0.719  -0.713  -0.703  -0.694  -0.664
 -0.663  -0.617  -0.597  -0.576  -0.548  -0.541  -0.538  -0.531
 -0.514  -0.506  -0.489  -0.472  -0.469  -0.458  -0.452  -0.446
 -0.433  -0.427  -0.426  -0.417  -0.414  -0.413  -0.410  -0.402
 -0.398  -0.379  -0.374  -0.368  -0.359  -0.357  -0.352  -0.350
 -0.343  -0.340  -0.337  -0.334  -0.328  -0.327  -0.319  -0.315
 -0.309  -0.306  -0.302  -0.298  -0.295  -0.285  -0.280  -0.274
 -0.269  -0.255  -0.253  -0.249  -0.238  -0.236  -0.226  -0.194
 -0.180  -0.179  -0.165  -0.157  -0.154  -0.152  -0.146  -0.144
 -0.138

          Ground-State Mulliken Net Atomic Charges

     Atom                 Charge (a.u.)
  ----------------------------------------
      1 O                    -0.208034
      2 C                     0.214367
      3 C                    -0.077802
      4 C                    -0.098327
      5 C                     0.211843
      6 O                    -0.181266
      7 C                    -0.053546
      8 C                    -0.051869
      9 O                    -0.169351
     10 C                     0.215164
     11 C                    -0.079935
     12 C                    -0.083008
     13 C                     0.221204
     14 O                    -0.208219
     15 O                    -0.169582
     16 O                    -0.176781
     17 O                    -0.206332
     18 C                    -0.127402
     19 C                     0.025757
     20 C                    -0.143512
     21 C                    -0.144150
     22 C                     0.025525
     23 O                    -0.188444
     24 H                     0.093192
     25 H                     0.085145
     26 H                     0.087956
     27 H                     0.078996
     28 H                     0.076123
     29 H                     0.078613
     30 H                     0.073651
     31 H                     0.088388
     32 O                    -0.219300
     33 C                    -0.128269
     34 C                     0.025110
     35 C                    -0.143552
     36 C                    -0.152095
     37 C                     0.022248
     38 O                    -0.192328
     39 H                     0.083476
     40 H                     0.108015
     41 H                     0.089465
     42 H                     0.081768
     43 H                     0.075793
     44 H                     0.070372
     45 H                     0.070758
     46 H                     0.084581
     47 H                     0.081152
     48 H                     0.091010
     49 H                     0.090970
     50 H                     0.086313
     51 H                     0.091766
     52 H                     0.096897
     53 H                     0.098297
     54 H                     0.090596
     55 H                     0.102114
     56 H                     0.086484
  ----------------------------------------
  Sum of atomic charges =    -0.000000

                    Cartesian Multipole Moments
 -----------------------------------------------------------------
    Charge (ESU x 10^10)
                -0.0000
    Dipole Moment (Debye)
         X       1.2894      Y       0.5456      Z      -0.6405
       Tot       1.5396
    Quadrupole Moments (Debye-Ang)
        XX    -156.2236     XY      -2.5215     YY    -148.4507
        XZ     -16.0160     YZ       3.3569     ZZ    -167.1198

 Total job time:  117.38s(wall), 5594.93s(cpu)
        *  Thank you very much for using Q-Chem.  Have a nice day.  *
