 Q-Chem 5.0, Q-Chem, Inc., Pleasanton, CA (2017)
 Q-Chem 5.0.1 for Intel X86 EM64T Linux

User input:
--------------------------------------------------------------
$molecule
0  1
O -3.94934 -3.66094 2.70899
C -3.26408 -4.56952 2.26188
C -3.36658 -6.02376 2.66595
C -4.7785 -6.61395 2.81429
C -5.92685 -5.73529 2.37006
O -6.83738 -5.61538 3.38099
C -8.00026 -4.86954 3.00594
C -9.23777 -5.75883 3.06821
O -9.17888 -6.75261 2.03293
C -8.97462 -8.02459 2.45658
C -8.96393 -9.02651 1.32666
C -8.51693 -10.44185 1.72072
C -8.49425 -10.73787 3.20684
O -9.19913 -11.55797 3.77705
O -2.42126 -4.27679 1.23481
O -7.48478 -10.15383 3.91006
O -9.25262 -8.33575 3.6073
C -7.27275 -10.33109 5.26151
C -10.33633 -9.31203 0.69608
C -10.13354 -9.81641 -0.73434
C -9.55949 -11.19402 -0.46961
C -9.65783 -11.24461 1.05978
O -10.79292 -10.46587 1.35653
H -8.28675 -8.60053 0.55095
H -7.51744 -10.71538 1.31593
H -11.01652 -8.43279 0.70645
H -11.14214 -9.93296 -1.19071
H -9.51169 -9.16538 -1.3869
H -10.23352 -11.94904 -0.93167
H -8.51517 -11.35168 -0.81733
H -9.68855 -12.30202 1.40305
O -6.02604 -5.26121 1.24327
C -2.22769 -3.01289 0.71733
C -2.76847 -7.00953 1.63643
C -2.43461 -8.34357 2.3068
C -3.82004 -8.92444 2.49103
C -4.67086 -7.81933 1.86301
O -3.86303 -7.33667 0.81574
H -2.81938 -6.09267 3.63238
H -4.97037 -6.95684 3.85795
H -1.83963 -2.33282 1.50572
H -1.86274 -6.62777 1.11875
H -1.88623 -8.97306 1.56973
H -1.82954 -8.24617 3.23362
H -3.90179 -9.84528 1.87104
H -4.10655 -9.15243 3.54049
H -5.66695 -8.22112 1.57062
H -3.18215 -2.61388 0.31258
H -1.48476 -3.06646 -0.10465
H -6.3855 -9.74145 5.57072
H -7.08759 -11.40336 5.48554
H -8.1557 -9.97533 5.83453
H -9.31403 -6.14269 4.10903
H -10.14471 -5.14134 2.89585
H -7.97688 -4.38913 2.00271
H -8.11925 -4.04327 3.73876
$end

$opt
CONSTRAINT
tors           1           2           3           4     +43.158
tors           3           4           5           6    -126.306
tors           4           5           6           7    -176.059
tors           5           6           7           8    +116.447
tors           6           7           8           9     -68.575
tors           7           8           9          10    +110.044
tors           8           9          10          11    +178.277
tors           9          10          11          12    +170.715
tors          11          12          13          14    +115.644
ENDCONSTRAINT
$end

$rem
JOBTYPE                   OPT
METHOD                    B3LYP
DFT_D                     d3_op
BASIS                     STO-3G
GEOM_OPT_MAX_CYCLES       100
GEOM_OPT_TOL_GRADIENT     300
GEOM_OPT_TOL_DISPLACEMENT 1200
GEOM_OPT_TOL_ENERGY       100
SYMMETRY                  False
THRESH                    12
SCF_CONVERGENCE           8
MAX_SUB_FILE_NUM          128
MEM_STATIC                400
MEM_TOTAL                 4000
$end
--------------------------------------------------------------

   15   -1510.1523987047      6.95E-09 Convergence criterion met
 Total energy in the final basis set = -1510.15239870
   14   -1510.2223277679      6.43E-09 Convergence criterion met
 Total energy in the final basis set = -1510.22232777
   14   -1510.2602450218      6.35E-09 Convergence criterion met
 Total energy in the final basis set = -1510.26024502
   14   -1510.2779804827      6.72E-09 Convergence criterion met
 Total energy in the final basis set = -1510.27798048
   13   -1510.2846997282      7.29E-09 Convergence criterion met
 Total energy in the final basis set = -1510.28469973
    2   -1510.2846997283      3.78E-09 Convergence criterion met
 Total energy in the final basis set = -1510.28469973
   13   -1510.2869718991      4.25E-09 Convergence criterion met
 Total energy in the final basis set = -1510.28697190
   14   -1510.2872137716      1.47E-09 Convergence criterion met
   11   -1510.2897339065      4.05E-09 Convergence criterion met
 Total energy in the final basis set = -1510.28973391
   10   -1510.2897606983      9.44E-09 Convergence criterion met
 Total energy in the final basis set = -1510.28976070
   10   -1510.2897760349      7.82E-09 Convergence criterion met
 Total energy in the final basis set = -1510.28977603
   10   -1510.2897852533      7.84E-09 Convergence criterion met
 Total energy in the final basis set = -1510.28978525
    9   -1510.2897884458      6.22E-09 Convergence criterion met
 Total energy in the final basis set = -1510.28978845
    9   -1510.2897894759      2.93E-09 Convergence criterion met
 Total energy in the final basis set = -1510.28978948

             Standard Nuclear Orientation (Angstroms)
    I     Atom           X                Y                Z
 ----------------------------------------------------------------
    1      O       4.4783815356    -1.2594903175    -0.9597885040
    2      C       4.4845196278    -0.1920551763    -0.3075168534
    3      C       3.4807781349     1.0053475106    -0.4794576636
    4      C       1.9751739287     0.5327228856    -0.6415260724
    5      C       1.7772014699    -0.9943757347    -0.3616105929
    6      O       1.1138649649    -1.5874337446    -1.4882423561
    7      C       0.8292542865    -3.0171386256    -1.2070804441
    8      C      -0.7258083095    -3.1891015221    -1.1991430787
    9      O      -1.2307864037    -2.4697622649    -0.0002097866
   10      C      -1.9475635735    -1.2995384442    -0.3937940473
   11      C      -2.5003030013    -0.5935116547     0.8853977265
   12      C      -3.1066141353     0.8338367583     0.5695323064
   13      C      -2.9117636567     1.3097834099    -0.9178489341
   14      O      -3.8095361970     1.5224082039    -1.7595328723
   15      O       5.4599094084     0.1283260128     0.6868065123
   16      O      -1.5221438782     1.6225603797    -1.1204518014
   17      O      -2.1485643537    -0.9609794837    -1.5835339129
   18      C      -1.3066995898     1.9600903307    -2.5448816318
   19      C      -3.7962951647    -1.3513932725     1.4151722990
   20      C      -4.1606483952    -0.7865071273     2.8456912236
   21      C      -4.8025005629     0.6022638526     2.4731154921
   22      C      -4.6370169505     0.5983147039     0.9041808631
   23      O      -4.8644519377    -0.8209429217     0.5401097458
   24      H      -1.7061820585    -0.5577439401     1.6526917669
   25      H      -2.6599907673     1.5950290806     1.2345531727
   26      H      -3.7383555487    -2.4550316930     1.3425197395
   27      H      -4.8856127761    -1.4479738717     3.3460726151
   28      H      -3.2715056477    -0.6870277788     3.4888354457
   29      H      -5.8682705827     0.6400979828     2.7496292639
   30      H      -4.2837116167     1.4523455339     2.9445928525
   31      H      -5.3260522286     1.2546186568     0.3379856549
   32      O       2.0789871660    -1.6175291550     0.6805893132
   33      C       6.4081187539    -0.9989007952     0.8433212268
   34      C       3.3707501446     1.9507664436     0.7921127582
   35      C       2.7519804233     3.3256480298     0.3261123705
   36      C       1.2569855504     2.9063348844     0.0717865413
   37      C       1.2802628019     1.3875963522     0.5041054367
   38      O       2.2821290622     1.3433845820     1.5938358961
   39      H       3.8004027018     1.5787020844    -1.3696515447
   40      H       1.5697675342     0.7630655092    -1.6416466678
   41      H       6.9695922699    -1.1928415359    -0.0936105664
   42      H       4.3034354041     2.0129219283     1.3842161542
   43      H       2.8306484167     4.0749162380     1.1300101540
   44      H       3.2438708885     3.7225085458    -0.5764209656
   45      H       0.5587809426     3.4741690554     0.7065405579
   46      H       0.9544953834     3.0318511107    -0.9786735638
   47      H       0.3052022541     0.9864041353     0.8413530038
   48      H       5.8844384592    -1.9302295604     1.1402163103
   49      H       7.1111629602    -0.6965672630     1.6411039142
   50      H      -0.2334370923     2.2014239230    -2.6497425998
   51      H      -1.9154544350     2.8329408899    -2.8577354330
   52      H      -1.5565852342     1.0996936842    -3.1988812275
   53      H      -1.1800316075    -2.7435500672    -2.1101137858
   54      H      -1.0070295063    -4.2584613562    -1.1023193675
   55      H       1.2646861488    -3.2767943842    -0.2174224025
   56      H       1.2892385776    -3.6343668493    -2.0074045461
 ----------------------------------------------------------------

    8   -1510.2897904256      8.70E-09 Convergence criterion met
 Total energy in the final basis set = -1510.28979043
 Final energy is   -1510.28979042560
 **  OPTIMIZATION CONVERGED  **

                    Orbital Energies (a.u.)
 --------------------------------------------------------------

 Alpha MOs
 -- Occupied --
-18.940 -18.937 -18.929 -18.920 -18.887 -18.885 -18.885 -18.873
-18.870 -18.863 -10.106 -10.100 -10.096 -10.091 -10.071 -10.066
-10.065 -10.062 -10.058 -10.056 -10.056 -10.056 -10.041 -10.038
-10.036 -10.034 -10.020 -10.019 -10.019 -10.017  -1.021  -1.013
 -1.006  -0.998  -0.970  -0.968  -0.944  -0.937  -0.930  -0.925
 -0.764  -0.761  -0.727  -0.721  -0.714  -0.705  -0.696  -0.661
 -0.656  -0.618  -0.597  -0.576  -0.545  -0.543  -0.537  -0.535
 -0.511  -0.511  -0.488  -0.473  -0.462  -0.457  -0.453  -0.448
 -0.433  -0.430  -0.424  -0.417  -0.413  -0.411  -0.405  -0.402
 -0.399  -0.377  -0.373  -0.364  -0.360  -0.356  -0.354  -0.348
 -0.343  -0.340  -0.338  -0.333  -0.329  -0.324  -0.321  -0.312
 -0.308  -0.304  -0.301  -0.301  -0.290  -0.287  -0.278  -0.274
 -0.272  -0.255  -0.252  -0.246  -0.244  -0.234  -0.232  -0.188
 -0.178  -0.167  -0.164  -0.162  -0.157  -0.150  -0.145  -0.142
 -0.141

          Ground-State Mulliken Net Atomic Charges

     Atom                 Charge (a.u.)
  ----------------------------------------
      1 O                    -0.215806
      2 C                     0.212184
      3 C                    -0.078815
      4 C                    -0.077936
      5 C                     0.212290
      6 O                    -0.172065
      7 C                    -0.056240
      8 C                    -0.054971
      9 O                    -0.171887
     10 C                     0.215565
     11 C                    -0.078669
     12 C                    -0.081842
     13 C                     0.216352
     14 O                    -0.215387
     15 O                    -0.168144
     16 O                    -0.179628
     17 O                    -0.207700
     18 C                    -0.128167
     19 C                     0.025634
     20 C                    -0.143799
     21 C                    -0.143738
     22 C                     0.024587
     23 O                    -0.189157
     24 H                     0.088005
     25 H                     0.082536
     26 H                     0.084796
     27 H                     0.078524
     28 H                     0.074871
     29 H                     0.078234
     30 H                     0.073323
     31 H                     0.090803
     32 O                    -0.214515
     33 C                    -0.127291
     34 C                     0.023044
     35 C                    -0.144163
     36 C                    -0.142027
     37 C                     0.028143
     38 O                    -0.188712
     39 H                     0.083983
     40 H                     0.086884
     41 H                     0.088334
     42 H                     0.092844
     43 H                     0.077252
     44 H                     0.071953
     45 H                     0.077832
     46 H                     0.073973
     47 H                     0.084192
     48 H                     0.093690
     49 H                     0.091050
     50 H                     0.080491
     51 H                     0.087073
     52 H                     0.094875
     53 H                     0.105705
     54 H                     0.088069
     55 H                     0.106626
     56 H                     0.086943
  ----------------------------------------
  Sum of atomic charges =    -0.000000

                    Cartesian Multipole Moments
 -----------------------------------------------------------------
    Charge (ESU x 10^10)
                -0.0000
    Dipole Moment (Debye)
         X       1.9065      Y       0.7339      Z       0.6833
       Tot       2.1541
    Quadrupole Moments (Debye-Ang)
        XX    -161.0663     XY       2.9781     YY    -149.3920
        XZ     -11.6146     YZ       0.1500     ZZ    -160.7819

 Total job time:  60.94s(wall), 2903.87s(cpu)
        *  Thank you very much for using Q-Chem.  Have a nice day.  *
