 Q-Chem 5.0, Q-Chem, Inc., Pleasanton, CA (2017)
 Q-Chem 5.0.1 for Intel X86 EM64T Linux

User input:
--------------------------------------------------------------
$molecule
0  1
O -3.94934 -3.66094 2.70899
C -3.26408 -4.56952 2.26188
C -3.36658 -6.02376 2.66595
C -4.7785 -6.61395 2.81429
C -5.92685 -5.73529 2.37006
O -6.82124 -5.58881 3.39184
C -8.00303 -4.87786 3.00819
C -9.23922 -5.73032 3.27513
O -9.49626 -6.58546 2.15017
C -9.24866 -7.90359 2.3511
C -9.57704 -8.75413 1.14719
C -9.21086 -10.23917 1.28447
C -8.91405 -10.71927 2.69093
O -9.54013 -11.57943 3.29318
O -2.43737 -4.28157 1.22048
O -7.6659 -10.41945 3.15105
O -8.7881 -8.29253 3.41157
C -7.13774 -10.87882 4.34008
C -11.08 -8.8412 0.83215
C -11.26929 -9.17241 -0.64633
C -10.78937 -10.60967 -0.67668
C -10.55058 -10.85239 0.81954
O -11.49918 -10.02947 1.45587
H -9.03486 -8.29685 0.28802
H -8.3597 -10.5463 0.63719
H -11.64325 -7.92077 1.09998
H -12.36571 -9.15876 -0.84179
H -10.76255 -8.48868 -1.36093
H -11.61869 -11.24696 -1.05623
H -9.86593 -10.79062 -1.26841
H -10.62027 -11.9399 1.04213
O -6.03259 -5.26429 1.24276
C -2.26696 -3.02343 0.68126
C -2.76299 -7.01451 1.64599
C -2.43488 -8.34462 2.32868
C -3.82156 -8.92624 2.49948
C -4.66814 -7.82143 1.86594
O -3.8537 -7.34382 0.821
H -2.82366 -6.08716 3.63521
H -4.96949 -6.95407 3.85903
H -1.87644 -2.3263 1.45317
H -1.85352 -6.6348 1.13338
H -1.87425 -8.98106 1.60733
H -1.84486 -8.23638 3.26421
H -3.8989 -9.84406 1.87441
H -4.11416 -9.15933 3.54565
H -5.66335 -8.22245 1.56932
H -3.23239 -2.64296 0.28436
H -1.53626 -3.08067 -0.15135
H -6.11308 -10.47331 4.46343
H -7.08487 -11.98837 4.33356
H -7.76264 -10.53661 5.19251
H -9.17862 -6.2128 4.27632
H -10.11545 -5.04976 3.3334
H -8.04889 -4.46186 1.97684
H -8.0558 -4.00438 3.69294
$end

$opt
CONSTRAINT
tors           1           2           3           4     +43.158
tors           3           4           5           6    -124.837
tors           4           5           6           7    -174.206
tors           5           6           7           8    +122.696
tors           6           7           8           9     -86.396
tors           7           8           9          10    +108.882
tors           8           9          10          11    +178.277
tors           9          10          11          12    +175.400
tors          11          12          13          14    +118.469
ENDCONSTRAINT
$end

$rem
JOBTYPE                   OPT
METHOD                    B3LYP
DFT_D                     d3_op
BASIS                     STO-3G
GEOM_OPT_MAX_CYCLES       100
GEOM_OPT_TOL_GRADIENT     300
GEOM_OPT_TOL_DISPLACEMENT 1200
GEOM_OPT_TOL_ENERGY       100
SYMMETRY                  False
THRESH                    12
SCF_CONVERGENCE           8
MAX_SUB_FILE_NUM          128
MEM_STATIC                400
MEM_TOTAL                 4000
$end
--------------------------------------------------------------

   15   -1510.1511567134      6.82E-09 Convergence criterion met
 Total energy in the final basis set = -1510.15115671
   14   -1510.2209182795      7.08E-09 Convergence criterion met
 Total energy in the final basis set = -1510.22091828
   14   -1510.2573702223      7.50E-09 Convergence criterion met
 Total energy in the final basis set = -1510.25737022
   14   -1510.2731209466      2.20E-09 Convergence criterion met
 Total energy in the final basis set = -1510.27312095
   13   -1510.2800874877      7.37E-09 Convergence criterion met
 Total energy in the final basis set = -1510.28008749
   13   -1510.2821266928      9.04E-09 Convergence criterion met
 Total energy in the final basis set = -1510.28212669
   13   -1510.2846958477      3.94E-09 Convergence criterion met
 Total energy in the final basis set = -1510.28469585
   13   -1510.2853182632      3.31E-09 Convergence criterion met
   12   -1510.2869122099      5.59E-09 Convergence criterion met
 Total energy in the final basis set = -1510.28691221
   11   -1510.2870552137      5.01E-09 Convergence criterion met
 Total energy in the final basis set = -1510.28705521
   12   -1510.2871222208      1.64E-09 Convergence criterion met
 Total energy in the final basis set = -1510.28712222
   11   -1510.2871525001      5.54E-09 Convergence criterion met
 Total energy in the final basis set = -1510.28715250
   11   -1510.2871759851      5.04E-09 Convergence criterion met
 Total energy in the final basis set = -1510.28717599
   10   -1510.2871870011      9.59E-09 Convergence criterion met
 Total energy in the final basis set = -1510.28718700

             Standard Nuclear Orientation (Angstroms)
    I     Atom           X                Y                Z
 ----------------------------------------------------------------
    1      O       4.5569167826    -1.4043546157    -0.9755917396
    2      C       4.6667225851    -0.3956260905    -0.2434572101
    3      C       3.8358010460     0.9320743191    -0.3665428607
    4      C       2.2908988955     0.6715441477    -0.6288572641
    5      C       1.9062447244    -0.8331101947    -0.4348112062
    6      O       1.2691153897    -1.3176477240    -1.6273694225
    7      C       0.7778063333    -2.6984433773    -1.3997264531
    8      C      -0.7641817028    -2.7733276975    -1.6641473373
    9      O      -1.4834011046    -2.4008568613    -0.4192265631
   10      C      -2.1017940584    -1.1216470565    -0.5608384718
   11      C      -2.8791461582    -0.7984214251     0.7566398362
   12      C      -3.5082225518     0.6525822594     0.7504193025
   13      C      -3.1091658844     1.5385587512    -0.4861448974
   14      O      -3.8867526617     2.0108397330    -1.3424338608
   15      O       5.6252489003    -0.2763431705     0.8094184266
   16      O      -1.7225024382     1.9050344717    -0.3702592678
   17      O      -2.0816207968    -0.4392233894    -1.6115227761
   18      C      -1.3308258131     2.6703181164    -1.5745248951
   19      C      -4.1965359753    -1.6889161197     0.8406179311
   20      C      -4.8100204224    -1.5506835814     2.2897047938
   21      C      -5.4658724453    -0.1216978137     2.2100458368
   22      C      -5.0574880313     0.3156579412     0.7499810311
   23      O      -5.1438299195    -0.9482021078    -0.0211397761
   24      H      -2.2156078985    -0.9676931746     1.6233655434
   25      H      -3.2144508934     1.1981601619     1.6655507444
   26      H      -4.0650589533    -2.7275320707     0.4792409120
   27      H      -5.5641802807    -2.3345098521     2.4634862601
   28      H      -4.0390500564    -1.6226620148     3.0735648201
   29      H      -6.5622732708    -0.1759438372     2.3034852605
   30      H      -5.0788289120     0.5686112625     2.9764267331
   31      H      -5.6865024530     1.0961648328     0.2796239804
   32      O       2.0570770946    -1.5169100546     0.6027357238
   33      C       6.4117592922    -1.5268783129     0.9183022398
   34      C       3.7789910763     1.7957323514     0.9673221713
   35      C       3.4011644233     3.2721430078     0.5677905108
   36      C       1.8898715798     3.0899425518     0.1711070756
   37      C       1.6522953737     1.5633718241     0.5185380613
   38      O       2.5607110244     1.3129093611     1.6606777273
   39      H       4.2715658573     1.5212311548    -1.1949055720
   40      H       1.9802771384     0.9921738794    -1.6387990841
   41      H       6.9813556168    -1.7332442098    -0.0110185545
   42      H       4.6675698996     1.6804267780     1.6166470506
   43      H       3.5138327094     3.9459734223     1.4319950099
   44      H       4.0174025523     3.6526894258    -0.2623192260
   45      H       1.2262446500     3.7302061210     0.7734127783
   46      H       1.7149105685     3.3024592253    -0.8954288634
   47      H       0.6049929701     1.3029303306     0.7718631715
   48      H       5.7599319618    -2.3980172276     1.1334663567
   49      H       7.1143318478    -1.3720602866     1.7576445448
   50      H      -0.2909633738     2.9991806057    -1.4095725494
   51      H      -1.9816221683     3.5547565071    -1.7290542254
   52      H      -1.3788948958     2.0329881335    -2.4811943845
   53      H      -1.0572974873    -2.0793833369    -2.4816426725
   54      H      -1.0560748500    -3.8139915018    -1.9156962187
   55      H       1.0194777297    -2.9907426251    -0.3535501302
   56      H       1.3090076988    -3.3734960174    -2.1045315465
 ----------------------------------------------------------------

   10   -1510.2871870460      7.40E-09 Convergence criterion met
 Total energy in the final basis set = -1510.28718705
 Final energy is   -1510.28718704596
 **  OPTIMIZATION CONVERGED  **

                    Orbital Energies (a.u.)
 --------------------------------------------------------------

 Alpha MOs
 -- Occupied --
-18.939 -18.938 -18.930 -18.919 -18.886 -18.886 -18.885 -18.873
-18.871 -18.861 -10.105 -10.101 -10.096 -10.090 -10.072 -10.065
-10.064 -10.061 -10.059 -10.056 -10.055 -10.053 -10.040 -10.038
-10.037 -10.033 -10.021 -10.020 -10.019 -10.018  -1.020  -1.014
 -1.006  -0.998  -0.969  -0.969  -0.944  -0.937  -0.931  -0.924
 -0.763  -0.762  -0.727  -0.722  -0.714  -0.705  -0.696  -0.662
 -0.654  -0.617  -0.597  -0.576  -0.546  -0.543  -0.537  -0.536
 -0.512  -0.510  -0.486  -0.473  -0.460  -0.455  -0.452  -0.449
 -0.435  -0.431  -0.429  -0.415  -0.412  -0.411  -0.404  -0.402
 -0.398  -0.378  -0.372  -0.365  -0.361  -0.354  -0.354  -0.349
 -0.342  -0.340  -0.337  -0.333  -0.329  -0.323  -0.322  -0.311
 -0.310  -0.305  -0.302  -0.300  -0.291  -0.285  -0.277  -0.276
 -0.271  -0.256  -0.253  -0.246  -0.244  -0.233  -0.233  -0.189
 -0.179  -0.167  -0.163  -0.161  -0.157  -0.150  -0.144  -0.142
 -0.141

          Ground-State Mulliken Net Atomic Charges

     Atom                 Charge (a.u.)
  ----------------------------------------
      1 O                    -0.215791
      2 C                     0.211924
      3 C                    -0.078832
      4 C                    -0.078017
      5 C                     0.212190
      6 O                    -0.170808
      7 C                    -0.057974
      8 C                    -0.055499
      9 O                    -0.172404
     10 C                     0.215559
     11 C                    -0.078001
     12 C                    -0.081758
     13 C                     0.216467
     14 O                    -0.216771
     15 O                    -0.167929
     16 O                    -0.179393
     17 O                    -0.207635
     18 C                    -0.130681
     19 C                     0.025307
     20 C                    -0.143983
     21 C                    -0.143676
     22 C                     0.024330
     23 O                    -0.189907
     24 H                     0.088800
     25 H                     0.083454
     26 H                     0.084885
     27 H                     0.078295
     28 H                     0.074487
     29 H                     0.078072
     30 H                     0.073426
     31 H                     0.090924
     32 O                    -0.214958
     33 C                    -0.127203
     34 C                     0.023110
     35 C                    -0.143482
     36 C                    -0.144040
     37 C                     0.024320
     38 O                    -0.187094
     39 H                     0.084238
     40 H                     0.086779
     41 H                     0.088638
     42 H                     0.093202
     43 H                     0.078041
     44 H                     0.072671
     45 H                     0.079241
     46 H                     0.070755
     47 H                     0.090608
     48 H                     0.093523
     49 H                     0.091194
     50 H                     0.083530
     51 H                     0.087584
     52 H                     0.091972
     53 H                     0.106525
     54 H                     0.088665
     55 H                     0.107268
     56 H                     0.085852
  ----------------------------------------
  Sum of atomic charges =    -0.000000

                    Cartesian Multipole Moments
 -----------------------------------------------------------------
    Charge (ESU x 10^10)
                -0.0000
    Dipole Moment (Debye)
         X       1.9306      Y       0.2594      Z       0.8958
       Tot       2.1441
    Quadrupole Moments (Debye-Ang)
        XX    -156.7510     XY       5.9314     YY    -150.1292
        XZ     -12.0943     YZ       0.7407     ZZ    -161.8408

 Total job time:  51.53s(wall), 2453.09s(cpu)
        *  Thank you very much for using Q-Chem.  Have a nice day.  *
