 Q-Chem 5.0, Q-Chem, Inc., Pleasanton, CA (2017)
 Q-Chem 5.0.1 for Intel X86 EM64T Linux

User input:
--------------------------------------------------------------
$molecule
0  1
O 4.5569167826 -1.4043546157 -0.9755917396
C 4.6667225851 -0.3956260905 -0.2434572101
C 3.835801046 0.9320743191 -0.3665428607
C 2.2908988955 0.6715441477 -0.6288572641
C 1.9062447244 -0.8331101947 -0.4348112062
O 1.2691153897 -1.317647724 -1.6273694225
C 0.7778063333 -2.6984433773 -1.3997264531
C -0.7641817028 -2.7733276975 -1.6641473373
O -1.4834011046 -2.4008568613 -0.4192265631
C -2.1017940584 -1.1216470565 -0.5608384718
C -2.8791461582 -0.7984214251 0.7566398362
C -3.5082225518 0.6525822594 0.7504193025
C -3.1091658844 1.5385587512 -0.4861448974
O -3.8867526617 2.010839733 -1.3424338608
O 5.6252489003 -0.2763431705 0.8094184266
O -1.7225024382 1.9050344717 -0.3702592678
O -2.0816207968 -0.4392233894 -1.6115227761
C -1.3308258131 2.6703181164 -1.5745248951
C -4.1965359753 -1.6889161197 0.8406179311
C -4.8100204224 -1.5506835814 2.2897047938
C -5.4658724453 -0.1216978137 2.2100458368
C -5.0574880313 0.3156579412 0.7499810311
O -5.1438299195 -0.9482021078 -0.0211397761
H -2.2156078985 -0.9676931746 1.6233655434
H -3.2144508934 1.1981601619 1.6655507444
H -4.0650589533 -2.7275320707 0.479240912
H -5.5641802807 -2.3345098521 2.4634862601
H -4.0390500564 -1.6226620148 3.0735648201
H -6.5622732708 -0.1759438372 2.3034852605
H -5.078828912 0.5686112625 2.9764267331
H -5.686502453 1.0961648328 0.2796239804
O 2.0570770946 -1.5169100546 0.6027357238
C 6.4117592922 -1.5268783129 0.9183022398
C 3.7789910763 1.7957323514 0.9673221713
C 3.4011644233 3.2721430078 0.5677905108
C 1.8898715798 3.0899425518 0.1711070756
C 1.6522953737 1.5633718241 0.5185380613
O 2.5607110244 1.3129093611 1.6606777273
H 4.2715658573 1.5212311548 -1.194905572
H 1.9802771384 0.9921738794 -1.6387990841
H 6.9813556168 -1.7332442098 -0.0110185545
H 4.6675698996 1.680426778 1.6166470506
H 3.5138327094 3.9459734223 1.4319950099
H 4.0174025523 3.6526894258 -0.262319226
H 1.22624465 3.730206121 0.7734127783
H 1.7149105685 3.3024592253 -0.8954288634
H 0.6049929701 1.3029303306 0.7718631715
H 5.7599319618 -2.3980172276 1.1334663567
H 7.1143318478 -1.3720602866 1.7576445448
H -0.2909633738 2.9991806057 -1.4095725494
H -1.9816221683 3.5547565071 -1.7290542254
H -1.3788948958 2.0329881335 -2.4811943845
H -1.0572974873 -2.0793833369 -2.4816426725
H -1.05607485 -3.8139915018 -1.9156962187
H 1.0194777297 -2.9907426251 -0.3535501302
H 1.3090076988 -3.3734960174 -2.1045315465
$end

$rem
JOBTYPE                   OPT
METHOD                    B3LYP
DFT_D                     d3_op
BASIS                     STO-3G
GEOM_OPT_MAX_CYCLES       100
GEOM_OPT_TOL_GRADIENT     300
GEOM_OPT_TOL_DISPLACEMENT 1200
GEOM_OPT_TOL_ENERGY       100
SYMMETRY                  False
THRESH                    12
SCF_CONVERGENCE           8
MAX_SUB_FILE_NUM          128
MEM_STATIC                400
MEM_TOTAL                 4000
$end
--------------------------------------------------------------

   16   -1510.2870530751      7.53E-09 Convergence criterion met
 Total energy in the final basis set = -1510.28705308
   14   -1510.2883359596      5.85E-09 Convergence criterion met
 Total energy in the final basis set = -1510.28833596
   14   -1510.2912077105      9.39E-09 Convergence criterion met
 Total energy in the final basis set = -1510.29120771
   15   -1510.2876002723      4.27E-09 Convergence criterion met
 Total energy in the final basis set = -1510.28760027
   14   -1510.2928064921      7.82E-09 Convergence criterion met
 Total energy in the final basis set = -1510.29280649
   13   -1510.2934397010      8.66E-09 Convergence criterion met
 Total energy in the final basis set = -1510.29343970
   14   -1510.2937321366      9.53E-09 Convergence criterion met
 Total energy in the final basis set = -1510.29373214
   14   -1510.2949670141      3.97E-09 Convergence criterion met
   12   -1510.2973975642      6.33E-09 Convergence criterion met
 Total energy in the final basis set = -1510.29739756
   12   -1510.2974272760      4.03E-09 Convergence criterion met
 Total energy in the final basis set = -1510.29742728
   11   -1510.2974472705      3.68E-09 Convergence criterion met
 Total energy in the final basis set = -1510.29744727
   11   -1510.2974560843      5.07E-09 Convergence criterion met
 Total energy in the final basis set = -1510.29745608
   11   -1510.2974650468      2.46E-09 Convergence criterion met
 Total energy in the final basis set = -1510.29746505
   11   -1510.2974727306      3.15E-09 Convergence criterion met
 Total energy in the final basis set = -1510.29747273

             Standard Nuclear Orientation (Angstroms)
    I     Atom           X                Y                Z
 ----------------------------------------------------------------
    1      O       3.4455308028    -1.8819117535     0.2085326896
    2      C       3.8759001848    -0.7578082535     0.5535983571
    3      C       3.4138958860     0.6347255688     0.0091931269
    4      C       2.0591627879     0.5701715344    -0.8090816802
    5      C       1.3212131264    -0.8053044895    -0.6366917300
    6      O       1.3842865432    -1.5105466239    -1.8877072536
    7      C       0.7907611233    -2.8626322195    -1.7637698506
    8      C      -0.7657267652    -2.8847657663    -2.0144198628
    9      O      -1.5064981595    -2.4833913756    -0.7951005923
   10      C      -1.8048580451    -1.0874343591    -0.8281030367
   11      C      -2.3295118446    -0.6501834414     0.5774797038
   12      C      -2.8545846813     0.8422265619     0.5993817693
   13      C      -2.7966033678     1.5585522407    -0.7979011763
   14      O      -3.7101046879     1.6588903133    -1.6421574144
   15      O       4.9121853128    -0.5630873908     1.5179337965
   16      O      -1.5322248185     2.2470440770    -0.9014483819
   17      O      -1.6476825326    -0.3556364204    -1.8331625629
   18      C      -1.3970144876     2.8450058515    -2.2472389824
   19      C      -3.6324829022    -1.4423320847     1.0212126702
   20      C      -3.8387796083    -1.2212832870     2.5706236363
   21      C      -4.3585423016     0.2638485779     2.5990821852
   22      C      -4.3564854018     0.6180509247     1.0596238469
   23      O      -4.7290487698    -0.6596425668     0.4073185602
   24      H      -1.4953820382    -0.8019617862     1.2881963830
   25      H      -2.2816328582     1.4479882842     1.3234692964
   26      H      -3.6599080770    -2.4957316005     0.6808585780
   27      H      -4.5947041285    -1.9212865283     2.9609490812
   28      H      -2.9034687044    -1.3577024396     3.1367913031
   29      H      -5.3796665400     0.3276938418     3.0073554658
   30      H      -3.7022145270     0.9326259470     3.1786355281
   31      H      -5.0523311294     1.4222509917     0.7516690088
   32      O       0.7090359796    -1.2137032476     0.3735443333
   33      C       5.3657732307    -1.8722798132     2.0433670217
   34      C       3.0358222168     1.6811144469     1.1500216068
   35      C       3.1482878085     3.1220855140     0.5202919412
   36      C       1.9014715108     3.1148197005    -0.4385224970
   37      C       1.2356723933     1.7216832237    -0.0943403124
   38      O       1.5775529295     1.5068060557     1.3327261214
   39      H       4.2314837864     1.0357307521    -0.6179884402
   40      H       2.2197393585     0.7537404001    -1.8855669912
   41      H       5.8121143763    -2.4992878287     1.2445655125
   42      H       3.5775460640     1.5262497216     2.1033770735
   43      H       3.0505347556     3.8901578350     1.3042102766
   44      H       4.1009325101     3.2769420030    -0.0110823952
   45      H       1.2076133022     3.9384425326    -0.2075869756
   46      H       2.1862319070     3.1823734820    -1.5008551665
   47      H       0.1327337391     1.7001540756    -0.2680665681
   48      H       4.5308388730    -2.4351647534     2.5080745174
   49      H       6.1320552785    -1.6447351088     2.8070037036
   50      H      -0.4504139197     3.4148562318    -2.2398547567
   51      H      -2.2429152044     3.5240263764    -2.4759459608
   52      H      -1.3520965980     2.0566696287    -3.0265531733
   53      H      -1.0241091253    -2.2075896740    -2.8568225921
   54      H      -1.0829444962    -3.9215985610    -2.2485793833
   55      H       1.0047571188    -3.2922723812    -0.7618334160
   56      H       1.2843025410    -3.4772657983    -2.5445190786
 ----------------------------------------------------------------

   11   -1510.2974722405      1.73E-09 Convergence criterion met
 Total energy in the final basis set = -1510.29747224
 Final energy is   -1510.29747224051
 **  OPTIMIZATION CONVERGED  **

                    Orbital Energies (a.u.)
 --------------------------------------------------------------

 Alpha MOs
 -- Occupied --
-18.941 -18.935 -18.926 -18.922 -18.881 -18.881 -18.880 -18.878
-18.863 -18.860 -10.104 -10.103 -10.092 -10.091 -10.070 -10.068
-10.067 -10.056 -10.054 -10.054 -10.053 -10.038 -10.036 -10.032
-10.029 -10.028 -10.015 -10.015 -10.014 -10.012  -1.018  -1.016
 -1.000  -0.997  -0.965  -0.961  -0.941  -0.939  -0.927  -0.926
 -0.758  -0.757  -0.722  -0.717  -0.710  -0.700  -0.691  -0.664
 -0.655  -0.616  -0.593  -0.574  -0.541  -0.539  -0.532  -0.530
 -0.508  -0.506  -0.481  -0.473  -0.456  -0.453  -0.448  -0.445
 -0.428  -0.427  -0.426  -0.415  -0.412  -0.405  -0.404  -0.400
 -0.393  -0.377  -0.375  -0.363  -0.357  -0.352  -0.348  -0.346
 -0.344  -0.336  -0.329  -0.327  -0.323  -0.319  -0.319  -0.310
 -0.309  -0.300  -0.299  -0.296  -0.294  -0.277  -0.274  -0.271
 -0.271  -0.257  -0.249  -0.244  -0.239  -0.229  -0.225  -0.188
 -0.182  -0.168  -0.160  -0.158  -0.155  -0.143  -0.141  -0.139
 -0.135

          Ground-State Mulliken Net Atomic Charges

     Atom                 Charge (a.u.)
  ----------------------------------------
      1 O                    -0.211627
      2 C                     0.212489
      3 C                    -0.079687
      4 C                    -0.080970
      5 C                     0.215926
      6 O                    -0.173543
      7 C                    -0.050938
      8 C                    -0.054054
      9 O                    -0.168470
     10 C                     0.220140
     11 C                    -0.079900
     12 C                    -0.082678
     13 C                     0.219340
     14 O                    -0.213428
     15 O                    -0.169043
     16 O                    -0.175476
     17 O                    -0.214584
     18 C                    -0.128291
     19 C                     0.024793
     20 C                    -0.143350
     21 C                    -0.144155
     22 C                     0.025431
     23 O                    -0.189482
     24 H                     0.103574
     25 H                     0.087345
     26 H                     0.087307
     27 H                     0.076933
     28 H                     0.076103
     29 H                     0.076931
     30 H                     0.074106
     31 H                     0.085865
     32 O                    -0.223413
     33 C                    -0.127979
     34 C                     0.024636
     35 C                    -0.143185
     36 C                    -0.146505
     37 C                     0.008656
     38 O                    -0.192074
     39 H                     0.084693
     40 H                     0.084041
     41 H                     0.089094
     42 H                     0.085849
     43 H                     0.076139
     44 H                     0.071231
     45 H                     0.075169
     46 H                     0.068968
     47 H                     0.107665
     48 H                     0.092354
     49 H                     0.091701
     50 H                     0.086400
     51 H                     0.089446
     52 H                     0.093895
     53 H                     0.100414
     54 H                     0.088601
     55 H                     0.099841
     56 H                     0.087753
  ----------------------------------------
  Sum of atomic charges =     0.000000

                    Cartesian Multipole Moments
 -----------------------------------------------------------------
    Charge (ESU x 10^10)
                 0.0000
    Dipole Moment (Debye)
         X       3.2557      Y      -0.0720      Z       0.5668
       Tot       3.3055
    Quadrupole Moments (Debye-Ang)
        XX    -159.1591     XY      -0.2965     YY    -149.1632
        XZ      -6.3505     YZ      -0.1624     ZZ    -155.7459

 Total job time:  88.09s(wall), 4198.75s(cpu)
        *  Thank you very much for using Q-Chem.  Have a nice day.  *
