 Q-Chem 5.0, Q-Chem, Inc., Pleasanton, CA (2017)
 Q-Chem 5.0.1 for Intel X86 EM64T Linux

User input:
--------------------------------------------------------------
$molecule
0  1
O 4.521884329 -1.0665762132 -1.012308
C 4.4394865214 -0.0653360415 -0.2668724903
C 3.4320664918 1.1304595957 -0.4286197866
C 1.9564464155 0.6546326339 -0.770130614
C 1.7715649706 -0.8924798306 -0.617835099
O 1.2326018002 -1.4203327704 -1.8406799163
C 0.9097787223 -2.8570434978 -1.6623486375
C -0.6439361131 -3.0217406214 -1.5533117886
O -1.0662676922 -2.4111817796 -0.2661096569
C -1.840050908 -1.2355552728 -0.4979496742
C -2.2957899952 -0.657448727 0.8837460425
C -3.1238003161 0.6783245295 0.7195607946
C -3.0561702984 1.3217832405 -0.714356484
O -4.0221379932 1.6399443895 -1.439132617
O 5.3018329701 0.1691258239 0.8485858935
O -1.6938250837 1.7072675462 -0.973248585
O -2.1716560314 -0.8189148619 -1.6326091559
C -1.590415212 2.2373087901 -2.3497970559
C -3.4144725429 -1.6115836785 1.4917454655
C -3.7518481342 -1.1371311427 2.9613906502
C -4.6644127409 0.1141024572 2.6805638133
C -4.5825236424 0.193397194 1.1077948473
O -4.608642874 -1.2326376467 0.7023485395
H -1.4240784298 -0.5542511309 1.5544111931
H -2.7571508342 1.439120823 1.4335254282
H -3.1950472576 -2.6914105435 1.380379158
H -4.294721468 -1.9244811112 3.5077061172
H -2.8415457571 -0.8784187129 3.5256187296
H -5.7030801758 -0.0665385843 3.0007956265
H -4.2975981572 1.0306559718 3.1693415503
H -5.3916427111 0.7555058496 0.6017418488
O 2.0018838935 -1.5814990713 0.400617939
C 6.2455575872 -0.9626016113 1.0003759861
C 3.1833754263 1.9628397139 0.9032896927
C 2.6013163318 3.3706106834 0.4958870226
C 1.1537890512 2.9669989582 0.0310029302
C 1.1398787317 1.4196816619 0.3546732299
O 2.0232984771 1.291256776 1.5357382683
H 3.8199973175 1.7827082857 -1.2335178872
H 1.6467806947 0.948356046 -1.7882329404
H 6.8782411141 -1.0908803348 0.0983444937
H 4.0495765576 1.9744205238 1.5916435159
H 2.5725615848 4.0403510718 1.3701745578
H 3.1874429277 3.8545732802 -0.3014704962
H 0.3741969605 3.4880789586 0.6083149069
H 0.9871342483 3.1630774242 -1.0391406523
H 0.1342398587 1.0008026985 0.5507599684
H 5.7081717195 -1.9136728762 1.192423207
H 6.8823159075 -0.7139690463 1.8691871065
H -0.5260904923 2.48944306 -2.5061819441
H -2.210831265 3.1464494122 -2.4893004042
H -1.9018221262 1.4771100535 -3.0950183329
H -1.1620632602 -2.5027760499 -2.3884690257
H -0.9209745394 -4.0964594601 -1.5307720637
H 1.3989304857 -3.2201320468 -0.7324442676
H 1.2947756407 -3.4061523053 -2.5465330412
$end

$rem
JOBTYPE                   OPT
METHOD                    B3LYP
DFT_D                     d3_op
BASIS                     STO-3G
GEOM_OPT_MAX_CYCLES       100
GEOM_OPT_TOL_GRADIENT     300
GEOM_OPT_TOL_DISPLACEMENT 1200
GEOM_OPT_TOL_ENERGY       100
SYMMETRY                  False
THRESH                    12
SCF_CONVERGENCE           8
MAX_SUB_FILE_NUM          128
MEM_STATIC                400
MEM_TOTAL                 4000
$end
--------------------------------------------------------------

   16   -1510.2895241401      7.02E-09 Convergence criterion met
 Total energy in the final basis set = -1510.28952414
   14   -1510.2878822789      2.87E-09 Convergence criterion met
 Total energy in the final basis set = -1510.28788228
   14   -1510.2909394996      2.81E-09 Convergence criterion met
 Total energy in the final basis set = -1510.29093950
   14   -1510.2916846498      8.48E-09 Convergence criterion met
 Total energy in the final basis set = -1510.29168465
   14   -1510.2934866113      5.03E-09 Convergence criterion met
 Total energy in the final basis set = -1510.29348661
   14   -1510.2939139033      4.12E-09 Convergence criterion met
 Total energy in the final basis set = -1510.29391390
   15   -1510.2940708086      2.62E-09 Convergence criterion met
 Total energy in the final basis set = -1510.29407081
   14   -1510.2942025840      5.86E-09 Convergence criterion met
   12   -1510.3071961580      3.77E-09 Convergence criterion met
 Total energy in the final basis set = -1510.30719616
   12   -1510.3072292424      4.98E-09 Convergence criterion met
 Total energy in the final basis set = -1510.30722924
   12   -1510.3072080777      5.22E-09 Convergence criterion met
 Total energy in the final basis set = -1510.30720808
   11   -1510.3072318194      8.47E-09 Convergence criterion met
 Total energy in the final basis set = -1510.30723182
   12   -1510.3072448242      1.85E-09 Convergence criterion met
 Total energy in the final basis set = -1510.30724482
   10   -1510.3072440825      9.56E-09 Convergence criterion met
 Total energy in the final basis set = -1510.30724408

             Standard Nuclear Orientation (Angstroms)
    I     Atom           X                Y                Z
 ----------------------------------------------------------------
    1      O       4.1076734542    -1.0456379859     1.5186438632
    2      C       3.0900803284    -0.4226016232     1.1494122633
    3      C       3.0424608412     0.8970035550     0.3012276962
    4      C       2.2360397054     0.7457473927    -1.0558744561
    5      C       1.8977378632    -0.7476538911    -1.3986955796
    6      O       0.7754844483    -0.7933361790    -2.2871484276
    7      C       0.5048440853    -2.1883159862    -2.7145614814
    8      C      -0.0065682898    -3.1137016004    -1.5233952411
    9      O      -0.1656854161    -2.3422286801    -0.2726782303
   10      C      -1.2382588498    -1.4005690532    -0.4087215088
   11      C      -1.2154509216    -0.4504686267     0.8224931695
   12      C      -2.0788882383     0.8557128146     0.5992314297
   13      C      -2.7402370138     0.9519315039    -0.8204910576
   14      O      -3.9488272736     0.8659409976    -1.1165802736
   15      O       1.7481198639    -0.7892072354     1.5122901669
   16      O      -1.7099520914     1.2982680803    -1.7722484066
   17      O      -2.0303703758    -1.3863282046    -1.3783360946
   18      C      -2.2396905356     1.2548513969    -3.1494933473
   19      C      -1.9537532949    -1.0828445365     2.0789614720
   20      C      -1.5722618302    -0.2186526135     3.3462158427
   21      C      -2.4606484824     1.0607454838     3.1190663223
   22      C      -3.1579551073     0.7076098479     1.7474973289
   23      O      -3.3768836250    -0.7557806895     1.8395796943
   24      H      -0.1554084219    -0.1937563633     1.0415826661
   25      H      -1.4283909040     1.7374051467     0.7487636397
   26      H      -1.8199482931    -2.1763804188     2.1932628678
   27      H      -1.8463621118    -0.7447522796     4.2744706699
   28      H      -0.4953845878     0.0130554160     3.3701404314
   29      H      -3.2124363659     1.1755809912     3.9161772034
   30      H      -1.8647519933     1.9849754126     3.0554750160
   31      H      -4.1153038797     1.2256107938     1.5442216491
   32      O       2.5401110887    -1.7568361271    -1.0319852662
   33      C       1.7533950161    -2.0980081253     2.2013394195
   34      C       2.1829484683     2.0201924673     1.0216757760
   35      C       2.3996035248     3.3932082119     0.2693602580
   36      C       1.5031149427     3.1866615274    -1.0096422192
   37      C       0.9967932861     1.7069658961    -0.7988098046
   38      O       0.7970006247     1.6472545329     0.6692313600
   39      H       4.0834649817     1.2179457360     0.1233029860
   40      H       2.8372438651     1.1313131117    -1.9009053212
   41      H       2.3457345057    -2.0636970748     3.1385317283
   42      H       2.3083007551     2.0589858393     2.1212236801
   43      H       2.0415844621     4.2323548638     0.8865520329
   44      H       3.4597216105     3.5641644546     0.0229041314
   45      H       0.6493528783     3.8830653367    -1.0160315838
   46      H       2.0652001647     3.3098149258    -1.9489645292
   47      H       0.0430157504     1.4416044145    -1.3194076451
   48      H       2.1664306824    -2.8907782018     1.5453241558
   49      H       0.6979333404    -2.3263823711     2.4331427198
   50      H      -1.4040480488     1.5490986496    -3.8108560532
   51      H      -3.0884216821     1.9562660779    -3.2840459743
   52      H      -2.5782746513     0.2308775483    -3.4094896856
   53      H      -0.9624520685    -3.5970479158    -1.8178779715
   54      H       0.7468805149    -3.8900207950    -1.2891411520
   55      H       1.4129777140    -2.6389009852    -3.1685310446
   56      H      -0.2838776298    -2.0921278654    -3.4857804080
 ----------------------------------------------------------------

    9   -1510.3072441540      2.65E-09 Convergence criterion met
 Total energy in the final basis set = -1510.30724415
 Final energy is   -1510.30724415401
 **  OPTIMIZATION CONVERGED  **

                    Orbital Energies (a.u.)
 --------------------------------------------------------------

 Alpha MOs
 -- Occupied --
-18.944 -18.935 -18.929 -18.926 -18.890 -18.882 -18.878 -18.876
-18.870 -18.865 -10.107 -10.098 -10.096 -10.092 -10.078 -10.075
-10.063 -10.058 -10.058 -10.052 -10.049 -10.044 -10.039 -10.037
-10.021 -10.021 -10.017 -10.016 -10.012 -10.011  -1.026  -1.009
 -1.004  -0.999  -0.972  -0.961  -0.944  -0.937  -0.931  -0.927
 -0.764  -0.753  -0.726  -0.719  -0.710  -0.702  -0.691  -0.656
 -0.655  -0.621  -0.596  -0.577  -0.545  -0.539  -0.538  -0.530
 -0.513  -0.502  -0.483  -0.476  -0.466  -0.458  -0.444  -0.441
 -0.428  -0.427  -0.421  -0.418  -0.410  -0.407  -0.405  -0.403
 -0.393  -0.378  -0.371  -0.367  -0.361  -0.355  -0.348  -0.343
 -0.343  -0.342  -0.331  -0.329  -0.324  -0.322  -0.317  -0.313
 -0.305  -0.303  -0.299  -0.296  -0.292  -0.285  -0.278  -0.273
 -0.268  -0.260  -0.249  -0.246  -0.244  -0.235  -0.221  -0.195
 -0.173  -0.172  -0.168  -0.161  -0.154  -0.147  -0.147  -0.141
 -0.136

          Ground-State Mulliken Net Atomic Charges

     Atom                 Charge (a.u.)
  ----------------------------------------
      1 O                    -0.211624
      2 C                     0.214139
      3 C                    -0.080455
      4 C                    -0.080204
      5 C                     0.214654
      6 O                    -0.167890
      7 C                    -0.050830
      8 C                    -0.050255
      9 O                    -0.171072
     10 C                     0.212815
     11 C                    -0.093123
     12 C                    -0.085415
     13 C                     0.219846
     14 O                    -0.211175
     15 O                    -0.173223
     16 O                    -0.178372
     17 O                    -0.214345
     18 C                    -0.125854
     19 C                     0.023494
     20 C                    -0.143982
     21 C                    -0.143131
     22 C                     0.024298
     23 O                    -0.191223
     24 H                     0.120055
     25 H                     0.095590
     26 H                     0.077885
     27 H                     0.074137
     28 H                     0.077496
     29 H                     0.075263
     30 H                     0.074461
     31 H                     0.086223
     32 O                    -0.212366
     33 C                    -0.125923
     34 C                     0.026150
     35 C                    -0.144944
     36 C                    -0.144217
     37 C                     0.005512
     38 O                    -0.195960
     39 H                     0.084902
     40 H                     0.084601
     41 H                     0.085740
     42 H                     0.081376
     43 H                     0.076604
     44 H                     0.073446
     45 H                     0.076402
     46 H                     0.071392
     47 H                     0.117280
     48 H                     0.094088
     49 H                     0.090166
     50 H                     0.086862
     51 H                     0.088224
     52 H                     0.093954
     53 H                     0.090784
     54 H                     0.094489
     55 H                     0.088526
     56 H                     0.094728
  ----------------------------------------
  Sum of atomic charges =    -0.000000

                    Cartesian Multipole Moments
 -----------------------------------------------------------------
    Charge (ESU x 10^10)
                -0.0000
    Dipole Moment (Debye)
         X       1.9501      Y       1.2181      Z      -1.0944
       Tot       2.5465
    Quadrupole Moments (Debye-Ang)
        XX    -181.9057     XY       4.4189     YY    -149.6072
        XZ      -4.4968     YZ       2.5795     ZZ    -148.0388

 Total job time:  201.17s(wall), 9594.25s(cpu)
        *  Thank you very much for using Q-Chem.  Have a nice day.  *
