 Q-Chem 5.0, Q-Chem, Inc., Pleasanton, CA (2017)
 Q-Chem 5.0.1 for Intel X86 EM64T Linux

User input:
--------------------------------------------------------------
$molecule
0  1
O -3.94934 -3.66094 2.70899
C -3.26408 -4.56952 2.26188
C -3.36658 -6.02376 2.66595
C -4.77824 -6.6181 2.79942
C -5.92434 -5.74324 2.34207
O -6.84615 -5.62533 3.34297
C -8.03005 -4.92927 2.93905
C -9.18328 -5.91176 2.76327
O -8.93728 -6.75722 1.62856
C -8.70261 -8.06214 1.91363
C -8.49258 -8.90562 0.67869
C -8.1794 -10.38427 0.9503
C -8.46961 -10.874 2.35481
O -9.1621 -11.84041 2.63956
O -2.4362 -4.28157 1.22143
O -7.53197 -10.51368 3.27848
O -8.68924 -8.44954 3.06857
C -7.47727 -10.98734 4.57353
C -9.73888 -9.02644 -0.21675
C -9.30604 -9.34158 -1.64668
C -8.81126 -10.76478 -1.48387
C -9.19476 -11.02416 -0.02083
O -10.34185 -10.23344 0.17941
H -7.6677 -8.4226 0.10702
H -7.12679 -10.65534 0.71225
H -10.38868 -8.1245 -0.19819
H -10.23133 -9.3549 -2.26656
H -8.57592 -8.63492 -2.09669
H -9.39264 -11.41774 -2.17201
H -7.72135 -10.9109 -1.64658
H -9.31871 -12.1161 0.14966
O -6.02034 -5.27901 1.2109
C -2.26547 -3.02346 0.68226
C -2.74587 -7.01479 1.65722
C -2.42546 -8.34326 2.34799
C -3.81319 -8.92932 2.49481
C -4.65172 -7.82489 1.85164
O -3.82412 -7.34659 0.81745
H -2.83632 -6.08255 3.64248
H -4.98021 -6.96105 3.84113
H -1.876 -2.32613 1.45451
H -1.82991 -6.63317 1.15773
H -1.84905 -8.9803 1.63979
H -1.85386 -8.22926 3.29421
H -3.87901 -9.84306 1.86227
H -4.12362 -9.17108 3.53431
H -5.63956 -8.22911 1.54185
H -3.23056 -2.64329 0.28422
H -1.53382 -3.08063 -0.14953
H -6.6187 -10.51721 5.09548
H -7.33636 -12.08921 4.57452
H -8.41202 -10.72654 5.11438
H -9.35281 -6.42339 3.73563
H -10.11424 -5.34117 2.56026
H -7.937 -4.32143 2.01117
H -8.28654 -4.20707 3.74288
$end

$opt
CONSTRAINT
tors           1           2           3           4     +43.805
tors           3           4           5           6    -126.306
tors           4           5           6           7    -173.720
tors           5           6           7           8    +105.779
tors           6           7           8           9     -68.575
tors           7           8           9          10    +112.021
tors           8           9          10          11    +178.277
tors           9          10          11          12    +178.176
tors          11          12          13          14    +126.295
ENDCONSTRAINT
$end

$rem
JOBTYPE                   OPT
METHOD                    B3LYP
DFT_D                     d3_op
BASIS                     STO-3G
GEOM_OPT_MAX_CYCLES       100
GEOM_OPT_TOL_GRADIENT     300
GEOM_OPT_TOL_DISPLACEMENT 1200
GEOM_OPT_TOL_ENERGY       100
SYMMETRY                  False
THRESH                    12
SCF_CONVERGENCE           8
MAX_SUB_FILE_NUM          128
MEM_STATIC                400
MEM_TOTAL                 4000
$end
--------------------------------------------------------------

   15   -1510.1498289713      6.50E-09 Convergence criterion met
 Total energy in the final basis set = -1510.14982897
   14   -1510.2201137844      7.55E-09 Convergence criterion met
 Total energy in the final basis set = -1510.22011378
   14   -1510.2562447725      8.06E-09 Convergence criterion met
 Total energy in the final basis set = -1510.25624477
   14   -1510.2732650655      4.07E-09 Convergence criterion met
 Total energy in the final basis set = -1510.27326507
   13   -1510.2806450037      8.15E-09 Convergence criterion met
 Total energy in the final basis set = -1510.28064500
   13   -1510.2838350497      5.64E-09 Convergence criterion met
 Total energy in the final basis set = -1510.28383505
   13   -1510.2851163744      3.19E-09 Convergence criterion met
 Total energy in the final basis set = -1510.28511637
   13   -1510.2864060969      5.87E-09 Convergence criterion met
   11   -1510.2893835967      6.27E-09 Convergence criterion met
 Total energy in the final basis set = -1510.28938360
   11   -1510.2894567885      6.51E-09 Convergence criterion met
 Total energy in the final basis set = -1510.28945679
   11   -1510.2894790235      5.07E-09 Convergence criterion met
 Total energy in the final basis set = -1510.28947902
   11   -1510.2894926878      2.95E-09 Convergence criterion met
 Total energy in the final basis set = -1510.28949269
   10   -1510.2894981839      9.52E-09 Convergence criterion met
 Total energy in the final basis set = -1510.28949818
    9   -1510.2894996252      5.03E-09 Convergence criterion met
 Total energy in the final basis set = -1510.28949963

             Standard Nuclear Orientation (Angstroms)
    I     Atom           X                Y                Z
 ----------------------------------------------------------------
    1      O       4.5218843290    -1.0665762132    -1.0123080000
    2      C       4.4394865214    -0.0653360415    -0.2668724903
    3      C       3.4320664918     1.1304595957    -0.4286197866
    4      C       1.9564464155     0.6546326339    -0.7701306140
    5      C       1.7715649706    -0.8924798306    -0.6178350990
    6      O       1.2326018002    -1.4203327704    -1.8406799163
    7      C       0.9097787223    -2.8570434978    -1.6623486375
    8      C      -0.6439361131    -3.0217406214    -1.5533117886
    9      O      -1.0662676922    -2.4111817796    -0.2661096569
   10      C      -1.8400509080    -1.2355552728    -0.4979496742
   11      C      -2.2957899952    -0.6574487270     0.8837460425
   12      C      -3.1238003161     0.6783245295     0.7195607946
   13      C      -3.0561702984     1.3217832405    -0.7143564840
   14      O      -4.0221379932     1.6399443895    -1.4391326170
   15      O       5.3018329701     0.1691258239     0.8485858935
   16      O      -1.6938250837     1.7072675462    -0.9732485850
   17      O      -2.1716560314    -0.8189148619    -1.6326091559
   18      C      -1.5904152120     2.2373087901    -2.3497970559
   19      C      -3.4144725429    -1.6115836785     1.4917454655
   20      C      -3.7518481342    -1.1371311427     2.9613906502
   21      C      -4.6644127409     0.1141024572     2.6805638133
   22      C      -4.5825236424     0.1933971940     1.1077948473
   23      O      -4.6086428740    -1.2326376467     0.7023485395
   24      H      -1.4240784298    -0.5542511309     1.5544111931
   25      H      -2.7571508342     1.4391208230     1.4335254282
   26      H      -3.1950472576    -2.6914105435     1.3803791580
   27      H      -4.2947214680    -1.9244811112     3.5077061172
   28      H      -2.8415457571    -0.8784187129     3.5256187296
   29      H      -5.7030801758    -0.0665385843     3.0007956265
   30      H      -4.2975981572     1.0306559718     3.1693415503
   31      H      -5.3916427111     0.7555058496     0.6017418488
   32      O       2.0018838935    -1.5814990713     0.4006179390
   33      C       6.2455575872    -0.9626016113     1.0003759861
   34      C       3.1833754263     1.9628397139     0.9032896927
   35      C       2.6013163318     3.3706106834     0.4958870226
   36      C       1.1537890512     2.9669989582     0.0310029302
   37      C       1.1398787317     1.4196816619     0.3546732299
   38      O       2.0232984771     1.2912567760     1.5357382683
   39      H       3.8199973175     1.7827082857    -1.2335178872
   40      H       1.6467806947     0.9483560460    -1.7882329404
   41      H       6.8782411141    -1.0908803348     0.0983444937
   42      H       4.0495765576     1.9744205238     1.5916435159
   43      H       2.5725615848     4.0403510718     1.3701745578
   44      H       3.1874429277     3.8545732802    -0.3014704962
   45      H       0.3741969605     3.4880789586     0.6083149069
   46      H       0.9871342483     3.1630774242    -1.0391406523
   47      H       0.1342398587     1.0008026985     0.5507599684
   48      H       5.7081717195    -1.9136728762     1.1924232070
   49      H       6.8823159075    -0.7139690463     1.8691871065
   50      H      -0.5260904923     2.4894430600    -2.5061819441
   51      H      -2.2108312650     3.1464494122    -2.4893004042
   52      H      -1.9018221262     1.4771100535    -3.0950183329
   53      H      -1.1620632602    -2.5027760499    -2.3884690257
   54      H      -0.9209745394    -4.0964594601    -1.5307720637
   55      H       1.3989304857    -3.2201320468    -0.7324442676
   56      H       1.2947756407    -3.4061523053    -2.5465330412
 ----------------------------------------------------------------

    9   -1510.2895006079      3.53E-09 Convergence criterion met
 Total energy in the final basis set = -1510.28950061
 Final energy is   -1510.28950060787
 **  OPTIMIZATION CONVERGED  **

                    Orbital Energies (a.u.)
 --------------------------------------------------------------

 Alpha MOs
 -- Occupied --
-18.940 -18.937 -18.930 -18.920 -18.886 -18.885 -18.885 -18.872
-18.870 -18.863 -10.106 -10.100 -10.095 -10.092 -10.072 -10.067
-10.065 -10.060 -10.057 -10.056 -10.056 -10.056 -10.040 -10.037
-10.035 -10.033 -10.020 -10.019 -10.018 -10.017  -1.022  -1.013
 -1.006  -0.999  -0.970  -0.968  -0.944  -0.936  -0.931  -0.926
 -0.763  -0.761  -0.728  -0.721  -0.713  -0.705  -0.696  -0.661
 -0.656  -0.618  -0.597  -0.576  -0.545  -0.543  -0.536  -0.535
 -0.511  -0.510  -0.488  -0.473  -0.462  -0.457  -0.452  -0.448
 -0.433  -0.430  -0.425  -0.417  -0.411  -0.411  -0.405  -0.402
 -0.399  -0.378  -0.373  -0.364  -0.360  -0.356  -0.355  -0.348
 -0.343  -0.340  -0.338  -0.333  -0.328  -0.323  -0.321  -0.311
 -0.308  -0.305  -0.302  -0.301  -0.290  -0.286  -0.278  -0.274
 -0.271  -0.255  -0.252  -0.246  -0.244  -0.234  -0.232  -0.190
 -0.178  -0.168  -0.164  -0.161  -0.157  -0.149  -0.145  -0.143
 -0.141

          Ground-State Mulliken Net Atomic Charges

     Atom                 Charge (a.u.)
  ----------------------------------------
      1 O                    -0.216071
      2 C                     0.211965
      3 C                    -0.078924
      4 C                    -0.077983
      5 C                     0.211548
      6 O                    -0.171829
      7 C                    -0.055576
      8 C                    -0.055279
      9 O                    -0.171551
     10 C                     0.216251
     11 C                    -0.078300
     12 C                    -0.082253
     13 C                     0.217136
     14 O                    -0.216386
     15 O                    -0.168146
     16 O                    -0.180265
     17 O                    -0.207916
     18 C                    -0.127611
     19 C                     0.025190
     20 C                    -0.144422
     21 C                    -0.143081
     22 C                     0.023952
     23 O                    -0.190974
     24 H                     0.089936
     25 H                     0.083075
     26 H                     0.085818
     27 H                     0.078478
     28 H                     0.075328
     29 H                     0.078246
     30 H                     0.073581
     31 H                     0.091389
     32 O                    -0.213699
     33 C                    -0.127297
     34 C                     0.023167
     35 C                    -0.144089
     36 C                    -0.141852
     37 C                     0.025883
     38 O                    -0.189370
     39 H                     0.083911
     40 H                     0.086052
     41 H                     0.088860
     42 H                     0.092791
     43 H                     0.077244
     44 H                     0.072142
     45 H                     0.078563
     46 H                     0.071688
     47 H                     0.087526
     48 H                     0.093184
     49 H                     0.090880
     50 H                     0.081851
     51 H                     0.086334
     52 H                     0.094006
     53 H                     0.104842
     54 H                     0.088471
     55 H                     0.105806
     56 H                     0.087780
  ----------------------------------------
  Sum of atomic charges =     0.000000

                    Cartesian Multipole Moments
 -----------------------------------------------------------------
    Charge (ESU x 10^10)
                -0.0000
    Dipole Moment (Debye)
         X       2.0241      Y       0.7788      Z       0.6562
       Tot       2.2659
    Quadrupole Moments (Debye-Ang)
        XX    -162.4670     XY       3.2588     YY    -149.7966
        XZ      -8.9386     YZ       0.4897     ZZ    -158.9029

 Total job time:  60.78s(wall), 2893.55s(cpu)
        *  Thank you very much for using Q-Chem.  Have a nice day.  *
