 Q-Chem 5.0, Q-Chem, Inc., Pleasanton, CA (2017)
 Q-Chem 5.0.1 for Intel X86 EM64T Linux

User input:
--------------------------------------------------------------
$molecule
0  1
O 4.7166403419 -1.2992520776 -1.1312650336
C 4.8462305348 -0.252479456 -0.4589122156
C 3.9016186421 1.0019240246 -0.5054095333
C 2.3660163387 0.6244859297 -0.6124288913
C 2.0600125926 -0.9028379225 -0.4538003553
O 1.2177641595 -1.2845010325 -1.5490057622
C 0.8011154331 -2.7022018528 -1.4237139582
C -0.7585878968 -2.7263337781 -1.4956914601
O -1.2664835765 -2.1487481335 -0.2247854307
C -2.1940975558 -1.0951090913 -0.479315712
C -2.7192540286 -0.5570834872 0.8930894112
C -3.6583995939 0.7044231629 0.7262171116
C -3.6601808587 1.3258278053 -0.7187364246
O -4.6161838903 1.3913323429 -1.5190986907
O 5.9270075736 -0.0125876526 0.4447696047
O -2.3836344718 1.9564650242 -0.9174963758
O -2.5313337097 -0.7087863472 -1.6223094896
C -2.3035342889 2.4967358923 -2.2915227557
C -3.7497582597 -1.6034632649 1.5037675073
C -4.1199664244 -1.1633868799 2.9759882119
C -5.1287280788 0.0140502761 2.702105552
C -5.0673447026 0.0972604481 1.1286284217
O -4.9763863925 -1.325990439 0.7226068611
H -1.8635827739 -0.3704048741 1.5662552692
H -3.3505365249 1.4989341484 1.43014362
H -3.4409163448 -2.6608935307 1.3894823882
H -4.5990146888 -1.9936730066 3.5186761173
H -3.2322799906 -0.837470319 3.5415979586
H -6.1472063222 -0.2443535553 3.0336712239
H -4.8271561191 0.9568110655 3.1854372722
H -5.9276869855 0.5855709344 0.6308386686
O 2.3872048234 -1.6648841819 0.4819093389
C 6.8228258289 -1.1917591492 0.4824199923
C 3.909016513 1.889560102 0.8109398929
C 3.3203126357 3.3078436403 0.4435675521
C 1.7916344609 2.96885615 0.2839636467
C 1.7822481129 1.4280159442 0.6307442355
O 2.8471020869 1.2847981122 1.6485570775
H 4.2052828494 1.6045217724 -1.382173438
H 1.9249992491 0.9629876182 -1.5658577341
H 7.2936756287 -1.3780370845 -0.5046199213
H 4.8764524295 1.8918368905 1.3483995188
H 3.4910891339 4.0193447057 1.2670716793
H 3.7640355277 3.7195968037 -0.4770473295
H 1.1731206825 3.5296287225 1.0025682137
H 1.4149403075 3.1639974979 -0.732760614
H 0.8194677251 1.0387892861 1.015565969
H 6.2761543043 -2.1060429837 0.7905451729
H 7.6049966177 -0.9563022458 1.227284546
H -1.3298174297 3.0156810532 -2.3627959317
H -3.1237576621 3.2137620875 -2.5003730649
H -2.346142681 1.6828784067 -3.044520197
H -1.1370617795 -2.1208299138 -2.347622885
H -1.1281065193 -3.7707186484 -1.5859444773
H 1.1719825497 -3.103982659 -0.45524284
H 1.2363426883 -3.2844874328 -2.2642496519
$end

$rem
JOBTYPE                   OPT
METHOD                    B3LYP
DFT_D                     d3_op
BASIS                     STO-3G
GEOM_OPT_MAX_CYCLES       100
GEOM_OPT_TOL_GRADIENT     300
GEOM_OPT_TOL_DISPLACEMENT 1200
GEOM_OPT_TOL_ENERGY       100
SYMMETRY                  False
THRESH                    12
SCF_CONVERGENCE           8
MAX_SUB_FILE_NUM          128
MEM_STATIC                400
MEM_TOTAL                 4000
$end
--------------------------------------------------------------

   16   -1510.2860467856      6.33E-09 Convergence criterion met
 Total energy in the final basis set = -1510.28604679
   14   -1510.2880480200      3.21E-09 Convergence criterion met
 Total energy in the final basis set = -1510.28804802
   14   -1510.2827876012      2.21E-09 Convergence criterion met
 Total energy in the final basis set = -1510.28278760
   14   -1510.2898366888      2.17E-09 Convergence criterion met
 Total energy in the final basis set = -1510.28983669
   14   -1510.2897601667      8.97E-09 Convergence criterion met
 Total energy in the final basis set = -1510.28976017
   13   -1510.2914298572      7.08E-09 Convergence criterion met
 Total energy in the final basis set = -1510.29142986
   14   -1510.2912906701      4.85E-09 Convergence criterion met
 Total energy in the final basis set = -1510.29129067
   15   -1510.2937138800      3.77E-09 Convergence criterion met
   13   -1510.2975169397      3.85E-09 Convergence criterion met
 Total energy in the final basis set = -1510.29751694
   13   -1510.2975137521      2.67E-09 Convergence criterion met
 Total energy in the final basis set = -1510.29751375
   12   -1510.2975347192      5.61E-09 Convergence criterion met
 Total energy in the final basis set = -1510.29753472
   11   -1510.2975567899      7.18E-09 Convergence criterion met
 Total energy in the final basis set = -1510.29755679
   11   -1510.2975582701      2.22E-09 Convergence criterion met
 Total energy in the final basis set = -1510.29755827
   10   -1510.2975593218      9.80E-09 Convergence criterion met
 Total energy in the final basis set = -1510.29755932

             Standard Nuclear Orientation (Angstroms)
    I     Atom           X                Y                Z
 ----------------------------------------------------------------
    1      O       3.4988759379    -1.6084076083     0.2145787890
    2      C       3.9793212993    -0.4581032216     0.3323834596
    3      C       3.4159594577     0.8685672879    -0.2755673788
    4      C       1.9825842961     0.7018050381    -0.9258402838
    5      C       1.3273257338    -0.6927708140    -0.6164924236
    6      O       1.4085109937    -1.4975373759    -1.8049556059
    7      C       0.8932479127    -2.8643222866    -1.5585779780
    8      C      -0.6664022799    -2.9914562672    -1.7559044971
    9      O      -1.3965432675    -2.5943419325    -0.5289044617
   10      C      -1.7826493490    -1.2212533521    -0.5985092101
   11      C      -2.3152977907    -0.7748050229     0.8015415816
   12      C      -2.9310844799     0.6824668727     0.7857759406
   13      C      -2.9224752999     1.3668393367    -0.6286888675
   14      O      -3.8518854445     1.4015971766    -1.4612096666
   15      O       5.1779860082    -0.1649932687     1.0518718068
   16      O      -1.6977617794     2.1187963059    -0.7680312904
   17      O      -1.6921791658    -0.5135714842    -1.6286566322
   18      C      -1.6294848751     2.7017068904    -2.1261646381
   19      C      -3.5627470939    -1.6310147213     1.2825976642
   20      C      -3.7742926285    -1.3706603645     2.8253954167
   21      C      -4.3950196271     0.0753663796     2.8072852971
   22      C      -4.4159125573     0.3792035593     1.2573362719
   23      O      -4.7090601580    -0.9404237551     0.6492087221
   24      H      -1.4673022101    -0.8535373789     1.5067920011
   25      H      -2.3954934197     1.3407946936     1.4922949462
   26      H      -3.5248926428    -2.6949949714     0.9781871076
   27      H      -4.4768456230    -2.1072130936     3.2468695787
   28      H      -2.8282460616    -1.4217855401     3.3877526698
   29      H      -5.4187621094     0.0808976661     3.2140324604
   30      H      -3.7874186845     0.8059055944     3.3649818740
   31      H      -5.1608548029     1.1278851275     0.9250190778
   32      O       0.7420924112    -1.0366801522     0.4327398632
   33      C       5.7337403621    -1.4078244238     1.6372423145
   34      C       3.1290436210     1.9933428640     0.8158056724
   35      C       3.0847224509     3.3798724331     0.0661691722
   36      C       1.7188332281     3.2511093211    -0.7025295437
   37      C       1.1862727537     1.8545157098    -0.1828518717
   38      O       1.7172524718     1.7676813728     1.1987699940
   39      H       4.1484853686     1.2322938880    -1.0197632763
   40      H       2.0146909604     0.8386175960    -2.0206821818
   41      H       5.9864782180    -2.1499066461     0.8526427785
   42      H       3.7936497106     1.9471388662     1.7003615148
   43      H       3.0637635602     4.2073954977     0.7932802117
   44      H       3.9454763696     3.5211648363    -0.6067225836
   45      H       1.0211196044     4.0565304817    -0.4233558755
   46      H       1.8485967946     3.2608192115    -1.7966866233
   47      H       0.0747266963     1.7536014593    -0.2112746741
   48      H       5.0230819809    -1.8754709527     2.3489150703
   49      H       6.6524660033    -1.1074819101     2.1736158301
   50      H      -0.7389642013     3.3549462302    -2.1412516158
   51      H      -2.5361212823     3.2957903559    -2.3579102435
   52      H      -1.5210667257     1.9056477599    -2.8912063400
   53      H      -0.9915132045    -2.3636820241    -2.6133528385
   54      H      -0.9247120160    -4.0537634845    -1.9435372282
   55      H       1.1604365918    -3.2060361895    -0.5355037880
   56      H       1.3976887654    -3.5097101875    -2.3069176718
 ----------------------------------------------------------------

    9   -1510.2975594501      9.88E-09 Convergence criterion met
 Total energy in the final basis set = -1510.29755945
 Final energy is   -1510.29755945006
 **  OPTIMIZATION CONVERGED  **

                    Orbital Energies (a.u.)
 --------------------------------------------------------------

 Alpha MOs
 -- Occupied --
-18.942 -18.934 -18.925 -18.921 -18.883 -18.881 -18.879 -18.879
-18.862 -18.859 -10.105 -10.102 -10.091 -10.091 -10.069 -10.069
-10.066 -10.055 -10.055 -10.054 -10.053 -10.040 -10.037 -10.031
-10.029 -10.028 -10.015 -10.015 -10.014 -10.012  -1.019  -1.016
 -0.999  -0.996  -0.964  -0.962  -0.942  -0.939  -0.926  -0.925
 -0.758  -0.757  -0.722  -0.717  -0.710  -0.700  -0.691  -0.665
 -0.654  -0.615  -0.593  -0.574  -0.541  -0.539  -0.532  -0.530
 -0.509  -0.506  -0.481  -0.473  -0.456  -0.453  -0.448  -0.446
 -0.429  -0.427  -0.426  -0.416  -0.413  -0.405  -0.403  -0.400
 -0.392  -0.378  -0.374  -0.362  -0.357  -0.351  -0.349  -0.345
 -0.344  -0.336  -0.328  -0.326  -0.325  -0.319  -0.319  -0.310
 -0.309  -0.301  -0.299  -0.297  -0.294  -0.276  -0.273  -0.271
 -0.271  -0.257  -0.249  -0.244  -0.239  -0.228  -0.226  -0.187
 -0.183  -0.167  -0.160  -0.158  -0.155  -0.142  -0.141  -0.139
 -0.136

          Ground-State Mulliken Net Atomic Charges

     Atom                 Charge (a.u.)
  ----------------------------------------
      1 O                    -0.210199
      2 C                     0.213120
      3 C                    -0.079520
      4 C                    -0.081294
      5 C                     0.217635
      6 O                    -0.174738
      7 C                    -0.050762
      8 C                    -0.054124
      9 O                    -0.168946
     10 C                     0.221634
     11 C                    -0.079195
     12 C                    -0.082434
     13 C                     0.218883
     14 O                    -0.214437
     15 O                    -0.168973
     16 O                    -0.175645
     17 O                    -0.214959
     18 C                    -0.129088
     19 C                     0.024628
     20 C                    -0.143496
     21 C                    -0.144100
     22 C                     0.025358
     23 O                    -0.189525
     24 H                     0.102521
     25 H                     0.086702
     26 H                     0.087126
     27 H                     0.076913
     28 H                     0.075706
     29 H                     0.076950
     30 H                     0.073868
     31 H                     0.086065
     32 O                    -0.223773
     33 C                    -0.128060
     34 C                     0.024860
     35 C                    -0.143350
     36 C                    -0.146336
     37 C                     0.010666
     38 O                    -0.191352
     39 H                     0.085128
     40 H                     0.084010
     41 H                     0.089792
     42 H                     0.085104
     43 H                     0.076408
     44 H                     0.071543
     45 H                     0.075104
     46 H                     0.069234
     47 H                     0.107468
     48 H                     0.091802
     49 H                     0.091907
     50 H                     0.086234
     51 H                     0.089786
     52 H                     0.092624
     53 H                     0.100312
     54 H                     0.088263
     55 H                     0.099737
     56 H                     0.087213
  ----------------------------------------
  Sum of atomic charges =     0.000000

                    Cartesian Multipole Moments
 -----------------------------------------------------------------
    Charge (ESU x 10^10)
                 0.0000
    Dipole Moment (Debye)
         X       3.3704      Y       0.0336      Z       0.3511
       Tot       3.3888
    Quadrupole Moments (Debye-Ang)
        XX    -158.2420     XY      -1.4789     YY    -149.2113
        XZ      -7.0689     YZ      -0.7534     ZZ    -155.5637

 Total job time:  108.19s(wall), 5159.39s(cpu)
        *  Thank you very much for using Q-Chem.  Have a nice day.  *
