 Q-Chem 5.0, Q-Chem, Inc., Pleasanton, CA (2017)
 Q-Chem 5.0.1 for Intel X86 EM64T Linux

User input:
--------------------------------------------------------------
$molecule
0  1
O -3.94934 -3.66094 2.70899
C -3.26408 -4.56952 2.26188
C -3.36658 -6.02376 2.66595
C -4.77722 -6.59361 2.88782
C -5.93441 -5.69621 2.50879
O -6.83154 -5.63669 3.53692
C -8.00189 -4.87582 3.21972
C -9.25452 -5.70859 3.47176
O -9.36751 -6.7366 2.47511
C -9.52514 -7.99631 2.95201
C -9.67409 -9.02562 1.85702
C -9.73077 -10.48194 2.34094
C -9.98877 -10.67669 3.82155
O -10.97563 -11.21274 4.30458
O -2.43671 -4.28109 1.22113
O -8.90073 -10.51688 4.62711
O -9.55053 -8.21431 4.15206
C -8.88705 -10.77311 5.98285
C -10.98741 -8.91465 1.06561
C -10.80013 -9.53554 -0.31673
C -10.69792 -11.00364 0.04542
C -10.97988 -10.93655 1.55224
O -11.84702 -9.83579 1.68917
H -8.80409 -8.87921 1.17649
H -8.82971 -11.0771 2.07336
H -11.36458 -7.87251 0.97692
H -11.74935 -9.37178 -0.87586
H -9.95162 -9.13426 -0.9117
H -11.50752 -11.55163 -0.48587
H -9.71444 -11.47795 -0.16284
H -11.37316 -11.91459 1.9072
O -6.06961 -5.19182 1.39892
C -2.26518 -3.02254 0.6832
C -2.83287 -7.01296 1.60664
C -2.49278 -8.35562 2.25871
C -3.87853 -8.91805 2.48798
C -4.73615 -7.78876 1.9162
O -3.96963 -7.3122 0.83566
H -2.77139 -6.10066 3.60287
H -4.92196 -6.95248 3.93356
H -1.87465 -2.32641 1.45601
H -1.94428 -6.64372 1.05168
H -1.97504 -8.99382 1.5075
H -1.85949 -8.2633 3.16728
H -4.00253 -9.82049 1.84803
H -4.12374 -9.17038 3.54218
H -5.75171 -8.1695 1.66553
H -3.23012 -2.64104 0.2861
H -1.53399 -3.07944 -0.14902
H -7.8769 -10.552 6.38427
H -9.12191 -11.84198 6.17382
H -9.62753 -10.12693 6.50102
H -9.24866 -6.03332 4.53492
H -10.13138 -5.03692 3.35103
H -8.06271 -4.45587 2.19114
H -8.02889 -4.00976 3.91533
$end

$opt
CONSTRAINT
tors           1           2           3           4     +39.961
tors           3           4           5           6    -130.224
tors           4           5           6           7    -176.059
tors           5           6           7           8    +125.772
tors           6           7           8           9     -71.517
tors           7           8           9          10    +127.290
tors           8           9          10          11    +178.490
tors           9          10          11          12    +174.834
tors          11          12          13          14    +115.644
ENDCONSTRAINT
$end

$rem
JOBTYPE                   OPT
METHOD                    B3LYP
DFT_D                     d3_op
BASIS                     STO-3G
GEOM_OPT_MAX_CYCLES       100
GEOM_OPT_TOL_GRADIENT     300
GEOM_OPT_TOL_DISPLACEMENT 1200
GEOM_OPT_TOL_ENERGY       100
SYMMETRY                  False
THRESH                    12
SCF_CONVERGENCE           8
MAX_SUB_FILE_NUM          128
MEM_STATIC                400
MEM_TOTAL                 4000
$end
--------------------------------------------------------------

   15   -1510.1517878026      6.77E-09 Convergence criterion met
 Total energy in the final basis set = -1510.15178780
   14   -1510.2215336594      7.07E-09 Convergence criterion met
 Total energy in the final basis set = -1510.22153366
   14   -1510.2581862441      6.29E-09 Convergence criterion met
 Total energy in the final basis set = -1510.25818624
   14   -1510.2737820372      2.26E-09 Convergence criterion met
 Total energy in the final basis set = -1510.27378204
   13   -1510.2798948590      7.65E-09 Convergence criterion met
 Total energy in the final basis set = -1510.27989486
   13   -1510.2824506413      4.01E-09 Convergence criterion met
 Total energy in the final basis set = -1510.28245064
   13   -1510.2838126405      2.99E-09 Convergence criterion met
 Total energy in the final basis set = -1510.28381264
   13   -1510.2844038069      2.85E-09 Convergence criterion met
   12   -1510.2857390635      4.21E-09 Convergence criterion met
 Total energy in the final basis set = -1510.28573906
   11   -1510.2858333183      9.72E-09 Convergence criterion met
 Total energy in the final basis set = -1510.28583332
   11   -1510.2859060777      3.94E-09 Convergence criterion met
 Total energy in the final basis set = -1510.28590608
   11   -1510.2859486765      5.17E-09 Convergence criterion met
 Total energy in the final basis set = -1510.28594868
   10   -1510.2859730634      7.35E-09 Convergence criterion met
 Total energy in the final basis set = -1510.28597306
   10   -1510.2859794148      7.71E-09 Convergence criterion met
 Total energy in the final basis set = -1510.28597941

             Standard Nuclear Orientation (Angstroms)
    I     Atom           X                Y                Z
 ----------------------------------------------------------------
    1      O       4.7166403419    -1.2992520776    -1.1312650336
    2      C       4.8462305348    -0.2524794560    -0.4589122156
    3      C       3.9016186421     1.0019240246    -0.5054095333
    4      C       2.3660163387     0.6244859297    -0.6124288913
    5      C       2.0600125926    -0.9028379225    -0.4538003553
    6      O       1.2177641595    -1.2845010325    -1.5490057622
    7      C       0.8011154331    -2.7022018528    -1.4237139582
    8      C      -0.7585878968    -2.7263337781    -1.4956914601
    9      O      -1.2664835765    -2.1487481335    -0.2247854307
   10      C      -2.1940975558    -1.0951090913    -0.4793157120
   11      C      -2.7192540286    -0.5570834872     0.8930894112
   12      C      -3.6583995939     0.7044231629     0.7262171116
   13      C      -3.6601808587     1.3258278053    -0.7187364246
   14      O      -4.6161838903     1.3913323429    -1.5190986907
   15      O       5.9270075736    -0.0125876526     0.4447696047
   16      O      -2.3836344718     1.9564650242    -0.9174963758
   17      O      -2.5313337097    -0.7087863472    -1.6223094896
   18      C      -2.3035342889     2.4967358923    -2.2915227557
   19      C      -3.7497582597    -1.6034632649     1.5037675073
   20      C      -4.1199664244    -1.1633868799     2.9759882119
   21      C      -5.1287280788     0.0140502761     2.7021055520
   22      C      -5.0673447026     0.0972604481     1.1286284217
   23      O      -4.9763863925    -1.3259904390     0.7226068611
   24      H      -1.8635827739    -0.3704048741     1.5662552692
   25      H      -3.3505365249     1.4989341484     1.4301436200
   26      H      -3.4409163448    -2.6608935307     1.3894823882
   27      H      -4.5990146888    -1.9936730066     3.5186761173
   28      H      -3.2322799906    -0.8374703190     3.5415979586
   29      H      -6.1472063222    -0.2443535553     3.0336712239
   30      H      -4.8271561191     0.9568110655     3.1854372722
   31      H      -5.9276869855     0.5855709344     0.6308386686
   32      O       2.3872048234    -1.6648841819     0.4819093389
   33      C       6.8228258289    -1.1917591492     0.4824199923
   34      C       3.9090165130     1.8895601020     0.8109398929
   35      C       3.3203126357     3.3078436403     0.4435675521
   36      C       1.7916344609     2.9688561500     0.2839636467
   37      C       1.7822481129     1.4280159442     0.6307442355
   38      O       2.8471020869     1.2847981122     1.6485570775
   39      H       4.2052828494     1.6045217724    -1.3821734380
   40      H       1.9249992491     0.9629876182    -1.5658577341
   41      H       7.2936756287    -1.3780370845    -0.5046199213
   42      H       4.8764524295     1.8918368905     1.3483995188
   43      H       3.4910891339     4.0193447057     1.2670716793
   44      H       3.7640355277     3.7195968037    -0.4770473295
   45      H       1.1731206825     3.5296287225     1.0025682137
   46      H       1.4149403075     3.1639974979    -0.7327606140
   47      H       0.8194677251     1.0387892861     1.0155659690
   48      H       6.2761543043    -2.1060429837     0.7905451729
   49      H       7.6049966177    -0.9563022458     1.2272845460
   50      H      -1.3298174297     3.0156810532    -2.3627959317
   51      H      -3.1237576621     3.2137620875    -2.5003730649
   52      H      -2.3461426810     1.6828784067    -3.0445201970
   53      H      -1.1370617795    -2.1208299138    -2.3476228850
   54      H      -1.1281065193    -3.7707186484    -1.5859444773
   55      H       1.1719825497    -3.1039826590    -0.4552428400
   56      H       1.2363426883    -3.2844874328    -2.2642496519
 ----------------------------------------------------------------

    9   -1510.2859806974      5.70E-09 Convergence criterion met
 Total energy in the final basis set = -1510.28598070
 Final energy is   -1510.28598069740
 **  OPTIMIZATION CONVERGED  **

                    Orbital Energies (a.u.)
 --------------------------------------------------------------

 Alpha MOs
 -- Occupied --
-18.939 -18.938 -18.929 -18.918 -18.888 -18.885 -18.885 -18.874
-18.871 -18.861 -10.106 -10.100 -10.097 -10.090 -10.073 -10.068
-10.065 -10.061 -10.060 -10.058 -10.055 -10.055 -10.040 -10.039
-10.036 -10.032 -10.021 -10.020 -10.020 -10.018  -1.020  -1.013
 -1.006  -0.997  -0.970  -0.969  -0.944  -0.937  -0.931  -0.924
 -0.764  -0.762  -0.728  -0.722  -0.714  -0.706  -0.696  -0.662
 -0.654  -0.618  -0.597  -0.576  -0.545  -0.543  -0.538  -0.536
 -0.513  -0.511  -0.487  -0.474  -0.463  -0.455  -0.453  -0.450
 -0.433  -0.430  -0.421  -0.417  -0.412  -0.411  -0.404  -0.402
 -0.401  -0.377  -0.373  -0.366  -0.360  -0.357  -0.354  -0.349
 -0.342  -0.339  -0.337  -0.332  -0.330  -0.324  -0.321  -0.311
 -0.310  -0.306  -0.303  -0.301  -0.292  -0.289  -0.276  -0.275
 -0.271  -0.256  -0.252  -0.245  -0.244  -0.234  -0.233  -0.186
 -0.179  -0.168  -0.164  -0.162  -0.157  -0.150  -0.144  -0.143
 -0.141

          Ground-State Mulliken Net Atomic Charges

     Atom                 Charge (a.u.)
  ----------------------------------------
      1 O                    -0.214442
      2 C                     0.212669
      3 C                    -0.078669
      4 C                    -0.079090
      5 C                     0.213909
      6 O                    -0.174414
      7 C                    -0.054124
      8 C                    -0.053598
      9 O                    -0.173266
     10 C                     0.217465
     11 C                    -0.076866
     12 C                    -0.081635
     13 C                     0.216593
     14 O                    -0.215609
     15 O                    -0.168674
     16 O                    -0.179130
     17 O                    -0.207734
     18 C                    -0.128483
     19 C                     0.024978
     20 C                    -0.144272
     21 C                    -0.143283
     22 C                     0.024165
     23 O                    -0.190269
     24 H                     0.087385
     25 H                     0.082906
     26 H                     0.084965
     27 H                     0.078388
     28 H                     0.074295
     29 H                     0.078105
     30 H                     0.073267
     31 H                     0.090391
     32 O                    -0.213465
     33 C                    -0.127400
     34 C                     0.023493
     35 C                    -0.143859
     36 C                    -0.143550
     37 C                     0.026607
     38 O                    -0.187962
     39 H                     0.084280
     40 H                     0.087157
     41 H                     0.088159
     42 H                     0.092926
     43 H                     0.077806
     44 H                     0.072754
     45 H                     0.078395
     46 H                     0.073831
     47 H                     0.082647
     48 H                     0.094044
     49 H                     0.091007
     50 H                     0.083297
     51 H                     0.087069
     52 H                     0.091838
     53 H                     0.105584
     54 H                     0.086410
     55 H                     0.105934
     56 H                     0.087075
  ----------------------------------------
  Sum of atomic charges =    -0.000000

                    Cartesian Multipole Moments
 -----------------------------------------------------------------
    Charge (ESU x 10^10)
                -0.0000
    Dipole Moment (Debye)
         X       2.1764      Y       1.2008      Z       0.5592
       Tot       2.5478
    Quadrupole Moments (Debye-Ang)
        XX    -162.6952     XY       2.2018     YY    -150.4446
        XZ     -12.9488     YZ      -0.1549     ZZ    -159.5302

 Total job time:  50.46s(wall), 2399.28s(cpu)
        *  Thank you very much for using Q-Chem.  Have a nice day.  *
