 Q-Chem 5.0, Q-Chem, Inc., Pleasanton, CA (2017)
 Q-Chem 5.0.1 for Intel X86 EM64T Linux

User input:
--------------------------------------------------------------
$molecule
0  1
O -3.94934 -3.66094 2.70899
C -3.26408 -4.56952 2.26188
C -3.36658 -6.02376 2.66595
C -4.7783 -6.60239 2.85594
C -5.93212 -5.7131 2.44857
O -6.82579 -5.61249 3.47651
C -7.98957 -4.85055 3.13837
C -9.23458 -5.72751 3.22202
O -9.22844 -6.68914 2.1552
C -9.02352 -7.97591 2.53122
C -9.13869 -8.94991 1.38288
C -8.70741 -10.38754 1.7077
C -8.57222 -10.72015 3.18005
O -9.14509 -11.63388 3.7558
O -2.44224 -4.28308 1.21625
O -7.5374 -10.10966 3.82206
O -9.33014 -8.31415 3.66811
C -7.16879 -10.35843 5.12737
C -10.58806 -9.1904 0.91339
C -10.57761 -9.64977 -0.54282
C -9.98025 -11.0353 -0.39641
C -9.91928 -11.14766 1.13296
O -10.99551 -10.35967 1.581
H -8.55198 -8.52139 0.538
H -7.74362 -10.65781 1.22262
H -11.24585 -8.30221 1.03513
H -11.64302 -9.75185 -0.85145
H -10.0541 -8.98205 -1.26043
H -10.69374 -11.7713 -0.8288
H -8.9722 -11.16785 -0.84594
H -9.93559 -12.21693 1.43825
O -6.05747 -5.22978 1.3283
C -2.27727 -3.02642 0.67191
C -2.8022 -7.01685 1.62624
C -2.47065 -8.3537 2.29547
C -3.85852 -8.92341 2.49565
C -4.70862 -7.80383 1.89513
O -3.91872 -7.32915 0.83032
H -2.79518 -6.0935 3.61818
H -4.94277 -6.95187 3.90211
H -1.88568 -2.3254 1.4397
H -1.90293 -6.64485 1.0906
H -1.93179 -8.9936 1.56078
H -1.85948 -8.25252 3.21813
H -3.96209 -9.83147 1.86009
H -4.12848 -9.16913 3.54548
H -5.71607 -8.19209 1.6235
H -3.24532 -2.65007 0.2774
H -1.54983 -3.08473 -0.16349
H -6.30027 -9.71876 5.38677
H -6.87713 -11.42366 5.24684
H -8.00871 -10.11841 5.81369
H -9.2737 -6.14122 4.25364
H -10.13975 -5.0952 3.1019
H -7.98568 -4.3523 2.14357
H -8.08192 -4.03666 3.88874
$end

$opt
CONSTRAINT
tors           1           2           3           4     +41.347
tors           3           4           5           6    -127.681
tors           4           5           6           7    -176.415
tors           5           6           7           8    +117.423
tors           6           7           8           9     -70.002
tors           7           8           9          10    +110.044
tors           8           9          10          11    +175.363
tors           9          10          11          12    +171.103
tors          11          12          13          14    +124.462
ENDCONSTRAINT
$end

$rem
JOBTYPE                   OPT
METHOD                    B3LYP
DFT_D                     d3_op
BASIS                     STO-3G
GEOM_OPT_MAX_CYCLES       100
GEOM_OPT_TOL_GRADIENT     300
GEOM_OPT_TOL_DISPLACEMENT 1200
GEOM_OPT_TOL_ENERGY       100
SYMMETRY                  False
THRESH                    12
SCF_CONVERGENCE           8
MAX_SUB_FILE_NUM          128
MEM_STATIC                400
MEM_TOTAL                 4000
$end
--------------------------------------------------------------

   15   -1510.1448202483      6.95E-09 Convergence criterion met
 Total energy in the final basis set = -1510.14482025
   14   -1510.2154306665      6.74E-09 Convergence criterion met
 Total energy in the final basis set = -1510.21543067
   14   -1510.2540712483      6.50E-09 Convergence criterion met
 Total energy in the final basis set = -1510.25407125
   14   -1510.2726443847      4.65E-09 Convergence criterion met
 Total energy in the final basis set = -1510.27264438
   13   -1510.2802020484      7.77E-09 Convergence criterion met
 Total energy in the final basis set = -1510.28020205
   13   -1510.2819730988      4.56E-09 Convergence criterion met
 Total energy in the final basis set = -1510.28197310
   13   -1510.2844899661      8.81E-09 Convergence criterion met
 Total energy in the final basis set = -1510.28448997
   13   -1510.2855160559      2.42E-09 Convergence criterion met
   11   -1510.2883525195      9.66E-09 Convergence criterion met
 Total energy in the final basis set = -1510.28835252
   10   -1510.2884110676      8.69E-09 Convergence criterion met
 Total energy in the final basis set = -1510.28841107
   10   -1510.2884394063      9.33E-09 Convergence criterion met
 Total energy in the final basis set = -1510.28843941
   10   -1510.2884502713      6.51E-09 Convergence criterion met
 Total energy in the final basis set = -1510.28845027
    9   -1510.2884534784      8.47E-09 Convergence criterion met
 Total energy in the final basis set = -1510.28845348
    9   -1510.2884448040      4.29E-09 Convergence criterion met
 Total energy in the final basis set = -1510.28844480

             Standard Nuclear Orientation (Angstroms)
    I     Atom           X                Y                Z
 ----------------------------------------------------------------
    1      O       4.4992917523    -1.2747196289    -1.0167416202
    2      C       4.5557694682    -0.2354027815    -0.3226529922
    3      C       3.5998446140     1.0063112574    -0.4350834600
    4      C       2.0799064134     0.6016398969    -0.6433778722
    5      C       1.8277154774    -0.9242706430    -0.4023345748
    6      O       1.1413948381    -1.4741097703    -1.5383777432
    7      C       0.8225297910    -2.8999946253    -1.2794431480
    8      C      -0.7315174629    -3.0814882401    -1.2792765377
    9      O      -1.2637227233    -2.4176456779    -0.0613016678
   10      C      -1.9934276046    -1.2418863978    -0.4138667239
   11      C      -2.6319036621    -0.6452559394     0.8826761423
   12      C      -3.2723264972     0.7790575861     0.6348018537
   13      C      -2.9539581187     1.4077658384    -0.7715517450
   14      O      -3.7862712852     1.8049028070    -1.6142303078
   15      O       5.5522258333     0.0054074355     0.6729555970
   16      O      -1.5378148879     1.6398736901    -0.8727049454
   17      O      -2.1701988017    -0.8439171918    -1.5887012488
   18      C      -1.2325209983     2.1328728997    -2.2344704436
   19      C      -3.9314727097    -1.4834315787     1.2596185783
   20      C      -4.4403953443    -1.0248540906     2.6838959569
   21      C      -5.1358102011     0.3445548397     2.3365853500
   22      C      -4.8163199405     0.4589833868     0.7972546752
   23      O      -4.9408495248    -0.9408045332     0.3230792487
   24      H      -1.8851602155    -0.6446915176     1.6967414800
   25      H      -2.9271610098     1.4910975809     1.4069328609
   26      H      -3.8191197073    -2.5773141751     1.1272674373
   27      H      -5.1582046769    -1.7548107116     3.0904870878
   28      H      -3.6100745549    -0.9100169725     3.3990469560
   29      H      -6.2242704397     0.2941949234     2.4992012429
   30      H      -4.7296617438     1.1895846588     2.9149222522
   31      H      -5.4749691517     1.1260931219     0.2075550693
   32      O       2.1108507616    -1.5783286915     0.6263765966
   33      C       6.4533293982    -1.1657924320     0.7767920875
   34      C       3.5052223093     1.8883985188     0.8842801835
   35      C       2.9773700998     3.3159206165     0.4726522741
   36      C       1.4764853537     2.9881485929     0.1358284676
   37      C       1.3967052364     1.4535055160     0.5097956596
   38      O       2.3599187410     1.3081285492     1.6253982907
   39      H       3.9531068334     1.6166794222    -1.2873332550
   40      H       1.7082385025     0.8692122325    -1.6474672078
   41      H       7.0005480304    -1.3450838721    -0.1713907333
   42      H       4.4218344586     1.8676576433     1.5040458890
   43      H       3.0575453618     4.0142205615     1.3209996453
   44      H       3.5265254799     3.7363396607    -0.3849722764
   45      H       0.7789590698     3.5707733154     0.7577329766
   46      H       1.2341184842     3.1670054042    -0.9225792200
   47      H       0.3869491343     1.0998375502     0.7965019248
   48      H       5.8927526841    -2.0856740402     1.0402588913
   49      H       7.1731959491    -0.9254217293     1.5806109565
   50      H      -0.1346192697     2.2386487281    -2.2884630605
   51      H      -1.7099282125     3.1143241330    -2.4329921088
   52      H      -1.5705765295     1.4104750030    -3.0049809893
   53      H      -1.1861610699    -2.6124886099    -2.1784336367
   54      H      -0.9956585457    -4.1581213524    -1.2230002290
   55      H       1.2531462904    -3.1794734943    -0.2926583925
   56      H       1.2794713803    -3.5130776884    -2.0850150602
 ----------------------------------------------------------------

    9   -1510.2884455756      2.59E-09 Convergence criterion met
 Total energy in the final basis set = -1510.28844558
 Final energy is   -1510.28844557561
 **  OPTIMIZATION CONVERGED  **

                    Orbital Energies (a.u.)
 --------------------------------------------------------------

 Alpha MOs
 -- Occupied --
-18.938 -18.938 -18.929 -18.921 -18.886 -18.885 -18.883 -18.873
-18.870 -18.864 -10.104 -10.100 -10.095 -10.092 -10.071 -10.065
-10.064 -10.061 -10.058 -10.056 -10.056 -10.056 -10.040 -10.038
-10.036 -10.034 -10.020 -10.019 -10.019 -10.018  -1.020  -1.013
 -1.005  -1.000  -0.970  -0.968  -0.942  -0.937  -0.930  -0.926
 -0.763  -0.762  -0.727  -0.721  -0.713  -0.705  -0.696  -0.661
 -0.656  -0.617  -0.597  -0.575  -0.545  -0.542  -0.536  -0.535
 -0.511  -0.510  -0.487  -0.473  -0.461  -0.457  -0.453  -0.449
 -0.434  -0.430  -0.423  -0.416  -0.412  -0.411  -0.405  -0.402
 -0.399  -0.377  -0.373  -0.364  -0.360  -0.356  -0.354  -0.348
 -0.342  -0.341  -0.338  -0.333  -0.329  -0.323  -0.321  -0.311
 -0.309  -0.304  -0.301  -0.300  -0.290  -0.286  -0.279  -0.275
 -0.271  -0.255  -0.252  -0.247  -0.243  -0.234  -0.232  -0.188
 -0.178  -0.168  -0.163  -0.160  -0.157  -0.150  -0.145  -0.143
 -0.141

          Ground-State Mulliken Net Atomic Charges

     Atom                 Charge (a.u.)
  ----------------------------------------
      1 O                    -0.215839
      2 C                     0.212275
      3 C                    -0.078906
      4 C                    -0.077631
      5 C                     0.212911
      6 O                    -0.171480
      7 C                    -0.056991
      8 C                    -0.054995
      9 O                    -0.172516
     10 C                     0.215939
     11 C                    -0.078025
     12 C                    -0.081597
     13 C                     0.216576
     14 O                    -0.215608
     15 O                    -0.168266
     16 O                    -0.179072
     17 O                    -0.208446
     18 C                    -0.127722
     19 C                     0.025307
     20 C                    -0.144089
     21 C                    -0.143447
     22 C                     0.024156
     23 O                    -0.190002
     24 H                     0.088345
     25 H                     0.082901
     26 H                     0.084466
     27 H                     0.078440
     28 H                     0.074733
     29 H                     0.078338
     30 H                     0.073499
     31 H                     0.091615
     32 O                    -0.214330
     33 C                    -0.127277
     34 C                     0.023195
     35 C                    -0.143802
     36 C                    -0.142858
     37 C                     0.026146
     38 O                    -0.188125
     39 H                     0.083818
     40 H                     0.085543
     41 H                     0.088371
     42 H                     0.092836
     43 H                     0.077515
     44 H                     0.072198
     45 H                     0.078519
     46 H                     0.071899
     47 H                     0.088236
     48 H                     0.093681
     49 H                     0.091061
     50 H                     0.081496
     51 H                     0.085895
     52 H                     0.095456
     53 H                     0.104880
     54 H                     0.088094
     55 H                     0.106530
     56 H                     0.086152
  ----------------------------------------
  Sum of atomic charges =    -0.000000

                    Cartesian Multipole Moments
 -----------------------------------------------------------------
    Charge (ESU x 10^10)
                -0.0000
    Dipole Moment (Debye)
         X       1.8287      Y       0.6166      Z       0.8213
       Tot       2.0973
    Quadrupole Moments (Debye-Ang)
        XX    -158.7589     XY       4.0014     YY    -149.8341
        XZ     -12.1452     YZ       0.4656     ZZ    -161.3327

 Total job time:  60.85s(wall), 2899.41s(cpu)
        *  Thank you very much for using Q-Chem.  Have a nice day.  *
