 Q-Chem 5.0, Q-Chem, Inc., Pleasanton, CA (2017)
 Q-Chem 5.0.1 for Intel X86 EM64T Linux

User input:
--------------------------------------------------------------
$molecule
0  1
O 4.4992917523 -1.2747196289 -1.0167416202
C 4.5557694682 -0.2354027815 -0.3226529922
C 3.599844614 1.0063112574 -0.43508346
C 2.0799064134 0.6016398969 -0.6433778722
C 1.8277154774 -0.924270643 -0.4023345748
O 1.1413948381 -1.4741097703 -1.5383777432
C 0.822529791 -2.8999946253 -1.279443148
C -0.7315174629 -3.0814882401 -1.2792765377
O -1.2637227233 -2.4176456779 -0.0613016678
C -1.9934276046 -1.2418863978 -0.4138667239
C -2.6319036621 -0.6452559394 0.8826761423
C -3.2723264972 0.7790575861 0.6348018537
C -2.9539581187 1.4077658384 -0.771551745
O -3.7862712852 1.804902807 -1.6142303078
O 5.5522258333 0.0054074355 0.672955597
O -1.5378148879 1.6398736901 -0.8727049454
O -2.1701988017 -0.8439171918 -1.5887012488
C -1.2325209983 2.1328728997 -2.2344704436
C -3.9314727097 -1.4834315787 1.2596185783
C -4.4403953443 -1.0248540906 2.6838959569
C -5.1358102011 0.3445548397 2.33658535
C -4.8163199405 0.4589833868 0.7972546752
O -4.9408495248 -0.9408045332 0.3230792487
H -1.8851602155 -0.6446915176 1.69674148
H -2.9271610098 1.4910975809 1.4069328609
H -3.8191197073 -2.5773141751 1.1272674373
H -5.1582046769 -1.7548107116 3.0904870878
H -3.6100745549 -0.9100169725 3.399046956
H -6.2242704397 0.2941949234 2.4992012429
H -4.7296617438 1.1895846588 2.9149222522
H -5.4749691517 1.1260931219 0.2075550693
O 2.1108507616 -1.5783286915 0.6263765966
C 6.4533293982 -1.165792432 0.7767920875
C 3.5052223093 1.8883985188 0.8842801835
C 2.9773700998 3.3159206165 0.4726522741
C 1.4764853537 2.9881485929 0.1358284676
C 1.3967052364 1.453505516 0.5097956596
O 2.359918741 1.3081285492 1.6253982907
H 3.9531068334 1.6166794222 -1.287333255
H 1.7082385025 0.8692122325 -1.6474672078
H 7.0005480304 -1.3450838721 -0.1713907333
H 4.4218344586 1.8676576433 1.504045889
H 3.0575453618 4.0142205615 1.3209996453
H 3.5265254799 3.7363396607 -0.3849722764
H 0.7789590698 3.5707733154 0.7577329766
H 1.2341184842 3.1670054042 -0.92257922
H 0.3869491343 1.0998375502 0.7965019248
H 5.8927526841 -2.0856740402 1.0402588913
H 7.1731959491 -0.9254217293 1.5806109565
H -0.1346192697 2.2386487281 -2.2884630605
H -1.7099282125 3.114324133 -2.4329921088
H -1.5705765295 1.410475003 -3.0049809893
H -1.1861610699 -2.6124886099 -2.1784336367
H -0.9956585457 -4.1581213524 -1.223000229
H 1.2531462904 -3.1794734943 -0.2926583925
H 1.2794713803 -3.5130776884 -2.0850150602
$end

$rem
JOBTYPE                   OPT
METHOD                    B3LYP
DFT_D                     d3_op
BASIS                     STO-3G
GEOM_OPT_MAX_CYCLES       100
GEOM_OPT_TOL_GRADIENT     300
GEOM_OPT_TOL_DISPLACEMENT 1200
GEOM_OPT_TOL_ENERGY       100
SYMMETRY                  False
THRESH                    12
SCF_CONVERGENCE           8
MAX_SUB_FILE_NUM          128
MEM_STATIC                400
MEM_TOTAL                 4000
$end
--------------------------------------------------------------

   16   -1510.2884393748      7.70E-09 Convergence criterion met
 Total energy in the final basis set = -1510.28843937
   14   -1510.2900416917      4.76E-09 Convergence criterion met
 Total energy in the final basis set = -1510.29004169
   14   -1510.2787849172      5.26E-09 Convergence criterion met
 Total energy in the final basis set = -1510.27878492
   14   -1510.2904325519      2.20E-09 Convergence criterion met
 Total energy in the final basis set = -1510.29043255
   13   -1510.2897757328      5.05E-09 Convergence criterion met
 Total energy in the final basis set = -1510.28977573
   13   -1510.2914430704      3.60E-09 Convergence criterion met
 Total energy in the final basis set = -1510.29144307
   13   -1510.2917519901      3.87E-09 Convergence criterion met
 Total energy in the final basis set = -1510.29175199
   13   -1510.2923291072      4.71E-09 Convergence criterion met
   13   -1510.2976511260      3.16E-09 Convergence criterion met
 Total energy in the final basis set = -1510.29765113
   12   -1510.2976690354      8.94E-09 Convergence criterion met
 Total energy in the final basis set = -1510.29766904
   12   -1510.2977121528      5.05E-09 Convergence criterion met
 Total energy in the final basis set = -1510.29771215
   11   -1510.2977154900      5.45E-09 Convergence criterion met
 Total energy in the final basis set = -1510.29771549
   11   -1510.2977181914      2.93E-09 Convergence criterion met
 Total energy in the final basis set = -1510.29771819
   10   -1510.2977189206      8.53E-09 Convergence criterion met
 Total energy in the final basis set = -1510.29771892

             Standard Nuclear Orientation (Angstroms)
    I     Atom           X                Y                Z
 ----------------------------------------------------------------
    1      O       3.4429348377    -1.7048322493     0.5121305326
    2      C       3.9162621571    -0.5490508441     0.6004234585
    3      C       3.4275346017     0.7323607700    -0.1533205566
    4      C       2.0374127855     0.5391431096    -0.8857933343
    5      C       1.3285671499    -0.8109824936    -0.5073813656
    6      O       1.4350739533    -1.6995160344    -1.6323231274
    7      C       0.8624134072    -3.0289372714    -1.3180120740
    8      C      -0.6895329952    -3.1189780658    -1.5834764416
    9      O      -1.4581379522    -2.6031836297    -0.4265358248
   10      C      -1.7926828483    -1.2281614169    -0.6177828652
   11      C      -2.3531157582    -0.6577423317     0.7252053615
   12      C      -2.9333581178     0.8056679909     0.5755895630
   13      C      -2.8628122521     1.3783050076    -0.8860976999
   14      O      -3.7635317149     1.3717084734    -1.7501729644
   15      O       5.0380157761    -0.2064587110     1.4161637353
   16      O      -1.6138088252     2.0859288874    -1.0407309526
   17      O      -1.6434719832    -0.6060944105    -1.6952732621
   18      C      -1.4857802489     2.5655130779    -2.4343778543
   19      C      -3.6329798453    -1.4471044759     1.2348895226
   20      C      -3.8858009364    -1.0593779894     2.7441394197
   21      C      -4.4693148691     0.3943148056     2.5903719687
   22      C      -4.4386420885     0.5714014685     1.0214172688
   23      O      -4.7435364358    -0.7867451316     0.5118393166
   24      H      -1.5257861900    -0.6988010477     1.4582574511
   25      H      -2.4056446798     1.5058850673     1.2467914128
   26      H      -3.6096863510    -2.5327687142     1.0186227717
   27      H      -4.6195912824    -1.7437159279     3.1988905845
   28      H      -2.9592523138    -1.0867100733     3.3395290530
   29      H      -5.5037230269     0.4565627932     2.9641769284
   30      H      -3.8599731694     1.1541703467     3.1053105235
   31      H      -5.1563084648     1.3057880954     0.6074385523
   32      O       0.6953990642    -1.0667393548     0.5393768554
   33      C       5.5240583392    -1.4051820712     2.1390559417
   34      C       3.0981840542     1.9516895760     0.8176150712
   35      C       3.1424532542     3.2706932964    -0.0443402699
   36      C       1.8332367495     3.1030690794    -0.8994184482
   37      C       1.2253615745     1.7696380832    -0.3011117133
   38      O       1.6577571080     1.7904544714     1.1171976631
   39      H       4.2171918105     1.0157662448    -0.8739923046
   40      H       2.1477318445     0.5802629035    -1.9832507987
   41      H       5.8375949654    -2.2055583673     1.4380627944
   42      H       3.6993641249     1.9635560690     1.7472085276
   43      H       3.0871456916     4.1560906448     0.6090091180
   44      H       4.0532094845     3.3421265227    -0.6601328908
   45      H       1.1398713052     3.9446669323    -0.7447530259
   46      H       2.0428271951     3.0116748491    -1.9772870660
   47      H       0.1151877736     1.6960504849    -0.3972611515
   48      H       4.7469703674    -1.8144410446     2.8166120724
   49      H       6.3942469953    -1.0704961636     2.7330129598
   50      H      -0.5787008963     3.1951591175    -2.4654127520
   51      H      -2.3687526164     3.1617349639    -2.7399853486
   52      H      -1.3717882721     1.7136228130    -3.1358171757
   53      H      -0.9512530897    -2.5484793788    -2.5005633226
   54      H      -0.9781431290    -4.1833784030    -1.7026821344
   55      H       1.0677990858    -3.3049377812    -0.2614295194
   56      H       1.3793364861    -3.7413305534    -1.9934564039
 ----------------------------------------------------------------

   10   -1510.2977192050      7.75E-09 Convergence criterion met
 Total energy in the final basis set = -1510.29771921
 Final energy is   -1510.29771920503
 **  OPTIMIZATION CONVERGED  **

                    Orbital Energies (a.u.)
 --------------------------------------------------------------

 Alpha MOs
 -- Occupied --
-18.942 -18.934 -18.925 -18.922 -18.883 -18.881 -18.879 -18.879
-18.862 -18.860 -10.104 -10.102 -10.092 -10.091 -10.070 -10.069
-10.067 -10.055 -10.055 -10.054 -10.053 -10.039 -10.036 -10.031
-10.029 -10.028 -10.015 -10.015 -10.014 -10.012  -1.018  -1.016
 -1.000  -0.996  -0.964  -0.962  -0.942  -0.939  -0.926  -0.926
 -0.758  -0.757  -0.722  -0.717  -0.710  -0.700  -0.691  -0.664
 -0.654  -0.616  -0.593  -0.574  -0.541  -0.539  -0.532  -0.530
 -0.509  -0.506  -0.481  -0.473  -0.456  -0.453  -0.448  -0.445
 -0.429  -0.427  -0.426  -0.415  -0.413  -0.405  -0.403  -0.400
 -0.393  -0.377  -0.374  -0.363  -0.357  -0.352  -0.349  -0.345
 -0.344  -0.336  -0.328  -0.326  -0.325  -0.319  -0.319  -0.310
 -0.309  -0.301  -0.299  -0.296  -0.294  -0.277  -0.273  -0.271
 -0.271  -0.257  -0.249  -0.244  -0.239  -0.228  -0.225  -0.187
 -0.182  -0.167  -0.160  -0.158  -0.155  -0.142  -0.141  -0.139
 -0.136

          Ground-State Mulliken Net Atomic Charges

     Atom                 Charge (a.u.)
  ----------------------------------------
      1 O                    -0.210594
      2 C                     0.212987
      3 C                    -0.079472
      4 C                    -0.081278
      5 C                     0.217092
      6 O                    -0.174342
      7 C                    -0.050847
      8 C                    -0.054053
      9 O                    -0.169106
     10 C                     0.221224
     11 C                    -0.079465
     12 C                    -0.082529
     13 C                     0.218924
     14 O                    -0.214050
     15 O                    -0.169080
     16 O                    -0.175394
     17 O                    -0.214813
     18 C                    -0.128941
     19 C                     0.024614
     20 C                    -0.143547
     21 C                    -0.144090
     22 C                     0.025304
     23 O                    -0.189643
     24 H                     0.103065
     25 H                     0.086899
     26 H                     0.087331
     27 H                     0.076950
     28 H                     0.075848
     29 H                     0.076864
     30 H                     0.073902
     31 H                     0.086029
     32 O                    -0.223546
     33 C                    -0.128041
     34 C                     0.024725
     35 C                    -0.143400
     36 C                    -0.146354
     37 C                     0.010122
     38 O                    -0.191648
     39 H                     0.084945
     40 H                     0.084081
     41 H                     0.089852
     42 H                     0.085574
     43 H                     0.076351
     44 H                     0.071469
     45 H                     0.074936
     46 H                     0.069278
     47 H                     0.107478
     48 H                     0.091630
     49 H                     0.091794
     50 H                     0.086359
     51 H                     0.089941
     52 H                     0.092691
     53 H                     0.100317
     54 H                     0.088433
     55 H                     0.099787
     56 H                     0.087434
  ----------------------------------------
  Sum of atomic charges =     0.000000

                    Cartesian Multipole Moments
 -----------------------------------------------------------------
    Charge (ESU x 10^10)
                 0.0000
    Dipole Moment (Debye)
         X       3.3257      Y       0.0042      Z       0.5155
       Tot       3.3654
    Quadrupole Moments (Debye-Ang)
        XX    -158.2705     XY      -1.6288     YY    -149.3955
        XZ      -6.7195     YZ      -1.1814     ZZ    -155.7309

 Total job time:  91.38s(wall), 4352.84s(cpu)
        *  Thank you very much for using Q-Chem.  Have a nice day.  *
