 Q-Chem 5.0, Q-Chem, Inc., Pleasanton, CA (2017)
 Q-Chem 5.0.1 for Intel X86 EM64T Linux

User input:
--------------------------------------------------------------
$molecule
0  1
O 4.5408366108 -1.2059090473 -1.0740208163
C 4.5839589768 -0.1545081771 -0.3976039215
C 3.5637464123 1.0379267041 -0.4744130375
C 2.0588949677 0.5572732137 -0.6031570689
C 1.8620694738 -0.9854552481 -0.4249125647
O 1.1116913074 -1.4617660763 -1.5495185005
C 0.8040250461 -2.9055593083 -1.3955485575
C -0.7550245036 -3.0206052459 -1.4253370877
O -1.2505433648 -2.3878208187 -0.1749320829
C -1.9789030218 -1.1967770748 -0.4690043492
C -2.5130117251 -0.5978701934 0.8735518361
C -3.2907767721 0.7624046311 0.6614937449
C -3.1740253788 1.3599390645 -0.7893204832
O -4.09045622 1.5046031308 -1.6248680921
O 5.6181320344 0.1492716199 0.5402353206
O -1.8372916581 1.8666507598 -0.9485182464
O -2.1883873605 -0.7622554755 -1.6252646826
C -1.6558855627 2.3512260605 -2.3336885767
C -3.6848179858 -1.5169094847 1.4341013089
C -4.0582226768 -1.0397104419 2.8934509075
C -4.8981073277 0.2562496293 2.5884182006
C -4.7738614198 0.3295106645 1.0177004743
O -4.839543718 -1.09444464 0.6098464833
H -1.6794637189 -0.5067725777 1.5929498905
H -2.9155659293 1.5253892609 1.36770372
H -3.4990672603 -2.6030993815 1.3227017209
H -4.6630976083 -1.804726129 3.4054523408
H -3.1626815544 -0.832353267 3.5009077203
H -5.951912143 0.1306451247 2.8844453048
H -4.4959403358 1.1536683557 3.0849808008
H -5.5534563047 0.9154532337 0.493160459
O 2.2055765615 -1.697729063 0.5440153944
C 6.5802940835 -0.9744327253 0.6106480048
C 3.4898795113 1.9275666909 0.8390189426
C 2.8178938882 3.3051051537 0.4600448521
C 1.3186385723 2.8657897499 0.2690145906
C 1.4009816903 1.3295714213 0.6209751035
O 2.4537257961 1.2573519917 1.6595398522
H 3.8437090491 1.6531930163 -1.3502399843
H 1.6112545325 0.8524213834 -1.5678393374
H 7.0909599719 -1.1361458332 -0.3608165794
H 4.445372659 1.990562286 1.3938392003
H 2.9252648532 4.0247480569 1.2872274722
H 3.2521349905 3.747091806 -0.4511134077
H 0.6477654471 3.3858825021 0.970750941
H 0.9525539782 3.0342169443 -0.75563387
H 0.456496683 0.8824823704 0.9869956614
H 6.0796214862 -1.9183740475 0.9074504016
H 7.3241840624 -0.6903263502 1.3775144419
H -0.6312712805 2.7630586343 -2.3860321611
H -2.3874354569 3.1436785012 -2.5933727121
H -1.7587614647 1.5216998162 -3.0631890645
H -1.1773960824 -2.4822456719 -2.3007873096
H -1.0784741119 -4.082752863 -1.4264769305
H 1.2203282304 -3.2621995802 -0.4281074441
H 1.2598810838 -3.4641870395 -2.240555974
$end

$rem
JOBTYPE                   OPT
METHOD                    B3LYP
DFT_D                     d3_op
BASIS                     STO-3G
GEOM_OPT_MAX_CYCLES       100
GEOM_OPT_TOL_GRADIENT     300
GEOM_OPT_TOL_DISPLACEMENT 1200
GEOM_OPT_TOL_ENERGY       100
SYMMETRY                  False
THRESH                    12
SCF_CONVERGENCE           8
MAX_SUB_FILE_NUM          128
MEM_STATIC                400
MEM_TOTAL                 4000
$end
--------------------------------------------------------------

   16   -1510.2884842483      7.20E-09 Convergence criterion met
 Total energy in the final basis set = -1510.28848425
   14   -1510.2788418215      2.64E-09 Convergence criterion met
 Total energy in the final basis set = -1510.27884182
   14   -1510.2890904651      2.66E-09 Convergence criterion met
 Total energy in the final basis set = -1510.28909047
   15   -1510.2896545749      6.60E-09 Convergence criterion met
 Total energy in the final basis set = -1510.28965457
   13   -1510.2907027707      5.95E-09 Convergence criterion met
 Total energy in the final basis set = -1510.29070277
   13   -1510.2918226408      9.87E-09 Convergence criterion met
 Total energy in the final basis set = -1510.29182264
   13   -1510.2922235952      5.87E-09 Convergence criterion met
 Total energy in the final basis set = -1510.29222360
   14   -1510.2937414247      6.52E-09 Convergence criterion met
   12   -1510.3025872170      3.54E-09 Convergence criterion met
 Total energy in the final basis set = -1510.30258722
   12   -1510.3026177517      2.86E-09 Convergence criterion met
 Total energy in the final basis set = -1510.30261775
   11   -1510.3026131627      4.99E-09 Convergence criterion met
 Total energy in the final basis set = -1510.30261316
   11   -1510.3026231973      2.35E-09 Convergence criterion met
 Total energy in the final basis set = -1510.30262320
    9   -1510.3026225265      8.23E-09 Convergence criterion met
 Total energy in the final basis set = -1510.30262253
   10   -1510.3026244252      7.20E-09 Convergence criterion met
 Total energy in the final basis set = -1510.30262443

             Standard Nuclear Orientation (Angstroms)
    I     Atom           X                Y                Z
 ----------------------------------------------------------------
    1      O       3.6619152828    -1.3898693671     0.5023840871
    2      C       3.8080234578    -0.2698785182    -0.0380562289
    3      C       2.7514893084     0.8803084596    -0.1095549753
    4      C       1.3073983260     0.3931088272     0.3048974593
    5      C       1.1720879330    -1.1538494030     0.5095155391
    6      O       1.2669531030    -1.7663014414    -0.7960983940
    7      C       0.9531811839    -3.2078486578    -0.7162599485
    8      C      -0.5498227395    -3.4353147597    -1.1301643883
    9      O      -1.4217525248    -2.7075089049    -0.1770113562
   10      C      -1.6618182941    -1.3747044768    -0.6282440613
   11      C      -2.2977316016    -0.5683877441     0.5499704832
   12      C      -2.5921834362     0.9374760807     0.1688361925
   13      C      -2.1810392869     1.3331180612    -1.2972453899
   14      O      -2.9258633537     1.4797694625    -2.2866007770
   15      O       5.0139361767     0.1616689844    -0.6719682392
   16      O      -0.7813101140     1.7057826155    -1.2932611481
   17      O      -1.4128811650    -0.9478190519    -1.7798517423
   18      C      -0.3418140809     2.0465018666    -2.6639442615
   19      C      -3.7598477765    -1.0871150782     0.8978459669
   20      C      -4.1809498762    -0.4817643773     2.2940196220
   21      C      -4.4841171917     1.0112982097     1.8987914804
   22      C      -4.1684016856     0.9871551761     0.3518513528
   23      O      -4.6095871664    -0.3621281698    -0.0726046490
   24      H      -1.6224723905    -0.6517389783     1.4212147107
   25      H      -2.0763479590     1.6211720919     0.8656451592
   26      H      -3.8875529399    -2.1823210672     0.7955506339
   27      H      -5.0799732120    -0.9895322162     2.6779837181
   28      H      -3.3773456625    -0.5715978144     3.0423971165
   29      H      -5.5411815524     1.2687312361     2.0715344576
   30      H      -3.8516799141     1.7325955003     2.4403102975
   31      H      -4.6718119151     1.7640732575    -0.2553827059
   32      O       0.8833164753    -1.7698093358     1.5573018202
   33      C       6.0381099166    -0.9058878897    -0.5866660520
   34      C       3.0366359377     1.9581389829     1.0277560386
   35      C       2.1256499711     3.2213705013     0.7650395367
   36      C       0.7170157525     2.6859597597     1.2180079315
   37      C       1.0837412367     1.2095039549     1.6441474962
   38      O       2.4403119358     1.3347909320     2.2285999750
   39      H       2.7756046313     1.3331654401    -1.1165811385
   40      H       0.5475769964     0.7071091523    -0.4461109828
   41      H       5.6985469728    -1.8356057603    -1.0871038940
   42      H       4.1107325495     2.1751053415     1.1892844473
   43      H       2.4588104885     4.0686313143     1.3854331373
   44      H       2.1415575087     3.5304450641    -0.2924544595
   45      H       0.3160224046     3.2591310353     2.0685246998
   46      H      -0.0114216033     2.6834917814     0.3878490379
   47      H       0.3972802169     0.7245910519     2.3649748246
   48      H       6.2908534383    -1.1456299372     0.4663686021
   49      H       6.9331256613    -0.5124034314    -1.1025242697
   50      H       0.7048276141     2.3907786056    -2.5743649516
   51      H      -0.9664114456     2.8512793306    -3.1012003554
   52      H      -0.3875906122     1.1580085933    -3.3260838357
   53      H      -0.7229629950    -3.0671177481    -2.1636486032
   54      H      -0.8153544867    -4.5092900685    -1.0550676414
   55      H       1.1128539911    -3.5702872996     0.3216659890
   56      H       1.6237647712    -3.7416490865    -1.4205821891
 ----------------------------------------------------------------

    9   -1510.3026247142      3.17E-09 Convergence criterion met
 Total energy in the final basis set = -1510.30262471
 Final energy is   -1510.30262471423
 **  OPTIMIZATION CONVERGED  **

                    Orbital Energies (a.u.)
 --------------------------------------------------------------

 Alpha MOs
 -- Occupied --
-18.942 -18.939 -18.938 -18.917 -18.889 -18.889 -18.880 -18.880
-18.876 -18.862 -10.109 -10.103 -10.100 -10.089 -10.074 -10.067
-10.066 -10.066 -10.062 -10.060 -10.056 -10.049 -10.041 -10.038
-10.034 -10.021 -10.020 -10.015 -10.015 -10.007  -1.023  -1.015
 -1.009  -0.996  -0.972  -0.964  -0.946  -0.938  -0.937  -0.926
 -0.766  -0.757  -0.727  -0.719  -0.712  -0.703  -0.694  -0.664
 -0.663  -0.617  -0.597  -0.576  -0.548  -0.541  -0.538  -0.531
 -0.514  -0.506  -0.489  -0.472  -0.469  -0.458  -0.451  -0.446
 -0.433  -0.427  -0.425  -0.417  -0.415  -0.414  -0.410  -0.402
 -0.398  -0.379  -0.374  -0.368  -0.359  -0.357  -0.352  -0.350
 -0.343  -0.340  -0.337  -0.334  -0.328  -0.327  -0.319  -0.315
 -0.309  -0.306  -0.302  -0.298  -0.295  -0.285  -0.280  -0.274
 -0.269  -0.255  -0.253  -0.249  -0.238  -0.236  -0.226  -0.193
 -0.181  -0.179  -0.165  -0.157  -0.155  -0.152  -0.146  -0.144
 -0.138

          Ground-State Mulliken Net Atomic Charges

     Atom                 Charge (a.u.)
  ----------------------------------------
      1 O                    -0.207848
      2 C                     0.214344
      3 C                    -0.077972
      4 C                    -0.097808
      5 C                     0.211721
      6 O                    -0.181280
      7 C                    -0.053647
      8 C                    -0.051954
      9 O                    -0.169533
     10 C                     0.214971
     11 C                    -0.079971
     12 C                    -0.083122
     13 C                     0.221219
     14 O                    -0.207849
     15 O                    -0.169481
     16 O                    -0.176762
     17 O                    -0.206569
     18 C                    -0.127318
     19 C                     0.025822
     20 C                    -0.143537
     21 C                    -0.144124
     22 C                     0.025544
     23 O                    -0.188397
     24 H                     0.093155
     25 H                     0.085339
     26 H                     0.087983
     27 H                     0.078970
     28 H                     0.076202
     29 H                     0.078619
     30 H                     0.073639
     31 H                     0.088297
     32 O                    -0.219186
     33 C                    -0.128276
     34 C                     0.025180
     35 C                    -0.143547
     36 C                    -0.152747
     37 C                     0.022243
     38 O                    -0.192109
     39 H                     0.083627
     40 H                     0.107542
     41 H                     0.089841
     42 H                     0.081756
     43 H                     0.075808
     44 H                     0.070546
     45 H                     0.070504
     46 H                     0.085214
     47 H                     0.080825
     48 H                     0.090725
     49 H                     0.091005
     50 H                     0.086500
     51 H                     0.091302
     52 H                     0.097141
     53 H                     0.098324
     54 H                     0.090510
     55 H                     0.102188
     56 H                     0.086427
  ----------------------------------------
  Sum of atomic charges =    -0.000000

                    Cartesian Multipole Moments
 -----------------------------------------------------------------
    Charge (ESU x 10^10)
                -0.0000
    Dipole Moment (Debye)
         X       1.3432      Y       0.6265      Z      -0.6208
       Tot       1.6069
    Quadrupole Moments (Debye-Ang)
        XX    -156.8355     XY      -1.0305     YY    -149.1593
        XZ     -16.1528     YZ       4.8756     ZZ    -165.7413

 Total job time:  98.56s(wall), 4697.91s(cpu)
        *  Thank you very much for using Q-Chem.  Have a nice day.  *
