 Q-Chem 5.0, Q-Chem, Inc., Pleasanton, CA (2017)
 Q-Chem 5.0.1 for Intel X86 EM64T Linux

User input:
--------------------------------------------------------------
$molecule
0  1
O -3.94934 -3.66094 2.70899
C -3.26408 -4.56952 2.26188
C -3.36658 -6.02376 2.66595
C -4.7781 -6.60022 2.8638
C -5.93282 -5.70893 2.46342
O -6.82578 -5.61596 3.49269
C -7.99536 -4.86181 3.15714
C -9.2428 -5.72243 3.32847
O -9.26403 -6.75721 2.33264
C -9.12115 -8.02141 2.80224
C -9.19317 -9.06523 1.71324
C -8.98295 -10.51072 2.18717
C -9.08965 -10.73823 3.68168
O -9.9515 -11.40359 4.23762
O -2.43854 -4.28187 1.21949
O -7.96924 -10.43533 4.39658
O -8.91606 -8.2307 3.98628
C -7.80848 -10.68657 5.74364
C -10.57312 -9.16783 1.03942
C -10.4105 -9.75346 -0.36133
C -10.04269 -11.18477 -0.02661
C -10.20446 -11.16058 1.49906
O -11.22018 -10.21224 1.72185
H -8.42689 -8.77864 0.95708
H -8.02491 -10.95942 1.84288
H -11.11838 -8.19996 0.99397
H -11.41955 -9.74589 -0.83282
H -9.69379 -9.22288 -1.02448
H -10.79388 -11.85768 -0.49657
H -9.01576 -11.49324 -0.3197
H -10.40568 -12.18809 1.87466
O -6.0592 -5.21912 1.34605
C -2.26768 -3.02363 0.68062
C -2.80964 -7.01515 1.62068
C -2.47506 -8.35347 2.28487
C -3.86215 -8.92173 2.4929
C -4.71499 -7.79994 1.9
O -3.93137 -7.32427 0.83113
H -2.78919 -6.09542 3.6144
H -4.93761 -6.95204 3.90988
H -1.87556 -2.32723 1.45239
H -1.91329 -6.6434 1.08002
H -1.94172 -8.99239 1.54529
H -1.85772 -8.25476 3.20369
H -3.97058 -9.82849 1.85627
H -4.12524 -9.16903 3.54405
H -5.72433 -8.18662 1.63373
H -3.23325 -2.64207 0.28511
H -1.53803 -3.08113 -0.15289
H -6.80637 -10.33301 6.06188
H -7.88312 -11.77699 5.94232
H -8.58193 -10.14381 6.32806
H -9.29052 -6.05761 4.38763
H -10.14188 -5.08873 3.17401
H -8.02458 -4.41931 2.13685
H -8.06076 -4.01028 3.86755
$end

$opt
CONSTRAINT
tors           1           2           3           4     +41.005
tors           3           4           5           6    -128.165
tors           4           5           6           7    -175.928
tors           5           6           7           8    +121.071
tors           6           7           8           9     -68.575
tors           7           8           9          10    +113.043
tors           8           9          10          11    +178.277
tors           9          10          11          12    +177.762
tors          11          12          13          14    +114.437
ENDCONSTRAINT
$end

$rem
JOBTYPE                   OPT
METHOD                    B3LYP
DFT_D                     d3_op
BASIS                     STO-3G
GEOM_OPT_MAX_CYCLES       100
GEOM_OPT_TOL_GRADIENT     300
GEOM_OPT_TOL_DISPLACEMENT 1200
GEOM_OPT_TOL_ENERGY       100
SYMMETRY                  False
THRESH                    12
SCF_CONVERGENCE           8
MAX_SUB_FILE_NUM          128
MEM_STATIC                400
MEM_TOTAL                 4000
$end
--------------------------------------------------------------

   15   -1510.1529203051      9.45E-09 Convergence criterion met
 Total energy in the final basis set = -1510.15292031
   14   -1510.2226194104      4.82E-09 Convergence criterion met
 Total energy in the final basis set = -1510.22261941
   14   -1510.2591817422      3.30E-09 Convergence criterion met
 Total energy in the final basis set = -1510.25918174
   14   -1510.2747591115      6.08E-09 Convergence criterion met
 Total energy in the final basis set = -1510.27475911
   14   -1510.2813492776      4.77E-09 Convergence criterion met
 Total energy in the final basis set = -1510.28134928
   13   -1510.2842965280      4.37E-09 Convergence criterion met
 Total energy in the final basis set = -1510.28429653
   13   -1510.2859493433      4.06E-09 Convergence criterion met
 Total energy in the final basis set = -1510.28594934
   13   -1510.2868296329      3.09E-09 Convergence criterion met
   12   -1510.2880261128      7.51E-09 Convergence criterion met
 Total energy in the final basis set = -1510.28802611
   12   -1510.2882035571      6.60E-09 Convergence criterion met
 Total energy in the final basis set = -1510.28820356
   12   -1510.2882774596      3.43E-09 Convergence criterion met
 Total energy in the final basis set = -1510.28827746
   11   -1510.2883331632      4.38E-09 Convergence criterion met
 Total energy in the final basis set = -1510.28833316
   11   -1510.2883809834      7.42E-09 Convergence criterion met
 Total energy in the final basis set = -1510.28838098
   11   -1510.2884105419      3.52E-09 Convergence criterion met
 Total energy in the final basis set = -1510.28841054

             Standard Nuclear Orientation (Angstroms)
    I     Atom           X                Y                Z
 ----------------------------------------------------------------
    1      O       4.5408366108    -1.2059090473    -1.0740208163
    2      C       4.5839589768    -0.1545081771    -0.3976039215
    3      C       3.5637464123     1.0379267041    -0.4744130375
    4      C       2.0588949677     0.5572732137    -0.6031570689
    5      C       1.8620694738    -0.9854552481    -0.4249125647
    6      O       1.1116913074    -1.4617660763    -1.5495185005
    7      C       0.8040250461    -2.9055593083    -1.3955485575
    8      C      -0.7550245036    -3.0206052459    -1.4253370877
    9      O      -1.2505433648    -2.3878208187    -0.1749320829
   10      C      -1.9789030218    -1.1967770748    -0.4690043492
   11      C      -2.5130117251    -0.5978701934     0.8735518361
   12      C      -3.2907767721     0.7624046311     0.6614937449
   13      C      -3.1740253788     1.3599390645    -0.7893204832
   14      O      -4.0904562200     1.5046031308    -1.6248680921
   15      O       5.6181320344     0.1492716199     0.5402353206
   16      O      -1.8372916581     1.8666507598    -0.9485182464
   17      O      -2.1883873605    -0.7622554755    -1.6252646826
   18      C      -1.6558855627     2.3512260605    -2.3336885767
   19      C      -3.6848179858    -1.5169094847     1.4341013089
   20      C      -4.0582226768    -1.0397104419     2.8934509075
   21      C      -4.8981073277     0.2562496293     2.5884182006
   22      C      -4.7738614198     0.3295106645     1.0177004743
   23      O      -4.8395437180    -1.0944446400     0.6098464833
   24      H      -1.6794637189    -0.5067725777     1.5929498905
   25      H      -2.9155659293     1.5253892609     1.3677037200
   26      H      -3.4990672603    -2.6030993815     1.3227017209
   27      H      -4.6630976083    -1.8047261290     3.4054523408
   28      H      -3.1626815544    -0.8323532670     3.5009077203
   29      H      -5.9519121430     0.1306451247     2.8844453048
   30      H      -4.4959403358     1.1536683557     3.0849808008
   31      H      -5.5534563047     0.9154532337     0.4931604590
   32      O       2.2055765615    -1.6977290630     0.5440153944
   33      C       6.5802940835    -0.9744327253     0.6106480048
   34      C       3.4898795113     1.9275666909     0.8390189426
   35      C       2.8178938882     3.3051051537     0.4600448521
   36      C       1.3186385723     2.8657897499     0.2690145906
   37      C       1.4009816903     1.3295714213     0.6209751035
   38      O       2.4537257961     1.2573519917     1.6595398522
   39      H       3.8437090491     1.6531930163    -1.3502399843
   40      H       1.6112545325     0.8524213834    -1.5678393374
   41      H       7.0909599719    -1.1361458332    -0.3608165794
   42      H       4.4453726590     1.9905622860     1.3938392003
   43      H       2.9252648532     4.0247480569     1.2872274722
   44      H       3.2521349905     3.7470918060    -0.4511134077
   45      H       0.6477654471     3.3858825021     0.9707509410
   46      H       0.9525539782     3.0342169443    -0.7556338700
   47      H       0.4564966830     0.8824823704     0.9869956614
   48      H       6.0796214862    -1.9183740475     0.9074504016
   49      H       7.3241840624    -0.6903263502     1.3775144419
   50      H      -0.6312712805     2.7630586343    -2.3860321611
   51      H      -2.3874354569     3.1436785012    -2.5933727121
   52      H      -1.7587614647     1.5216998162    -3.0631890645
   53      H      -1.1773960824    -2.4822456719    -2.3007873096
   54      H      -1.0784741119    -4.0827528630    -1.4264769305
   55      H       1.2203282304    -3.2621995802    -0.4281074441
   56      H       1.2598810838    -3.4641870395    -2.2405559740
 ----------------------------------------------------------------

   10   -1510.2884100777      7.34E-09 Convergence criterion met
 Total energy in the final basis set = -1510.28841008
 Final energy is   -1510.28841007769
 **  OPTIMIZATION CONVERGED  **

                    Orbital Energies (a.u.)
 --------------------------------------------------------------

 Alpha MOs
 -- Occupied --
-18.939 -18.938 -18.929 -18.919 -18.886 -18.886 -18.886 -18.874
-18.871 -18.862 -10.106 -10.100 -10.096 -10.091 -10.072 -10.067
-10.065 -10.061 -10.060 -10.057 -10.056 -10.056 -10.041 -10.038
-10.036 -10.033 -10.020 -10.020 -10.018 -10.018  -1.022  -1.013
 -1.006  -0.998  -0.969  -0.969  -0.945  -0.937  -0.931  -0.925
 -0.763  -0.762  -0.728  -0.722  -0.714  -0.705  -0.696  -0.662
 -0.655  -0.618  -0.597  -0.576  -0.545  -0.543  -0.537  -0.536
 -0.512  -0.511  -0.488  -0.474  -0.463  -0.456  -0.452  -0.449
 -0.433  -0.430  -0.423  -0.417  -0.412  -0.411  -0.404  -0.403
 -0.400  -0.377  -0.373  -0.365  -0.360  -0.356  -0.354  -0.348
 -0.343  -0.339  -0.338  -0.332  -0.329  -0.324  -0.321  -0.312
 -0.309  -0.305  -0.302  -0.301  -0.292  -0.288  -0.277  -0.274
 -0.272  -0.256  -0.253  -0.246  -0.244  -0.234  -0.233  -0.188
 -0.178  -0.167  -0.164  -0.162  -0.157  -0.150  -0.144  -0.142
 -0.142

          Ground-State Mulliken Net Atomic Charges

     Atom                 Charge (a.u.)
  ----------------------------------------
      1 O                    -0.214933
      2 C                     0.212621
      3 C                    -0.078693
      4 C                    -0.078847
      5 C                     0.213026
      6 O                    -0.173673
      7 C                    -0.054954
      8 C                    -0.053994
      9 O                    -0.172824
     10 C                     0.216880
     11 C                    -0.077510
     12 C                    -0.081968
     13 C                     0.216698
     14 O                    -0.215822
     15 O                    -0.168468
     16 O                    -0.179408
     17 O                    -0.207063
     18 C                    -0.128158
     19 C                     0.025155
     20 C                    -0.144245
     21 C                    -0.143398
     22 C                     0.024322
     23 O                    -0.190225
     24 H                     0.087092
     25 H                     0.082688
     26 H                     0.085581
     27 H                     0.078493
     28 H                     0.074597
     29 H                     0.078140
     30 H                     0.073295
     31 H                     0.090326
     32 O                    -0.214342
     33 C                    -0.127281
     34 C                     0.023288
     35 C                    -0.144087
     36 C                    -0.142192
     37 C                     0.027625
     38 O                    -0.188504
     39 H                     0.084235
     40 H                     0.087593
     41 H                     0.088260
     42 H                     0.092711
     43 H                     0.077544
     44 H                     0.072302
     45 H                     0.078608
     46 H                     0.073705
     47 H                     0.082260
     48 H                     0.093928
     49 H                     0.091043
     50 H                     0.080846
     51 H                     0.087171
     52 H                     0.093285
     53 H                     0.106127
     54 H                     0.087849
     55 H                     0.106113
     56 H                     0.087185
  ----------------------------------------
  Sum of atomic charges =     0.000000

                    Cartesian Multipole Moments
 -----------------------------------------------------------------
    Charge (ESU x 10^10)
                -0.0000
    Dipole Moment (Debye)
         X       1.9487      Y       0.9125      Z       0.6258
       Tot       2.2409
    Quadrupole Moments (Debye-Ang)
        XX    -161.5818     XY       3.0229     YY    -149.8434
        XZ     -11.9556     YZ       0.5889     ZZ    -160.2389

 Total job time:  49.66s(wall), 2364.19s(cpu)
        *  Thank you very much for using Q-Chem.  Have a nice day.  *
