 Q-Chem 5.0, Q-Chem, Inc., Pleasanton, CA (2017)
 Q-Chem 5.0.1 for Intel X86 EM64T Linux

User input:
--------------------------------------------------------------
$molecule
0  1
O -3.94934 -3.66094 2.70899
C -3.26408 -4.56952 2.26188
C -3.36658 -6.02376 2.66595
C -4.7785 -6.61395 2.81429
C -5.92685 -5.73529 2.37006
O -6.83738 -5.61538 3.38099
C -7.96026 -4.79829 3.03352
C -9.23745 -5.63191 3.03505
O -9.20988 -6.57155 1.94914
C -9.14151 -7.87718 2.30939
C -9.11726 -8.81383 1.12501
C -8.88857 -10.29192 1.47322
C -9.07386 -10.66375 2.93066
O -9.90508 -11.44992 3.36144
O -2.43772 -4.28176 1.22015
O -8.02209 -10.35691 3.74232
O -9.10501 -8.20107 3.4848
C -7.91931 -10.72959 5.06673
C -10.44329 -8.88383 0.3508
C -10.16954 -9.33077 -1.08332
C -9.78333 -10.77907 -0.85835
C -10.04352 -10.90353 0.64878
O -11.10037 -10.0045 0.88869
H -8.30336 -8.44639 0.45856
H -7.89417 -10.67399 1.15204
H -11.01234 -7.9287 0.35997
H -11.14381 -9.30145 -1.6222
H -9.42489 -8.72325 -1.64136
H -10.48396 -11.42129 -1.43685
H -8.73173 -11.03593 -1.11089
H -10.23748 -11.96649 0.91253
O -6.02613 -5.26029 1.24365
C -2.26787 -3.02378 0.68037
C -2.76126 -7.01457 1.64764
C -2.43824 -8.3461 2.33104
C -3.82644 -8.92762 2.49093
C -4.66833 -7.81803 1.86066
O -3.85015 -7.33959 0.81895
H -2.82513 -6.08586 3.63608
H -4.9706 -6.95949 3.85701
H -1.87738 -2.3262 1.45188
H -1.84938 -6.63547 1.13887
H -1.8716 -8.98321 1.61505
H -1.85623 -8.23663 3.27144
H -3.90206 -9.83888 1.85599
H -4.12576 -9.17193 3.53305
H -5.66336 -8.21618 1.55952
H -3.23354 -2.64381 0.28357
H -1.53738 -3.08113 -0.15243
H -6.96652 -10.34017 5.48041
H -7.92189 -11.83692 5.15528
H -8.76364 -10.30345 5.64969
H -9.36859 -6.05595 4.05429
H -10.10649 -4.95898 2.87503
H -7.89877 -4.26733 2.05756
H -8.0511 -4.00559 3.80632
$end

$opt
CONSTRAINT
tors           1           2           3           4     +43.158
tors           3           4           5           6    -126.306
tors           4           5           6           7    -179.814
tors           5           6           7           8    +115.787
tors           6           7           8           9     -68.575
tors           7           8           9          10    +113.448
tors           8           9          10          11    +179.935
tors           9          10          11          12    +173.729
tors          11          12          13          14    +118.051
ENDCONSTRAINT
$end

$rem
JOBTYPE                   OPT
METHOD                    B3LYP
DFT_D                     d3_op
BASIS                     STO-3G
GEOM_OPT_MAX_CYCLES       100
GEOM_OPT_TOL_GRADIENT     300
GEOM_OPT_TOL_DISPLACEMENT 1200
GEOM_OPT_TOL_ENERGY       100
SYMMETRY                  False
THRESH                    12
SCF_CONVERGENCE           8
MAX_SUB_FILE_NUM          128
MEM_STATIC                400
MEM_TOTAL                 4000
$end
--------------------------------------------------------------

   15   -1510.1534767269      7.06E-09 Convergence criterion met
 Total energy in the final basis set = -1510.15347673
   13   -1510.2231485152      9.37E-09 Convergence criterion met
 Total energy in the final basis set = -1510.22314852
   14   -1510.2597219992      5.95E-09 Convergence criterion met
 Total energy in the final basis set = -1510.25972200
   14   -1510.2754213070      5.08E-09 Convergence criterion met
 Total energy in the final basis set = -1510.27542131
   13   -1510.2820674378      8.99E-09 Convergence criterion met
 Total energy in the final basis set = -1510.28206744
   13   -1510.2849583407      4.24E-09 Convergence criterion met
 Total energy in the final basis set = -1510.28495834
   13   -1510.2864490661      2.72E-09 Convergence criterion met
 Total energy in the final basis set = -1510.28644907
   13   -1510.2869895648      8.92E-09 Convergence criterion met
   11   -1510.2892431026      8.17E-09 Convergence criterion met
 Total energy in the final basis set = -1510.28924310
   11   -1510.2892898888      4.11E-09 Convergence criterion met
 Total energy in the final basis set = -1510.28928989
   10   -1510.2893281757      8.59E-09 Convergence criterion met
 Total energy in the final basis set = -1510.28932818
   11   -1510.2893460154      3.65E-09 Convergence criterion met
 Total energy in the final basis set = -1510.28934602
   10   -1510.2893519310      9.05E-09 Convergence criterion met
 Total energy in the final basis set = -1510.28935193
    9   -1510.2893536006      5.17E-09 Convergence criterion met
 Total energy in the final basis set = -1510.28935360

             Standard Nuclear Orientation (Angstroms)
    I     Atom           X                Y                Z
 ----------------------------------------------------------------
    1      O       4.4654457657    -1.2066294979    -1.0475895833
    2      C       4.4926315460    -0.1920540310    -0.3162380153
    3      C       3.5382214355     1.0516512382    -0.4242691597
    4      C       2.0221693304     0.6498642289    -0.6605971288
    5      C       1.7589176018    -0.8865633966    -0.5152677329
    6      O       1.1056909298    -1.3416523108    -1.7075700447
    7      C       0.8276564615    -2.7973044195    -1.6204415565
    8      C      -0.7287381800    -2.9557818802    -1.6292952017
    9      O      -1.2059069543    -2.3968203126    -0.3373698512
   10      C      -1.9776801386    -1.2173161235    -0.5506685299
   11      C      -2.4496431803    -0.6811168220     0.8410846089
   12      C      -3.1824124518     0.7154070613     0.7308038809
   13      C      -3.0715593384     1.3904238002    -0.6856611134
   14      O      -4.0039724581     1.6725472434    -1.4663943832
   15      O       5.4480351563     0.0138195252     0.7262566173
   16      O      -1.7006377531     1.7839714787    -0.8783699257
   17      O      -2.2625799318    -0.7497699100    -1.6775843660
   18      C      -1.5319838524     2.3192513780    -2.2465805838
   19      C      -3.6417956521    -1.5897806969     1.3766844944
   20      C      -3.9585524721    -1.1868653050     2.8712022296
   21      C      -4.7573081411     0.1538185562     2.6669185626
   22      C      -4.6713133064     0.3165608401     1.0999231318
   23      O      -4.8000302868    -1.0776671629     0.6106767657
   24      H      -1.5935369295    -0.6659266057     1.5389808175
   25      H      -2.7629915759     1.4227230546     1.4694149459
   26      H      -3.4992715290    -2.6736633498     1.1992077723
   27      H      -4.5766861426    -1.9590149796     3.3559364426
   28      H      -3.0388384805    -1.0490022476     3.4621764665
   29      H      -5.8069807944     0.0483363743     2.9845309684
   30      H      -4.3088780620     1.0052220572     3.2032882259
   31      H      -5.4401078673     0.9620540640     0.6324124917
   32      O       2.0149027010    -1.6160137461     0.4680310891
   33      C       6.3441915197    -1.1614393185     0.8267517676
   34      C       3.4214615545     1.9111533561     0.9075057232
   35      C       2.8646241462     3.3356407247     0.5196412052
   36      C       1.3649936744     2.9903332417     0.1928200516
   37      C       1.3218925603     1.4455324858     0.5221175043
   38      O       2.2879067452     1.2911988839     1.6338628691
   39      H       3.9034067340     1.6743417252    -1.2624904641
   40      H       1.6575841781     0.9703590493    -1.6520177194
   41      H       6.9168224503    -1.3196807757    -0.1100629839
   42      H       4.3360868441     1.8998908653     1.5304062318
   43      H       2.9425846260     4.0239982085     1.3762345941
   44      H       3.3985871280     3.7763855337    -0.3374122257
   45      H       0.6667796650     3.5407315902     0.8427616158
   46      H       1.1013940227     3.1946741430    -0.8563422131
   47      H       0.3223540724     1.0583993041     0.8005520408
   48      H       5.7749659635    -2.0859895858     1.0530938479
   49      H       7.0418035211    -0.9419917444     1.6557852932
   50      H      -0.4646265996     2.5885186606    -2.3444480951
   51      H      -2.1579653360     3.2189993563    -2.4183871242
   52      H      -1.7915480771     1.5556725584    -3.0082329456
   53      H      -1.1859975294    -2.3861600884    -2.4667316093
   54      H      -1.0243480680    -4.0248704046    -1.6771866099
   55      H       1.2602959853    -3.1900355347    -0.6745777570
   56      H       1.2861174167    -3.2987040119    -2.4987593991
 ----------------------------------------------------------------

    9   -1510.2893541426      3.21E-09 Convergence criterion met
 Total energy in the final basis set = -1510.28935414
 Final energy is   -1510.28935414256
 **  OPTIMIZATION CONVERGED  **

                    Orbital Energies (a.u.)
 --------------------------------------------------------------

 Alpha MOs
 -- Occupied --
-18.939 -18.938 -18.929 -18.919 -18.886 -18.886 -18.884 -18.873
-18.871 -18.863 -10.105 -10.100 -10.096 -10.091 -10.072 -10.067
-10.065 -10.060 -10.058 -10.056 -10.056 -10.056 -10.040 -10.038
-10.036 -10.033 -10.020 -10.019 -10.018 -10.018  -1.021  -1.013
 -1.006  -0.998  -0.969  -0.968  -0.944  -0.937  -0.931  -0.925
 -0.763  -0.762  -0.728  -0.721  -0.714  -0.705  -0.696  -0.661
 -0.655  -0.618  -0.597  -0.576  -0.545  -0.543  -0.536  -0.536
 -0.512  -0.510  -0.488  -0.473  -0.462  -0.456  -0.452  -0.448
 -0.433  -0.430  -0.424  -0.417  -0.412  -0.411  -0.405  -0.402
 -0.399  -0.378  -0.373  -0.364  -0.359  -0.357  -0.354  -0.348
 -0.342  -0.339  -0.338  -0.333  -0.329  -0.323  -0.321  -0.311
 -0.309  -0.305  -0.302  -0.301  -0.291  -0.288  -0.277  -0.275
 -0.271  -0.255  -0.252  -0.246  -0.244  -0.233  -0.232  -0.188
 -0.178  -0.167  -0.164  -0.161  -0.157  -0.150  -0.145  -0.142
 -0.142

          Ground-State Mulliken Net Atomic Charges

     Atom                 Charge (a.u.)
  ----------------------------------------
      1 O                    -0.216056
      2 C                     0.212219
      3 C                    -0.078827
      4 C                    -0.078271
      5 C                     0.212670
      6 O                    -0.173249
      7 C                    -0.054758
      8 C                    -0.054203
      9 O                    -0.172489
     10 C                     0.216751
     11 C                    -0.078022
     12 C                    -0.082030
     13 C                     0.216757
     14 O                    -0.215004
     15 O                    -0.168071
     16 O                    -0.180289
     17 O                    -0.208372
     18 C                    -0.128056
     19 C                     0.025343
     20 C                    -0.144211
     21 C                    -0.143326
     22 C                     0.024226
     23 O                    -0.190016
     24 H                     0.088759
     25 H                     0.082737
     26 H                     0.085022
     27 H                     0.078345
     28 H                     0.074982
     29 H                     0.078137
     30 H                     0.073440
     31 H                     0.090623
     32 O                    -0.214432
     33 C                    -0.127252
     34 C                     0.023273
     35 C                    -0.144043
     36 C                    -0.142155
     37 C                     0.026796
     38 O                    -0.188719
     39 H                     0.084116
     40 H                     0.086424
     41 H                     0.088550
     42 H                     0.092774
     43 H                     0.077486
     44 H                     0.072232
     45 H                     0.078586
     46 H                     0.072156
     47 H                     0.085777
     48 H                     0.093560
     49 H                     0.091056
     50 H                     0.081145
     51 H                     0.086265
     52 H                     0.094267
     53 H                     0.105527
     54 H                     0.087779
     55 H                     0.106491
     56 H                     0.087580
  ----------------------------------------
  Sum of atomic charges =     0.000000

                    Cartesian Multipole Moments
 -----------------------------------------------------------------
    Charge (ESU x 10^10)
                -0.0000
    Dipole Moment (Debye)
         X       2.1957      Y       0.6842      Z       0.6050
       Tot       2.3781
    Quadrupole Moments (Debye-Ang)
        XX    -161.9554     XY       3.4982     YY    -149.7730
        XZ     -10.7819     YZ       0.8687     ZZ    -159.4458

 Total job time:  57.12s(wall), 2717.67s(cpu)
        *  Thank you very much for using Q-Chem.  Have a nice day.  *
