 Q-Chem 5.0, Q-Chem, Inc., Pleasanton, CA (2017)
 Q-Chem 5.0.1 for Intel X86 EM64T Linux

User input:
--------------------------------------------------------------
$molecule
0  1
O 4.4654457657 -1.2066294979 -1.0475895833
C 4.492631546 -0.192054031 -0.3162380153
C 3.5382214355 1.0516512382 -0.4242691597
C 2.0221693304 0.6498642289 -0.6605971288
C 1.7589176018 -0.8865633966 -0.5152677329
O 1.1056909298 -1.3416523108 -1.7075700447
C 0.8276564615 -2.7973044195 -1.6204415565
C -0.72873818 -2.9557818802 -1.6292952017
O -1.2059069543 -2.3968203126 -0.3373698512
C -1.9776801386 -1.2173161235 -0.5506685299
C -2.4496431803 -0.681116822 0.8410846089
C -3.1824124518 0.7154070613 0.7308038809
C -3.0715593384 1.3904238002 -0.6856611134
O -4.0039724581 1.6725472434 -1.4663943832
O 5.4480351563 0.0138195252 0.7262566173
O -1.7006377531 1.7839714787 -0.8783699257
O -2.2625799318 -0.74976991 -1.677584366
C -1.5319838524 2.319251378 -2.2465805838
C -3.6417956521 -1.5897806969 1.3766844944
C -3.9585524721 -1.186865305 2.8712022296
C -4.7573081411 0.1538185562 2.6669185626
C -4.6713133064 0.3165608401 1.0999231318
O -4.8000302868 -1.0776671629 0.6106767657
H -1.5935369295 -0.6659266057 1.5389808175
H -2.7629915759 1.4227230546 1.4694149459
H -3.499271529 -2.6736633498 1.1992077723
H -4.5766861426 -1.9590149796 3.3559364426
H -3.0388384805 -1.0490022476 3.4621764665
H -5.8069807944 0.0483363743 2.9845309684
H -4.308878062 1.0052220572 3.2032882259
H -5.4401078673 0.962054064 0.6324124917
O 2.014902701 -1.6160137461 0.4680310891
C 6.3441915197 -1.1614393185 0.8267517676
C 3.4214615545 1.9111533561 0.9075057232
C 2.8646241462 3.3356407247 0.5196412052
C 1.3649936744 2.9903332417 0.1928200516
C 1.3218925603 1.4455324858 0.5221175043
O 2.2879067452 1.2911988839 1.6338628691
H 3.903406734 1.6743417252 -1.2624904641
H 1.6575841781 0.9703590493 -1.6520177194
H 6.9168224503 -1.3196807757 -0.1100629839
H 4.3360868441 1.8998908653 1.5304062318
H 2.942584626 4.0239982085 1.3762345941
H 3.398587128 3.7763855337 -0.3374122257
H 0.666779665 3.5407315902 0.8427616158
H 1.1013940227 3.194674143 -0.8563422131
H 0.3223540724 1.0583993041 0.8005520408
H 5.7749659635 -2.0859895858 1.0530938479
H 7.0418035211 -0.9419917444 1.6557852932
H -0.4646265996 2.5885186606 -2.3444480951
H -2.157965336 3.2189993563 -2.4183871242
H -1.7915480771 1.5556725584 -3.0082329456
H -1.1859975294 -2.3861600884 -2.4667316093
H -1.024348068 -4.0248704046 -1.6771866099
H 1.2602959853 -3.1900355347 -0.674577757
H 1.2861174167 -3.2987040119 -2.4987593991
$end

$rem
JOBTYPE                   OPT
METHOD                    B3LYP
DFT_D                     d3_op
BASIS                     STO-3G
GEOM_OPT_MAX_CYCLES       100
GEOM_OPT_TOL_GRADIENT     300
GEOM_OPT_TOL_DISPLACEMENT 1200
GEOM_OPT_TOL_ENERGY       100
SYMMETRY                  False
THRESH                    12
SCF_CONVERGENCE           8
MAX_SUB_FILE_NUM          128
MEM_STATIC                400
MEM_TOTAL                 4000
$end
--------------------------------------------------------------

   16   -1510.2893809433      7.04E-09 Convergence criterion met
 Total energy in the final basis set = -1510.28938094
   14   -1510.2663770502      3.53E-09 Convergence criterion met
 Total energy in the final basis set = -1510.26637705
   14   -1510.2898467721      3.01E-09 Convergence criterion met
 Total energy in the final basis set = -1510.28984677
   15   -1510.2897167049      4.45E-09 Convergence criterion met
 Total energy in the final basis set = -1510.28971670
   13   -1510.2908611728      9.37E-09 Convergence criterion met
 Total energy in the final basis set = -1510.29086117
   14   -1510.2911248153      1.93E-09 Convergence criterion met
 Total energy in the final basis set = -1510.29112482
   13   -1510.2918019141      7.97E-09 Convergence criterion met
 Total energy in the final basis set = -1510.29180191
   13   -1510.2923543873      5.56E-09 Convergence criterion met
   11   -1510.3026530172      1.48E-09 Convergence criterion met
 Total energy in the final basis set = -1510.30265302
   11   -1510.3026533794      3.79E-09 Convergence criterion met
 Total energy in the final basis set = -1510.30265338
    9   -1510.3026547697      9.25E-09 Convergence criterion met
 Total energy in the final basis set = -1510.30265477
    9   -1510.3026542666      9.37E-09 Convergence criterion met
 Total energy in the final basis set = -1510.30265427
    8   -1510.3026535106      9.92E-09 Convergence criterion met
 Total energy in the final basis set = -1510.30265351
    8   -1510.3026476270      7.01E-09 Convergence criterion met
 Total energy in the final basis set = -1510.30264763

             Standard Nuclear Orientation (Angstroms)
    I     Atom           X                Y                Z
 ----------------------------------------------------------------
    1      O       3.6565859303    -1.4199263651     0.5770806703
    2      C       3.8178561171    -0.3160730086     0.0084936817
    3      C       2.7750895753     0.8439602907    -0.0968881999
    4      C       1.3222024349     0.3821991431     0.3165332092
    5      C       1.1669389379    -1.1588497149     0.5484338412
    6      O       1.2752034830    -1.7970346520    -0.7436609987
    7      C       0.9479454361    -3.2341310743    -0.6416104998
    8      C      -0.5507571780    -3.4579218003    -1.0728835184
    9      O      -1.4309569077    -2.7083073417    -0.1446983503
   10      C      -1.6520486996    -1.3802742454    -0.6192211278
   11      C      -2.2938996981    -0.5498467582     0.5389184585
   12      C      -2.5715401773     0.9517532275     0.1298985240
   13      C      -2.1410401648     1.3205435042    -1.3377285523
   14      O      -2.8738522929     1.4560401167    -2.3376037962
   15      O       5.0315800675     0.0854144887    -0.6303969809
   16      O      -0.7391261242     1.6847295058    -1.3241360603
   17      O      -1.3838218651    -0.9730099937    -1.7736468773
   18      C      -0.2820556187     1.9986921432    -2.6954947254
   19      C      -3.7639359943    -1.0509050585     0.8791163508
   20      C      -4.1973709575    -0.4184040191     2.2596644154
   21      C      -4.4822230728     1.0704871573     1.8354342706
   22      C      -4.1491142216     1.0168042248     0.2932137007
   23      O      -4.5964390827    -0.3358815399    -0.1134968731
   24      H      -1.6282137792    -0.6246017143     1.4183547105
   25      H      -2.0581481194     1.6427619616     0.8213358819
   26      H      -3.8991573661    -2.1466589084     0.7938881666
   27      H      -5.1058104307    -0.9118043454     2.6401989974
   28      H      -3.4043662187    -0.5026050921     3.0199746864
   29      H      -5.5387579482     1.3402959417     1.9917582603
   30      H      -3.8493805254     1.7953157197     2.3717337490
   31      H      -4.6389389343     1.7871276445    -0.3332009474
   32      O       0.8565387826    -1.7517005324     1.6032920875
   33      C       6.0429093399    -0.9913452064    -0.5132107246
   34      C       3.0634933910     1.9427063115     1.0192681293
   35      C       2.1667949864     3.2091985642     0.7230719887
   36      C       0.7502899495     2.6985911538     1.1803944724
   37      C       1.0990225463     1.2272245850     1.6379043834
   38      O       2.4529016065     1.3510950497     2.2287336953
   39      H       2.8124934433     1.2748461558    -1.1131144147
   40      H       0.5718044390     0.6913039922    -0.4459953634
   41      H       5.7009869722    -1.9249159603    -1.0049096424
   42      H       4.1385683832     2.1525898440     1.1836484259
   43      H       2.5055069867     4.0670739013     1.3255567222
   44      H       2.1911707651     3.4933200517    -0.3411807006
   45      H       0.3525289726     3.2930589980     2.0177063377
   46      H       0.0251385854     2.6881780525     0.3474587841
   47      H       0.4032369862     0.7639230103     2.3640237680
   48      H       6.2770355581    -1.2178660192     0.5469666469
   49      H       6.9496525468    -0.6153211537    -1.0215366151
   50      H       0.7652416887     2.3393243248    -2.5999098004
   51      H      -0.8973692382     2.7985944713    -3.1543224438
   52      H      -0.3247977117     1.0986927167    -3.3421068686
   53      H      -0.7064775583    -3.1064341471    -2.1149167088
   54      H      -0.8248149121    -4.5286601416    -0.9834540576
   55      H       1.0899318190    -3.5787429191     0.4049717742
   56      H       1.6240154462    -3.7864017595    -1.3262157844
 ----------------------------------------------------------------

    9   -1510.3026460479      6.34E-09 Convergence criterion met
 Total energy in the final basis set = -1510.30264605
 Final energy is   -1510.30264604785
 **  OPTIMIZATION CONVERGED  **

                    Orbital Energies (a.u.)
 --------------------------------------------------------------

 Alpha MOs
 -- Occupied --
-18.942 -18.938 -18.938 -18.917 -18.889 -18.889 -18.880 -18.879
-18.876 -18.863 -10.109 -10.103 -10.100 -10.089 -10.074 -10.067
-10.066 -10.066 -10.062 -10.060 -10.056 -10.049 -10.041 -10.038
-10.034 -10.021 -10.020 -10.015 -10.015 -10.007  -1.023  -1.014
 -1.009  -0.997  -0.972  -0.964  -0.946  -0.938  -0.937  -0.926
 -0.766  -0.757  -0.727  -0.719  -0.712  -0.703  -0.694  -0.664
 -0.663  -0.617  -0.597  -0.576  -0.548  -0.541  -0.538  -0.531
 -0.514  -0.506  -0.489  -0.472  -0.469  -0.458  -0.451  -0.446
 -0.433  -0.427  -0.426  -0.416  -0.415  -0.414  -0.410  -0.402
 -0.398  -0.379  -0.374  -0.368  -0.359  -0.357  -0.352  -0.350
 -0.343  -0.340  -0.337  -0.334  -0.328  -0.327  -0.319  -0.315
 -0.309  -0.306  -0.302  -0.298  -0.295  -0.285  -0.280  -0.274
 -0.269  -0.255  -0.253  -0.249  -0.238  -0.236  -0.226  -0.193
 -0.181  -0.179  -0.165  -0.157  -0.154  -0.152  -0.146  -0.144
 -0.138

          Ground-State Mulliken Net Atomic Charges

     Atom                 Charge (a.u.)
  ----------------------------------------
      1 O                    -0.207997
      2 C                     0.214324
      3 C                    -0.077959
      4 C                    -0.097858
      5 C                     0.211766
      6 O                    -0.181258
      7 C                    -0.053617
      8 C                    -0.051916
      9 O                    -0.169537
     10 C                     0.214996
     11 C                    -0.080011
     12 C                    -0.083106
     13 C                     0.221190
     14 O                    -0.207902
     15 O                    -0.169497
     16 O                    -0.176751
     17 O                    -0.206502
     18 C                    -0.127337
     19 C                     0.025805
     20 C                    -0.143521
     21 C                    -0.144139
     22 C                     0.025546
     23 O                    -0.188417
     24 H                     0.093291
     25 H                     0.085300
     26 H                     0.087998
     27 H                     0.078981
     28 H                     0.076211
     29 H                     0.078591
     30 H                     0.073637
     31 H                     0.088283
     32 O                    -0.219180
     33 C                    -0.128282
     34 C                     0.025197
     35 C                    -0.143566
     36 C                    -0.152638
     37 C                     0.022246
     38 O                    -0.192151
     39 H                     0.083628
     40 H                     0.107644
     41 H                     0.089609
     42 H                     0.081723
     43 H                     0.075799
     44 H                     0.070496
     45 H                     0.070564
     46 H                     0.085127
     47 H                     0.080901
     48 H                     0.090896
     49 H                     0.090988
     50 H                     0.086480
     51 H                     0.091354
     52 H                     0.097111
     53 H                     0.098291
     54 H                     0.090555
     55 H                     0.102164
     56 H                     0.086451
  ----------------------------------------
  Sum of atomic charges =    -0.000000

                    Cartesian Multipole Moments
 -----------------------------------------------------------------
    Charge (ESU x 10^10)
                -0.0000
    Dipole Moment (Debye)
         X       1.3510      Y       0.5883      Z      -0.6213
       Tot       1.5991
    Quadrupole Moments (Debye-Ang)
        XX    -156.5455     XY      -1.3585     YY    -148.9315
        XZ     -16.0130     YZ       4.7035     ZZ    -166.2644

 Total job time:  118.80s(wall), 5668.62s(cpu)
        *  Thank you very much for using Q-Chem.  Have a nice day.  *
