 Q-Chem 5.0, Q-Chem, Inc., Pleasanton, CA (2017)
 Q-Chem 5.0.1 for Intel X86 EM64T Linux

User input:
--------------------------------------------------------------
$molecule
0  1
O 4.4769092363 -1.3483686263 -0.9464065898
C 4.5199894058 -0.3329110172 -0.21685433
C 3.6566486463 0.9683877903 -0.3883306002
C 2.1349099105 0.6670067598 -0.7233389966
C 1.7759366378 -0.8408934342 -0.5037992461
O 1.1745861575 -1.3576506218 -1.7000757658
C 0.8197384064 -2.7852497337 -1.508044366
C -0.7352832588 -2.9449400584 -1.5895768232
O -1.3056096836 -2.424143729 -0.3204822276
C -2.0117696843 -1.2052216837 -0.5417428146
C -2.6186470073 -0.7379230827 0.8224149226
C -3.2257854573 0.7207131477 0.7505319313
C -2.9617040031 1.4620506601 -0.6101098641
O -3.8164350548 1.847303319 -1.4348780589
O 5.4204236233 -0.179658139 0.8822617611
O -1.5590277192 1.771915825 -0.6984708331
O -2.1653075133 -0.6673899901 -1.6627161092
C -1.2784506765 2.3449212657 -2.0336363882
C -3.9271901651 -1.5826461981 1.1497429042
C -4.3621225923 -1.2875074122 2.6402765602
C -5.0106513498 0.1397710993 2.4938801285
C -4.7686154552 0.4233937268 0.960909104
O -4.9603864439 -0.9068791861 0.3345386347
H -1.8535953721 -0.8420941787 1.6125389471
H -2.817380819 1.3459406217 1.5651467352
H -3.8534244936 -2.654906255 0.8828180267
H -5.0959053795 -2.0343932203 2.9826784205
H -3.5019240306 -1.2946851813 3.3285617977
H -6.089663348 0.1164467751 2.7151730139
H -4.5332987293 0.8937853104 3.1396322959
H -5.4380888757 1.1697445352 0.4909680332
O 1.9440434937 -1.510837471 0.5396948094
C 6.2357455922 -1.406351525 1.0390840785
C 3.508297199 1.8424734497 0.9336722967
C 3.1384303581 3.3100882994 0.4951243159
C 1.661409334 3.1002719249 -0.0034779876
C 1.4163936622 1.5780103116 0.3571648088
O 2.2540315689 1.3560228135 1.558296701
H 4.1145122606 1.5652206193 -1.1990179266
H 1.8724777936 0.9458061071 -1.7588706367
H 6.8422622382 -1.6120893256 0.1333972862
H 4.3579449486 1.7418188492 1.6354024073
H 3.1799218653 3.9912234373 1.3600253547
H 3.8056026697 3.6947779148 -0.2926410192
H 0.9480666272 3.7420810642 0.5368182926
H 1.5569223636 3.291763564 -1.0830395699
H 0.3521720679 1.3195745986 0.5336796338
H 5.5999052374 -2.2911647328 1.2464333516
H 6.9041081965 -1.2195547397 1.8996233865
H -0.1890955711 2.517096528 -2.075418409
H -1.8120908687 3.3048377335 -2.1894651009
H -1.5728931328 1.6392179038 -2.8369009595
H -1.150400855 -2.3690736878 -2.4446854554
H -1.0108922176 -4.0170761244 -1.6706549278
H 1.1919247353 -3.1104325582 -0.5114682491
H 1.3085830477 -3.3732864801 -2.3134130809
$end

$rem
JOBTYPE                   OPT
METHOD                    B3LYP
DFT_D                     d3_op
BASIS                     STO-3G
GEOM_OPT_MAX_CYCLES       100
GEOM_OPT_TOL_GRADIENT     300
GEOM_OPT_TOL_DISPLACEMENT 1200
GEOM_OPT_TOL_ENERGY       100
SYMMETRY                  False
THRESH                    12
SCF_CONVERGENCE           8
MAX_SUB_FILE_NUM          128
MEM_STATIC                400
MEM_TOTAL                 4000
$end
--------------------------------------------------------------

   16   -1510.2896997372      6.83E-09 Convergence criterion met
 Total energy in the final basis set = -1510.28969974
   15   -1510.2842988118      4.38E-09 Convergence criterion met
 Total energy in the final basis set = -1510.28429881
   15   -1510.2912802742      5.58E-09 Convergence criterion met
 Total energy in the final basis set = -1510.29128027
   14   -1510.2915638254      2.81E-09 Convergence criterion met
 Total energy in the final basis set = -1510.29156383
   13   -1510.2937399507      8.69E-09 Convergence criterion met
 Total energy in the final basis set = -1510.29373995
   14   -1510.2945136542      5.88E-09 Convergence criterion met
 Total energy in the final basis set = -1510.29451365
   14   -1510.2947647796      5.12E-09 Convergence criterion met
 Total energy in the final basis set = -1510.29476478
   14   -1510.2952494259      9.70E-09 Convergence criterion met
   12   -1510.3069809762      6.15E-09 Convergence criterion met
 Total energy in the final basis set = -1510.30698098
   12   -1510.3070187286      3.49E-09 Convergence criterion met
 Total energy in the final basis set = -1510.30701873
   12   -1510.3070703214      2.60E-09 Convergence criterion met
 Total energy in the final basis set = -1510.30707032
   11   -1510.3070828000      8.37E-09 Convergence criterion met
 Total energy in the final basis set = -1510.30708280
   10   -1510.3070900557      5.13E-09 Convergence criterion met
 Total energy in the final basis set = -1510.30709006
    9   -1510.3070921062      8.88E-09 Convergence criterion met
 Total energy in the final basis set = -1510.30709211

             Standard Nuclear Orientation (Angstroms)
    I     Atom           X                Y                Z
 ----------------------------------------------------------------
    1      O       3.9974947402    -1.4154434636     1.5439339954
    2      C       3.0315837137    -0.7046203635     1.1947991387
    3      C       3.0910138111     0.6702784888     0.4403696810
    4      C       2.3209655076     0.6592667069    -0.9466182104
    5      C       1.9068105683    -0.7845074267    -1.4005371269
    6      O       0.8134981814    -0.7001692813    -2.3214714314
    7      C       0.4677025737    -2.0439210653    -2.8468966063
    8      C      -0.1301686700    -3.0092841414    -1.7303280817
    9      O      -0.2837754458    -2.3079996698    -0.4378810983
   10      C      -1.2955344093    -1.2980467161    -0.5448535946
   11      C      -1.2632280753    -0.4319721820     0.7468943280
   12      C      -2.0465365023     0.9324017494     0.5855270440
   13      C      -2.6504436714     1.1575720956    -0.8450974805
   14      O      -3.8502025928     1.1584563445    -1.1862976394
   15      O       1.6595457352    -1.0079511165     1.4982132990
   16      O      -1.5681763310     1.5079104759    -1.7357282536
   17      O      -2.0492161545    -1.1751179936    -1.5371775642
   18      C      -2.0487307542     1.5858065621    -3.1294628477
   19      C      -2.0770573691    -1.1021305121     1.9352635030
   20      C      -1.6933197769    -0.3471395987     3.2689745727
   21      C      -2.5018824986     0.9933254210     3.1012960088
   22      C      -3.1704461915     0.7709098420     1.6880233959
   23      O      -3.4714629992    -0.6806750485     1.6747707118
   24      H      -0.1994728004    -0.2478108728     1.0151730056
   25      H      -1.3554128564     1.7658291405     0.8114188341
   26      H      -2.0062173436    -2.2065285648     1.9795809855
   27      H      -2.0294557821    -0.9170218745     4.1497513771
   28      H      -0.6065143058    -0.1807907670     3.3432248531
   29      H      -3.2730633771     1.0984230307     3.8811174258
   30      H      -1.8546947804     1.8845430172     3.1191753577
   31      H      -4.0909369956     1.3541589571     1.4910854671
   32      O       2.4753591707    -1.8538978402    -1.0862717002
   33      C       1.5623174291    -2.3593453744     2.0910975638
   34      C       2.2765611396     1.7933945998     1.2106642621
   35      C       2.5937570490     3.1969697504     0.5581556225
   36      C       1.7249680249     3.1295723875    -0.7542105198
   37      C       1.1302339063     1.6712698597    -0.6577375452
   38      O       0.8826681794     1.5253934414     0.7969199457
   39      H       4.1546795512     0.9369378531     0.3141202467
   40      H       2.9705182952     1.0652188408    -1.7449357208
   41      H       2.1554971130    -2.4404861966     3.0248520718
   42      H       2.3701940629     1.7526600113     2.3132987186
   43      H       2.2675675715     4.0134931916     1.2217200750
   44      H       3.6688224508     3.3205340108     0.3509328745
   45      H       0.9122129246     3.8733948069    -0.7357354545
   46      H       2.3204528894     3.2809612924    -1.6685656671
   47      H       0.1798156858     1.4973652941    -1.2210978865
   48      H       1.9116298105    -3.1320690948     1.3765470807
   49      H       0.4921279737    -2.5209026900     2.3118436077
   50      H      -1.1780652044     1.8883100597    -3.7399801885
   51      H      -2.8617660734     2.3321322157    -3.2404622318
   52      H      -2.4206230682     0.5987962146    -3.4734855327
   53      H      -1.1022762967    -3.4179465981    -2.0801200580
   54      H       0.5712972143    -3.8406078365    -1.5251490147
   55      H       1.3573451310    -2.5209706571    -3.3103572269
   56      H      -0.2937857962    -1.8470423384    -3.6261092608
 ----------------------------------------------------------------

    9   -1510.3070919621      6.23E-09 Convergence criterion met
 Total energy in the final basis set = -1510.30709196
 Final energy is   -1510.30709196214
 **  OPTIMIZATION CONVERGED  **

                    Orbital Energies (a.u.)
 --------------------------------------------------------------

 Alpha MOs
 -- Occupied --
-18.944 -18.936 -18.929 -18.926 -18.890 -18.882 -18.878 -18.877
-18.869 -18.865 -10.107 -10.098 -10.095 -10.092 -10.078 -10.075
-10.063 -10.058 -10.057 -10.052 -10.049 -10.045 -10.039 -10.037
-10.022 -10.021 -10.017 -10.016 -10.012 -10.011  -1.026  -1.009
 -1.004  -0.999  -0.972  -0.961  -0.944  -0.937  -0.930  -0.927
 -0.764  -0.753  -0.726  -0.719  -0.710  -0.702  -0.691  -0.656
 -0.655  -0.621  -0.596  -0.577  -0.545  -0.539  -0.538  -0.530
 -0.513  -0.502  -0.482  -0.475  -0.466  -0.458  -0.444  -0.441
 -0.429  -0.427  -0.421  -0.418  -0.410  -0.407  -0.405  -0.403
 -0.393  -0.378  -0.371  -0.367  -0.361  -0.355  -0.348  -0.343
 -0.343  -0.342  -0.331  -0.329  -0.324  -0.322  -0.317  -0.313
 -0.306  -0.303  -0.299  -0.296  -0.292  -0.285  -0.278  -0.273
 -0.268  -0.260  -0.249  -0.246  -0.244  -0.235  -0.221  -0.195
 -0.173  -0.172  -0.168  -0.161  -0.154  -0.147  -0.146  -0.141
 -0.136

          Ground-State Mulliken Net Atomic Charges

     Atom                 Charge (a.u.)
  ----------------------------------------
      1 O                    -0.211796
      2 C                     0.213981
      3 C                    -0.080403
      4 C                    -0.080228
      5 C                     0.214653
      6 O                    -0.168057
      7 C                    -0.050782
      8 C                    -0.050316
      9 O                    -0.170880
     10 C                     0.212838
     11 C                    -0.093084
     12 C                    -0.085140
     13 C                     0.219782
     14 O                    -0.211203
     15 O                    -0.173272
     16 O                    -0.178471
     17 O                    -0.214389
     18 C                    -0.125960
     19 C                     0.023524
     20 C                    -0.143966
     21 C                    -0.143094
     22 C                     0.024312
     23 O                    -0.191177
     24 H                     0.120322
     25 H                     0.094981
     26 H                     0.077934
     27 H                     0.074189
     28 H                     0.077552
     29 H                     0.075280
     30 H                     0.074433
     31 H                     0.086240
     32 O                    -0.212344
     33 C                    -0.125858
     34 C                     0.026069
     35 C                    -0.144941
     36 C                    -0.144090
     37 C                     0.005816
     38 O                    -0.195723
     39 H                     0.084842
     40 H                     0.084612
     41 H                     0.086160
     42 H                     0.081459
     43 H                     0.076643
     44 H                     0.073510
     45 H                     0.076451
     46 H                     0.071451
     47 H                     0.116980
     48 H                     0.093750
     49 H                     0.089708
     50 H                     0.086789
     51 H                     0.088426
     52 H                     0.093728
     53 H                     0.090776
     54 H                     0.094546
     55 H                     0.088510
     56 H                     0.094926
  ----------------------------------------
  Sum of atomic charges =    -0.000000

                    Cartesian Multipole Moments
 -----------------------------------------------------------------
    Charge (ESU x 10^10)
                -0.0000
    Dipole Moment (Debye)
         X       2.0314      Y       1.1894      Z      -0.9336
       Tot       2.5323
    Quadrupole Moments (Debye-Ang)
        XX    -180.9231     XY       6.5462     YY    -150.6702
        XZ      -5.0545     YZ       2.8951     ZZ    -147.9987

 Total job time:  205.09s(wall), 9777.20s(cpu)
        *  Thank you very much for using Q-Chem.  Have a nice day.  *
