 Q-Chem 5.0, Q-Chem, Inc., Pleasanton, CA (2017)
 Q-Chem 5.0.1 for Intel X86 EM64T Linux

User input:
--------------------------------------------------------------
$molecule
0  1
O -3.94934 -3.66094 2.70899
C -3.26408 -4.56952 2.26188
C -3.36658 -6.02376 2.66595
C -4.7785 -6.61395 2.81429
C -5.92685 -5.73529 2.37006
O -6.84189 -5.62291 3.37778
C -7.96669 -4.80905 3.02889
C -9.24005 -5.64844 3.01939
O -9.27127 -6.47706 1.84666
C -9.10791 -7.80524 2.06662
C -9.18973 -8.62561 0.80133
C -8.79187 -10.10042 0.9592
C -8.72124 -10.61709 2.38215
O -9.42301 -11.5017 2.85068
O -2.41933 -4.27614 1.23655
O -7.67405 -10.16333 3.12538
O -9.38708 -8.27308 3.16299
C -7.42269 -10.53968 4.42852
C -10.59639 -8.76215 0.19629
C -10.46887 -9.05426 -1.30109
C -9.94874 -10.47763 -1.26867
C -9.99082 -10.7523 0.23894
O -11.07816 -9.98396 0.69775
H -8.52728 -8.11286 0.06648
H -7.82018 -10.34371 0.47529
H -11.23616 -7.86903 0.3658
H -11.49698 -9.06124 -1.72753
H -9.84155 -8.33822 -1.87579
H -10.67399 -11.12828 -1.80585
H -8.92697 -10.6234 -1.68245
H -10.05498 -11.84717 0.42327
O -6.02752 -5.25914 1.24429
C -2.22412 -3.01199 0.72035
C -2.76967 -7.0075 1.63342
C -2.4334 -8.34236 2.30008
C -3.81808 -8.92356 2.48788
C -4.67104 -7.8186 1.86187
O -3.86531 -7.33411 0.81398
H -2.81809 -6.09413 3.63153
H -4.97044 -6.95776 3.85758
H -1.83769 -2.33253 1.51008
H -1.86511 -6.6248 1.11439
H -1.88784 -8.9697 1.55902
H -1.82452 -8.2473 3.22462
H -3.90061 -9.84517 1.86919
H -4.10146 -9.15044 3.53832
H -5.66739 -8.22083 1.57043
H -3.17743 -2.61247 0.31345
H -1.47911 -3.06537 -0.09978
H -6.51611 -10.01303 4.79076
H -7.25055 -11.63553 4.48738
H -8.28065 -10.25969 5.07686
H -9.31312 -6.17137 3.99834
H -10.11772 -4.97022 2.96135
H -7.90097 -4.24849 2.06962
H -8.06322 -4.03947 3.82411
$end

$opt
CONSTRAINT
tors           1           2           3           4     +43.158
tors           3           4           5           6    -126.722
tors           4           5           6           7    -179.665
tors           5           6           7           8    +115.673
tors           6           7           8           9     -74.937
tors           7           8           9          10    +110.044
tors           8           9          10          11    +178.357
tors           9          10          11          12    +170.715
tors          11          12          13          14    +116.993
ENDCONSTRAINT
$end

$rem
JOBTYPE                   OPT
METHOD                    B3LYP
DFT_D                     d3_op
BASIS                     STO-3G
GEOM_OPT_MAX_CYCLES       100
GEOM_OPT_TOL_GRADIENT     300
GEOM_OPT_TOL_DISPLACEMENT 1200
GEOM_OPT_TOL_ENERGY       100
SYMMETRY                  False
THRESH                    12
SCF_CONVERGENCE           8
MAX_SUB_FILE_NUM          128
MEM_STATIC                400
MEM_TOTAL                 4000
$end
--------------------------------------------------------------

   15   -1510.1504710550      7.31E-09 Convergence criterion met
 Total energy in the final basis set = -1510.15047105
   13   -1510.2205909306      9.05E-09 Convergence criterion met
 Total energy in the final basis set = -1510.22059093
   14   -1510.2586260376      5.27E-09 Convergence criterion met
 Total energy in the final basis set = -1510.25862604
   14   -1510.2766580178      4.86E-09 Convergence criterion met
 Total energy in the final basis set = -1510.27665802
   13   -1510.2835655180      7.94E-09 Convergence criterion met
 Total energy in the final basis set = -1510.28356552
   13   -1510.2843641248      8.43E-09 Convergence criterion met
 Total energy in the final basis set = -1510.28436412
   13   -1510.2870156911      6.95E-09 Convergence criterion met
 Total energy in the final basis set = -1510.28701569
   13   -1510.2876956954      2.05E-09 Convergence criterion met
   12   -1510.2897037918      2.95E-09 Convergence criterion met
 Total energy in the final basis set = -1510.28970379
   11   -1510.2897359905      4.08E-09 Convergence criterion met
 Total energy in the final basis set = -1510.28973599
   10   -1510.2897666947      6.54E-09 Convergence criterion met
 Total energy in the final basis set = -1510.28976669
    9   -1510.2897846931      9.91E-09 Convergence criterion met
 Total energy in the final basis set = -1510.28978469
    9   -1510.2897927902      8.32E-09 Convergence criterion met
 Total energy in the final basis set = -1510.28979279
    9   -1510.2897942241      5.62E-09 Convergence criterion met
 Total energy in the final basis set = -1510.28979422

             Standard Nuclear Orientation (Angstroms)
    I     Atom           X                Y                Z
 ----------------------------------------------------------------
    1      O       4.4769092363    -1.3483686263    -0.9464065898
    2      C       4.5199894058    -0.3329110172    -0.2168543300
    3      C       3.6566486463     0.9683877903    -0.3883306002
    4      C       2.1349099105     0.6670067598    -0.7233389966
    5      C       1.7759366378    -0.8408934342    -0.5037992461
    6      O       1.1745861575    -1.3576506218    -1.7000757658
    7      C       0.8197384064    -2.7852497337    -1.5080443660
    8      C      -0.7352832588    -2.9449400584    -1.5895768232
    9      O      -1.3056096836    -2.4241437290    -0.3204822276
   10      C      -2.0117696843    -1.2052216837    -0.5417428146
   11      C      -2.6186470073    -0.7379230827     0.8224149226
   12      C      -3.2257854573     0.7207131477     0.7505319313
   13      C      -2.9617040031     1.4620506601    -0.6101098641
   14      O      -3.8164350548     1.8473033190    -1.4348780589
   15      O       5.4204236233    -0.1796581390     0.8822617611
   16      O      -1.5590277192     1.7719158250    -0.6984708331
   17      O      -2.1653075133    -0.6673899901    -1.6627161092
   18      C      -1.2784506765     2.3449212657    -2.0336363882
   19      C      -3.9271901651    -1.5826461981     1.1497429042
   20      C      -4.3621225923    -1.2875074122     2.6402765602
   21      C      -5.0106513498     0.1397710993     2.4938801285
   22      C      -4.7686154552     0.4233937268     0.9609091040
   23      O      -4.9603864439    -0.9068791861     0.3345386347
   24      H      -1.8535953721    -0.8420941787     1.6125389471
   25      H      -2.8173808190     1.3459406217     1.5651467352
   26      H      -3.8534244936    -2.6549062550     0.8828180267
   27      H      -5.0959053795    -2.0343932203     2.9826784205
   28      H      -3.5019240306    -1.2946851813     3.3285617977
   29      H      -6.0896633480     0.1164467751     2.7151730139
   30      H      -4.5332987293     0.8937853104     3.1396322959
   31      H      -5.4380888757     1.1697445352     0.4909680332
   32      O       1.9440434937    -1.5108374710     0.5396948094
   33      C       6.2357455922    -1.4063515250     1.0390840785
   34      C       3.5082971990     1.8424734497     0.9336722967
   35      C       3.1384303581     3.3100882994     0.4951243159
   36      C       1.6614093340     3.1002719249    -0.0034779876
   37      C       1.4163936622     1.5780103116     0.3571648088
   38      O       2.2540315689     1.3560228135     1.5582967010
   39      H       4.1145122606     1.5652206193    -1.1990179266
   40      H       1.8724777936     0.9458061071    -1.7588706367
   41      H       6.8422622382    -1.6120893256     0.1333972862
   42      H       4.3579449486     1.7418188492     1.6354024073
   43      H       3.1799218653     3.9912234373     1.3600253547
   44      H       3.8056026697     3.6947779148    -0.2926410192
   45      H       0.9480666272     3.7420810642     0.5368182926
   46      H       1.5569223636     3.2917635640    -1.0830395699
   47      H       0.3521720679     1.3195745986     0.5336796338
   48      H       5.5999052374    -2.2911647328     1.2464333516
   49      H       6.9041081965    -1.2195547397     1.8996233865
   50      H      -0.1890955711     2.5170965280    -2.0754184090
   51      H      -1.8120908687     3.3048377335    -2.1894651009
   52      H      -1.5728931328     1.6392179038    -2.8369009595
   53      H      -1.1504008550    -2.3690736878    -2.4446854554
   54      H      -1.0108922176    -4.0170761244    -1.6706549278
   55      H       1.1919247353    -3.1104325582    -0.5114682491
   56      H       1.3085830477    -3.3732864801    -2.3134130809
 ----------------------------------------------------------------

    9   -1510.2897950377      2.87E-09 Convergence criterion met
 Total energy in the final basis set = -1510.28979504
 Final energy is   -1510.28979503773
 **  OPTIMIZATION CONVERGED  **

                    Orbital Energies (a.u.)
 --------------------------------------------------------------

 Alpha MOs
 -- Occupied --
-18.939 -18.937 -18.930 -18.921 -18.886 -18.884 -18.884 -18.872
-18.870 -18.864 -10.105 -10.100 -10.096 -10.092 -10.072 -10.065
-10.065 -10.061 -10.056 -10.055 -10.055 -10.055 -10.039 -10.037
-10.035 -10.033 -10.020 -10.019 -10.018 -10.018  -1.020  -1.013
 -1.006  -0.999  -0.969  -0.967  -0.943  -0.937  -0.931  -0.926
 -0.763  -0.761  -0.727  -0.721  -0.713  -0.704  -0.696  -0.661
 -0.655  -0.618  -0.597  -0.576  -0.545  -0.542  -0.536  -0.535
 -0.511  -0.510  -0.487  -0.473  -0.459  -0.456  -0.452  -0.448
 -0.433  -0.430  -0.426  -0.416  -0.412  -0.410  -0.405  -0.402
 -0.398  -0.378  -0.372  -0.364  -0.360  -0.355  -0.354  -0.347
 -0.343  -0.340  -0.338  -0.333  -0.328  -0.323  -0.321  -0.311
 -0.309  -0.304  -0.301  -0.300  -0.289  -0.286  -0.278  -0.275
 -0.271  -0.255  -0.252  -0.247  -0.243  -0.233  -0.231  -0.189
 -0.178  -0.168  -0.163  -0.161  -0.157  -0.150  -0.145  -0.143
 -0.140

          Ground-State Mulliken Net Atomic Charges

     Atom                 Charge (a.u.)
  ----------------------------------------
      1 O                    -0.216796
      2 C                     0.211805
      3 C                    -0.079143
      4 C                    -0.077873
      5 C                     0.212509
      6 O                    -0.171744
      7 C                    -0.056274
      8 C                    -0.054661
      9 O                    -0.172289
     10 C                     0.215648
     11 C                    -0.078170
     12 C                    -0.082041
     13 C                     0.217127
     14 O                    -0.214178
     15 O                    -0.168076
     16 O                    -0.180179
     17 O                    -0.209174
     18 C                    -0.128849
     19 C                     0.025474
     20 C                    -0.143931
     21 C                    -0.143666
     22 C                     0.024534
     23 O                    -0.189589
     24 H                     0.090000
     25 H                     0.083670
     26 H                     0.084439
     27 H                     0.078313
     28 H                     0.074991
     29 H                     0.078083
     30 H                     0.073582
     31 H                     0.090673
     32 O                    -0.214554
     33 C                    -0.127232
     34 C                     0.023080
     35 C                    -0.143564
     36 C                    -0.143564
     37 C                     0.021920
     38 O                    -0.188276
     39 H                     0.083824
     40 H                     0.085298
     41 H                     0.088709
     42 H                     0.092774
     43 H                     0.077436
     44 H                     0.072090
     45 H                     0.078691
     46 H                     0.069959
     47 H                     0.093595
     48 H                     0.093123
     49 H                     0.090974
     50 H                     0.082981
     51 H                     0.085922
     52 H                     0.095480
     53 H                     0.105007
     54 H                     0.088463
     55 H                     0.106808
     56 H                     0.086839
  ----------------------------------------
  Sum of atomic charges =    -0.000000

                    Cartesian Multipole Moments
 -----------------------------------------------------------------
    Charge (ESU x 10^10)
                -0.0000
    Dipole Moment (Debye)
         X       2.0654      Y       0.3346      Z       0.7686
       Tot       2.2290
    Quadrupole Moments (Debye-Ang)
        XX    -159.4980     XY       4.4946     YY    -149.5675
        XZ     -10.8802     YZ       0.5047     ZZ    -160.2647

 Total job time:  56.71s(wall), 2700.88s(cpu)
        *  Thank you very much for using Q-Chem.  Have a nice day.  *
