 Q-Chem 5.0, Q-Chem, Inc., Pleasanton, CA (2017)
 Q-Chem 5.0.1 for Intel X86 EM64T Linux

User input:
--------------------------------------------------------------
$molecule
0  1
O -3.94934 -3.66094 2.70899
C -3.26408 -4.56952 2.26188
C -3.36658 -6.02376 2.66595
C -4.77852 -6.60633 2.8417
C -5.93061 -5.72067 2.42172
O -6.82598 -5.60682 3.44679
C -7.9619 -4.80113 3.11541
C -9.23064 -5.6473 3.1365
O -9.27155 -6.49693 1.9792
C -8.93594 -7.79302 2.19519
C -9.03905 -8.64269 0.95096
C -8.52704 -10.08218 1.10586
C -8.32897 -10.56351 2.52916
O -8.88797 -11.52514 3.03646
O -2.43716 -4.27912 1.22112
O -7.20301 -10.11308 3.15333
O -8.60619 -8.16837 3.30774
C -6.79097 -10.53441 4.40266
C -10.47861 -8.88252 0.46802
C -10.46602 -9.1934 -1.02683
C -9.83052 -10.56959 -1.02347
C -9.73153 -10.82473 0.48641
O -10.82934 -10.1257 1.02414
H -8.45465 -8.11069 0.1655
H -7.57956 -10.2726 0.55462
H -11.16534 -8.03543 0.68478
H -11.52892 -9.29267 -1.34443
H -9.96155 -8.44041 -1.66984
H -10.53832 -11.28236 -1.50195
H -8.83375 -10.63458 -1.5112
H -9.7047 -11.9188 0.6844
O -6.05061 -5.24271 1.2986
C -2.26735 -3.02015 0.68358
C -2.79336 -7.00416 1.61715
C -2.44447 -8.34049 2.27144
C -3.82476 -8.91754 2.48668
C -4.69143 -7.80943 1.88371
O -3.9071 -7.32441 0.82017
H -2.79852 -6.09851 3.6198
H -4.95154 -6.95323 3.88724
H -1.87765 -2.32376 1.45656
H -1.89824 -6.62291 1.08108
H -1.91474 -8.96844 1.51979
H -1.81832 -8.24751 3.1849
H -3.92422 -9.83856 1.86959
H -4.07257 -9.14205 3.54351
H -5.69381 -8.20879 1.61134
H -3.23286 -2.63983 0.28673
H -1.53623 -3.07582 -0.14877
H -5.86969 -9.99367 4.69115
H -6.57857 -11.6247 4.39003
H -7.57581 -10.31312 5.15732
H -9.33938 -6.16198 4.11736
H -10.10529 -4.96646 3.06519
H -7.91863 -4.25078 2.14902
H -8.04765 -4.0242 3.90453
$end

$opt
CONSTRAINT
tors           1           2           3           4     +41.966
tors           3           4           5           6    -126.841
tors           4           5           6           7    -178.870
tors           5           6           7           8    +115.673
tors           6           7           8           9     -74.137
tors           7           8           9          10    +102.247
tors           8           9          10          11    +178.235
tors           9          10          11          12    +173.755
tors          11          12          13          14    +120.662
ENDCONSTRAINT
$end

$rem
JOBTYPE                   OPT
METHOD                    B3LYP
DFT_D                     d3_op
BASIS                     STO-3G
GEOM_OPT_MAX_CYCLES       100
GEOM_OPT_TOL_GRADIENT     300
GEOM_OPT_TOL_DISPLACEMENT 1200
GEOM_OPT_TOL_ENERGY       100
SYMMETRY                  False
THRESH                    12
SCF_CONVERGENCE           8
MAX_SUB_FILE_NUM          128
MEM_STATIC                400
MEM_TOTAL                 4000
$end
--------------------------------------------------------------

   15   -1510.1551230369      6.69E-09 Convergence criterion met
 Total energy in the final basis set = -1510.15512304
   14   -1510.2250287005      7.09E-09 Convergence criterion met
 Total energy in the final basis set = -1510.22502870
   14   -1510.2612348008      7.93E-09 Convergence criterion met
 Total energy in the final basis set = -1510.26123480
   14   -1510.2757971597      7.67E-09 Convergence criterion met
 Total energy in the final basis set = -1510.27579716
   15   -1510.2787281413      2.46E-09 Convergence criterion met
 Total energy in the final basis set = -1510.27872814
   14   -1510.2835709133      5.35E-09 Convergence criterion met
 Total energy in the final basis set = -1510.28357091
   13   -1510.2854904487      4.20E-09 Convergence criterion met
 Total energy in the final basis set = -1510.28549045
   13   -1510.2866284699      2.58E-09 Convergence criterion met
   11   -1510.2889477224      5.89E-09 Convergence criterion met
 Total energy in the final basis set = -1510.28894772
   11   -1510.2889764146      3.37E-09 Convergence criterion met
 Total energy in the final basis set = -1510.28897641
   10   -1510.2889928238      6.81E-09 Convergence criterion met
 Total energy in the final basis set = -1510.28899282
   10   -1510.2890062997      7.51E-09 Convergence criterion met
 Total energy in the final basis set = -1510.28900630
   10   -1510.2890103411      7.08E-09 Convergence criterion met
 Total energy in the final basis set = -1510.28901034
    9   -1510.2890134651      4.56E-09 Convergence criterion met
 Total energy in the final basis set = -1510.28901347

             Standard Nuclear Orientation (Angstroms)
    I     Atom           X                Y                Z
 ----------------------------------------------------------------
    1      O       4.4417670569    -1.3199016138    -0.9371149052
    2      C       4.4886609422    -0.3101508249    -0.1998492810
    3      C       3.6138468251     0.9863376698    -0.3464740280
    4      C       2.0947020368     0.6777197593    -0.6902838227
    5      C       1.7532759822    -0.8335256560    -0.4678820596
    6      O       1.1582591105    -1.3772717770    -1.6582988510
    7      C       0.8146764435    -2.8007329674    -1.4260361114
    8      C      -0.7337650427    -3.0316630477    -1.4943757229
    9      O      -1.3592871519    -2.4909872886    -0.2615760899
   10      C      -1.9745440546    -1.2283889335    -0.5174149493
   11      C      -2.6503374242    -0.7392403934     0.8067437366
   12      C      -3.2333438161     0.7262348278     0.6928067370
   13      C      -2.9058504946     1.4603242360    -0.6582929032
   14      O      -3.7331698083     1.9041481170    -1.4822650884
   15      O       5.4060397713    -0.1585845608     0.8853447234
   16      O      -1.4938505295     1.7264526844    -0.7233326371
   17      O      -2.0430478973    -0.6889125755    -1.6456365137
   18      C      -1.1821171449     2.3078612496    -2.0483177590
   19      C      -3.9854705957    -1.5660435736     1.0674807723
   20      C      -4.4928884825    -1.2621734132     2.5332172471
   21      C      -5.1062657692     0.1770737709     2.3529762231
   22      C      -4.7878446186     0.4510154810     0.8327154676
   23      O      -4.9674768470    -0.8782000727     0.2007917412
   24      H      -1.9337253974    -0.8465410535     1.6404949799
   25      H      -2.8559853398     1.3541212522     1.5204494380
   26      H      -3.9112238504    -2.6394806504     0.8056323006
   27      H      -5.2582198042    -1.9947526986     2.8350915454
   28      H      -3.6710897078    -1.2856875054     3.2667928818
   29      H      -6.1946159944     0.1752832468     2.5238942310
   30      H      -4.6450853659     0.9240761718     3.0184279514
   31      H      -5.4223002030     1.2055714604     0.3284356348
   32      O       1.9283723436    -1.4887875192     0.5842015385
   33      C       6.2335072066    -1.3799107845     1.0187272003
   34      C       3.4569314494     1.8330802804     0.9925588823
   35      C       3.0877351121     3.3081836882     0.5815819316
   36      C       1.6170855141     3.1033569109     0.0632713051
   37      C       1.3698387832     1.5752117519     0.3971582180
   38      O       2.1993845069     1.3335612518     1.6000021489
   39      H       4.0682615288     1.6027663313    -1.1445326364
   40      H       1.8329485223     0.9573694037    -1.7256172159
   41      H       6.8274708684    -1.5728836437     0.1019587086
   42      H       4.3031172054     1.7191752424     1.6964993686
   43      H       3.1170041373     3.9700349797     1.4618105001
   44      H       3.7620105421     3.7126993190    -0.1899787042
   45      H       0.8965125528     3.7351119202     0.6057820063
   46      H       1.5243765794     3.3134942532    -1.0137110627
   47      H       0.3037276843     1.3151653036     0.5584397173
   48      H       5.6080799531    -2.2716359514     1.2281352948
   49      H       6.9137245408    -1.1951669335     1.8703599379
   50      H      -0.0847516394     2.4134793838    -2.0924569386
   51      H      -1.6561840482     3.3018224309    -2.1817982402
   52      H      -1.5212478124     1.6383656314    -2.8644360277
   53      H      -1.1671455278    -2.5280274453    -2.3851463649
   54      H      -0.9480661402    -4.1199476333    -1.5205232046
   55      H       1.2008702246    -3.0893604170    -0.4232213645
   56      H       1.3128927512    -3.4037629556    -2.2145705544
 ----------------------------------------------------------------

    9   -1510.2890139225      3.23E-09 Convergence criterion met
 Total energy in the final basis set = -1510.28901392
 Final energy is   -1510.28901392248
 **  OPTIMIZATION CONVERGED  **

                    Orbital Energies (a.u.)
 --------------------------------------------------------------

 Alpha MOs
 -- Occupied --
-18.938 -18.937 -18.930 -18.922 -18.886 -18.884 -18.883 -18.872
-18.870 -18.864 -10.104 -10.100 -10.095 -10.093 -10.073 -10.065
-10.064 -10.061 -10.056 -10.055 -10.055 -10.054 -10.039 -10.037
-10.035 -10.034 -10.020 -10.018 -10.018 -10.017  -1.020  -1.013
 -1.006  -1.000  -0.969  -0.966  -0.943  -0.937  -0.930  -0.926
 -0.763  -0.761  -0.727  -0.721  -0.713  -0.704  -0.695  -0.661
 -0.655  -0.617  -0.597  -0.575  -0.545  -0.542  -0.536  -0.534
 -0.510  -0.510  -0.486  -0.473  -0.459  -0.457  -0.453  -0.448
 -0.433  -0.430  -0.425  -0.416  -0.412  -0.410  -0.405  -0.402
 -0.398  -0.378  -0.372  -0.364  -0.361  -0.355  -0.354  -0.347
 -0.343  -0.340  -0.337  -0.333  -0.328  -0.323  -0.321  -0.311
 -0.308  -0.304  -0.301  -0.299  -0.289  -0.285  -0.278  -0.275
 -0.271  -0.255  -0.252  -0.247  -0.242  -0.233  -0.231  -0.190
 -0.178  -0.169  -0.162  -0.160  -0.157  -0.150  -0.145  -0.143
 -0.140

          Ground-State Mulliken Net Atomic Charges

     Atom                 Charge (a.u.)
  ----------------------------------------
      1 O                    -0.216784
      2 C                     0.211768
      3 C                    -0.079072
      4 C                    -0.077514
      5 C                     0.212495
      6 O                    -0.170248
      7 C                    -0.058017
      8 C                    -0.053992
      9 O                    -0.172385
     10 C                     0.214978
     11 C                    -0.078368
     12 C                    -0.082021
     13 C                     0.217443
     14 O                    -0.215027
     15 O                    -0.168191
     16 O                    -0.179041
     17 O                    -0.208210
     18 C                    -0.128098
     19 C                     0.025390
     20 C                    -0.143846
     21 C                    -0.143780
     22 C                     0.024428
     23 O                    -0.189960
     24 H                     0.089590
     25 H                     0.083680
     26 H                     0.084899
     27 H                     0.078326
     28 H                     0.074855
     29 H                     0.078112
     30 H                     0.073529
     31 H                     0.091132
     32 O                    -0.214540
     33 C                    -0.127230
     34 C                     0.023094
     35 C                    -0.143557
     36 C                    -0.143711
     37 C                     0.021311
     38 O                    -0.188295
     39 H                     0.083667
     40 H                     0.085144
     41 H                     0.088740
     42 H                     0.092645
     43 H                     0.077316
     44 H                     0.072028
     45 H                     0.078390
     46 H                     0.070124
     47 H                     0.094886
     48 H                     0.093024
     49 H                     0.090985
     50 H                     0.083180
     51 H                     0.085473
     52 H                     0.096255
     53 H                     0.103007
     54 H                     0.089584
     55 H                     0.106319
     56 H                     0.086088
  ----------------------------------------
  Sum of atomic charges =    -0.000000

                    Cartesian Multipole Moments
 -----------------------------------------------------------------
    Charge (ESU x 10^10)
                -0.0000
    Dipole Moment (Debye)
         X       1.9360      Y       0.3190      Z       0.8385
       Tot       2.1338
    Quadrupole Moments (Debye-Ang)
        XX    -158.2657     XY       4.4968     YY    -149.5081
        XZ     -10.8487     YZ       0.6268     ZZ    -161.0074

 Total job time:  61.47s(wall), 2926.56s(cpu)
        *  Thank you very much for using Q-Chem.  Have a nice day.  *
