 Q-Chem 5.0, Q-Chem, Inc., Pleasanton, CA (2017)
 Q-Chem 5.0.1 for Intel X86 EM64T Linux

User input:
--------------------------------------------------------------
$molecule
0  1
O 4.4417670569 -1.3199016138 -0.9371149052
C 4.4886609422 -0.3101508249 -0.199849281
C 3.6138468251 0.9863376698 -0.346474028
C 2.0947020368 0.6777197593 -0.6902838227
C 1.7532759822 -0.833525656 -0.4678820596
O 1.1582591105 -1.377271777 -1.658298851
C 0.8146764435 -2.8007329674 -1.4260361114
C -0.7337650427 -3.0316630477 -1.4943757229
O -1.3592871519 -2.4909872886 -0.2615760899
C -1.9745440546 -1.2283889335 -0.5174149493
C -2.6503374242 -0.7392403934 0.8067437366
C -3.2333438161 0.7262348278 0.692806737
C -2.9058504946 1.460324236 -0.6582929032
O -3.7331698083 1.904148117 -1.4822650884
O 5.4060397713 -0.1585845608 0.8853447234
O -1.4938505295 1.7264526844 -0.7233326371
O -2.0430478973 -0.6889125755 -1.6456365137
C -1.1821171449 2.3078612496 -2.048317759
C -3.9854705957 -1.5660435736 1.0674807723
C -4.4928884825 -1.2621734132 2.5332172471
C -5.1062657692 0.1770737709 2.3529762231
C -4.7878446186 0.451015481 0.8327154676
O -4.967476847 -0.8782000727 0.2007917412
H -1.9337253974 -0.8465410535 1.6404949799
H -2.8559853398 1.3541212522 1.520449438
H -3.9112238504 -2.6394806504 0.8056323006
H -5.2582198042 -1.9947526986 2.8350915454
H -3.6710897078 -1.2856875054 3.2667928818
H -6.1946159944 0.1752832468 2.523894231
H -4.6450853659 0.9240761718 3.0184279514
H -5.422300203 1.2055714604 0.3284356348
O 1.9283723436 -1.4887875192 0.5842015385
C 6.2335072066 -1.3799107845 1.0187272003
C 3.4569314494 1.8330802804 0.9925588823
C 3.0877351121 3.3081836882 0.5815819316
C 1.6170855141 3.1033569109 0.0632713051
C 1.3698387832 1.5752117519 0.397158218
O 2.1993845069 1.3335612518 1.6000021489
H 4.0682615288 1.6027663313 -1.1445326364
H 1.8329485223 0.9573694037 -1.7256172159
H 6.8274708684 -1.5728836437 0.1019587086
H 4.3031172054 1.7191752424 1.6964993686
H 3.1170041373 3.9700349797 1.4618105001
H 3.7620105421 3.712699319 -0.1899787042
H 0.8965125528 3.7351119202 0.6057820063
H 1.5243765794 3.3134942532 -1.0137110627
H 0.3037276843 1.3151653036 0.5584397173
H 5.6080799531 -2.2716359514 1.2281352948
H 6.9137245408 -1.1951669335 1.8703599379
H -0.0847516394 2.4134793838 -2.0924569386
H -1.6561840482 3.3018224309 -2.1817982402
H -1.5212478124 1.6383656314 -2.8644360277
H -1.1671455278 -2.5280274453 -2.3851463649
H -0.9480661402 -4.1199476333 -1.5205232046
H 1.2008702246 -3.089360417 -0.4232213645
H 1.3128927512 -3.4037629556 -2.2145705544
$end

$rem
JOBTYPE                   OPT
METHOD                    B3LYP
DFT_D                     d3_op
BASIS                     STO-3G
GEOM_OPT_MAX_CYCLES       100
GEOM_OPT_TOL_GRADIENT     300
GEOM_OPT_TOL_DISPLACEMENT 1200
GEOM_OPT_TOL_ENERGY       100
SYMMETRY                  False
THRESH                    12
SCF_CONVERGENCE           8
MAX_SUB_FILE_NUM          128
MEM_STATIC                400
MEM_TOTAL                 4000
$end
--------------------------------------------------------------

   16   -1510.2888971435      6.06E-09 Convergence criterion met
 Total energy in the final basis set = -1510.28889714
   14   -1510.2897589801      4.95E-09 Convergence criterion met
 Total energy in the final basis set = -1510.28975898
   15   -1510.2918605225      3.44E-09 Convergence criterion met
 Total energy in the final basis set = -1510.29186052
   15   -1510.2906645720      4.81E-09 Convergence criterion met
 Total energy in the final basis set = -1510.29066457
   14   -1510.2925475060      6.05E-09 Convergence criterion met
 Total energy in the final basis set = -1510.29254751
   14   -1510.2936948877      3.77E-09 Convergence criterion met
 Total energy in the final basis set = -1510.29369489
   14   -1510.2935929943      6.32E-09 Convergence criterion met
 Total energy in the final basis set = -1510.29359299
   14   -1510.2943531102      5.21E-09 Convergence criterion met
   12   -1510.3070566082      6.49E-09 Convergence criterion met
 Total energy in the final basis set = -1510.30705661
   12   -1510.3070610840      2.62E-09 Convergence criterion met
 Total energy in the final basis set = -1510.30706108
   10   -1510.3070906785      9.91E-09 Convergence criterion met
 Total energy in the final basis set = -1510.30709068
    9   -1510.3070936793      9.08E-09 Convergence criterion met
 Total energy in the final basis set = -1510.30709368
    9   -1510.3070911008      6.19E-09 Convergence criterion met
 Total energy in the final basis set = -1510.30709110
    9   -1510.3070925210      3.36E-09 Convergence criterion met
 Total energy in the final basis set = -1510.30709252

             Standard Nuclear Orientation (Angstroms)
    I     Atom           X                Y                Z
 ----------------------------------------------------------------
    1      O       3.9910813927    -1.4182391946     1.5428094181
    2      C       3.0261439806    -0.7069122793     1.1920427475
    3      C       3.0871966784     0.6649848139     0.4322481132
    4      C       2.3148914713     0.6505264248    -0.9534016064
    5      C       1.8967786359    -0.7940341171    -1.4012452336
    6      O       0.8020434283    -0.7105996207    -2.3205243214
    7      C       0.4522325331    -2.0553899197    -2.8407079511
    8      C      -0.1454416159    -3.0157244098    -1.7196995342
    9      O      -0.2952297560    -2.3091149281    -0.4296955968
   10      C      -1.3059401603    -1.2982272053    -0.5379799068
   11      C      -1.2685118151    -0.4270368083     0.7502011763
   12      C      -2.0494068068     0.9383127771     0.5855969966
   13      C      -2.6553548857     1.1597589175    -0.8446835106
   14      O      -3.8557397613     1.1629800594    -1.1836537418
   15      O       1.6539148638    -1.0063439758     1.4984039673
   16      O      -1.5736535457     1.5027848836    -1.7388189579
   17      O      -2.0622941651    -1.1782813011    -1.5286120430
   18      C      -2.0565697645     1.5759433796    -3.1320139798
   19      C      -2.0806646074    -1.0909526066     1.9431664970
   20      C      -1.6926264776    -0.3311798423     3.2729517148
   21      C      -2.4998090154     1.0096633295     3.1019766505
   22      C      -3.1715033183     0.7828327575     1.6908924813
   23      O      -3.4749530296    -0.6683021284     1.6840377286
   24      H      -0.2037462795    -0.2439457813     1.0151223897
   25      H      -1.3562464146     1.7710963752     0.8075197453
   26      H      -2.0115931800    -2.1952788865     1.9918508676
   27      H      -2.0273486462    -0.8970692198     4.1568286628
   28      H      -0.6054179061    -0.1660111205     3.3438328798
   29      H      -3.2693297605     1.1184772119     3.8829243822
   30      H      -1.8515400457     1.9001753817     3.1153722221
   31      H      -4.0914280341     1.3668174539     1.4934900697
   32      O       2.4636664750    -1.8634281953    -1.0840447216
   33      C       1.5547475638    -2.3547572628     2.0977383555
   34      C       2.2764055329     1.7927158675     1.1997588952
   35      C       2.5956129676     3.1931999734     0.5416359279
   36      C       1.7245300880     3.1228869566    -0.7690854410
   37      C       1.1268485594     1.6662297909    -0.6662763820
   38      O       0.8812634415     1.5262799513     0.7892900702
   39      H       4.1511835846     0.9290397092     0.3032580140
   40      H       2.9641020628     1.0518557951    -1.7543572542
   41      H       2.1468350397    -2.4318839170     3.0325350970
   42      H       2.3716887782     1.7557958785     2.3023807157
   43      H       2.2723032680     4.0128533805     1.2027391901
   44      H       3.6706113757     3.3136523671     0.3322067423
   45      H       0.9134307525     3.8685552632    -0.7520811440
   46      H       2.3189027845     3.2696247317    -1.6849136909
   47      H       0.1751627844     1.4921160181    -1.2274141703
   48      H       1.9040273641    -3.1314054892     1.3874543357
   49      H       0.4841584832    -2.5141372320     2.3181615666
   50      H      -1.1851795213     1.8692627549    -3.7459687269
   51      H      -2.8648437824     2.3270230062    -3.2457200742
   52      H      -2.4356552754     0.5895056480    -3.4697181950
   53      H      -1.1190096128    -3.4236210913    -2.0662913231
   54      H       0.5546823840    -3.8477281426    -1.5127171256
   55      H       1.3399376021    -2.5358982773    -3.3043108950
   56      H      -0.3103746594    -1.8596295063    -3.6191117503
 ----------------------------------------------------------------

    8   -1510.3070928485      8.04E-09 Convergence criterion met
 Total energy in the final basis set = -1510.30709285
 Final energy is   -1510.30709284854
 **  OPTIMIZATION CONVERGED  **

                    Orbital Energies (a.u.)
 --------------------------------------------------------------

 Alpha MOs
 -- Occupied --
-18.944 -18.936 -18.929 -18.926 -18.890 -18.882 -18.878 -18.877
-18.869 -18.865 -10.107 -10.098 -10.095 -10.092 -10.078 -10.075
-10.063 -10.058 -10.057 -10.052 -10.049 -10.045 -10.039 -10.037
-10.022 -10.021 -10.017 -10.016 -10.012 -10.011  -1.026  -1.009
 -1.004  -0.999  -0.972  -0.961  -0.944  -0.937  -0.930  -0.927
 -0.764  -0.753  -0.726  -0.719  -0.710  -0.702  -0.691  -0.656
 -0.655  -0.621  -0.596  -0.577  -0.545  -0.539  -0.538  -0.530
 -0.513  -0.502  -0.482  -0.475  -0.466  -0.458  -0.444  -0.441
 -0.429  -0.427  -0.421  -0.418  -0.410  -0.407  -0.405  -0.403
 -0.393  -0.378  -0.371  -0.367  -0.361  -0.355  -0.348  -0.343
 -0.343  -0.342  -0.332  -0.329  -0.324  -0.322  -0.317  -0.313
 -0.306  -0.303  -0.299  -0.296  -0.292  -0.285  -0.278  -0.273
 -0.268  -0.260  -0.249  -0.246  -0.244  -0.235  -0.221  -0.195
 -0.173  -0.172  -0.168  -0.161  -0.154  -0.147  -0.146  -0.141
 -0.136

          Ground-State Mulliken Net Atomic Charges

     Atom                 Charge (a.u.)
  ----------------------------------------
      1 O                    -0.211798
      2 C                     0.213987
      3 C                    -0.080401
      4 C                    -0.080225
      5 C                     0.214679
      6 O                    -0.168068
      7 C                    -0.050794
      8 C                    -0.050319
      9 O                    -0.170906
     10 C                     0.212838
     11 C                    -0.093090
     12 C                    -0.085149
     13 C                     0.219782
     14 O                    -0.211167
     15 O                    -0.173260
     16 O                    -0.178454
     17 O                    -0.214412
     18 C                    -0.125963
     19 C                     0.023526
     20 C                    -0.143975
     21 C                    -0.143090
     22 C                     0.024305
     23 O                    -0.191182
     24 H                     0.120336
     25 H                     0.094993
     26 H                     0.077917
     27 H                     0.074184
     28 H                     0.077561
     29 H                     0.075279
     30 H                     0.074425
     31 H                     0.086239
     32 O                    -0.212342
     33 C                    -0.125851
     34 C                     0.026070
     35 C                    -0.144940
     36 C                    -0.144091
     37 C                     0.005814
     38 O                    -0.195719
     39 H                     0.084838
     40 H                     0.084603
     41 H                     0.086115
     42 H                     0.081452
     43 H                     0.076645
     44 H                     0.073510
     45 H                     0.076450
     46 H                     0.071455
     47 H                     0.116981
     48 H                     0.093759
     49 H                     0.089735
     50 H                     0.086809
     51 H                     0.088365
     52 H                     0.093786
     53 H                     0.090785
     54 H                     0.094561
     55 H                     0.088498
     56 H                     0.094912
  ----------------------------------------
  Sum of atomic charges =    -0.000000

                    Cartesian Multipole Moments
 -----------------------------------------------------------------
    Charge (ESU x 10^10)
                -0.0000
    Dipole Moment (Debye)
         X       2.0331      Y       1.1820      Z      -0.9431
       Tot       2.5338
    Quadrupole Moments (Debye-Ang)
        XX    -180.9415     XY       6.5899     YY    -150.6847
        XZ      -5.0074     YZ       2.9079     ZZ    -147.9951

 Total job time:  205.05s(wall), 9783.77s(cpu)
        *  Thank you very much for using Q-Chem.  Have a nice day.  *
