 Q-Chem 5.0, Q-Chem, Inc., Pleasanton, CA (2017)
 Q-Chem 5.0.1 for Intel X86 EM64T Linux

User input:
--------------------------------------------------------------
$molecule
0  1
O 4.4693570196 -1.35746097 -1.0080559734
C 4.5350026007 -0.3465061132 -0.2737159816
C 3.6848394298 0.9662159699 -0.4321476244
C 2.1381374953 0.6738802393 -0.6498588384
C 1.7880722921 -0.8345025469 -0.4248858919
O 1.2015079191 -1.3676123797 -1.6227162882
C 0.8281425865 -2.7861007148 -1.4026617504
C -0.7255083182 -2.9499231926 -1.5031633375
O -1.3294837702 -2.4287024619 -0.2503535726
C -2.0373595292 -1.215038748 -0.5032752421
C -2.6873815389 -0.7317354918 0.8348018318
C -3.2970177228 0.7224008703 0.7175782478
C -2.957800295 1.4698748186 -0.6237091104
O -3.7771746321 1.942857237 -1.4393448887
O 5.4466298566 -0.2147284975 0.818237574
O -1.539214465 1.7003848748 -0.6878162405
O -2.1770466949 -0.6996153656 -1.6366859372
C -1.2144294996 2.2992581198 -2.0015939764
C -4.0070846864 -1.5770415214 1.1137515262
C -4.5230107338 -1.254089018 2.5727250851
C -5.178582494 0.1621881815 2.3607379703
C -4.8481184992 0.4197140625 0.8406398896
O -4.9973673153 -0.9232467174 0.2298900938
H -1.9537768424 -0.8253512989 1.655132423
H -2.9429432868 1.352603702 1.5538354707
H -3.9145852913 -2.6541059258 0.8732566088
H -5.2654226819 -2.0019519509 2.8936092769
H -3.6995800332 -1.2354274442 3.3046101428
H -6.2687461616 0.1275013391 2.5162012464
H -4.751267109 0.9339628641 3.0205132855
H -5.4897105779 1.1549255656 0.3170423707
O 1.9550069069 -1.4951192731 0.6249383749
C 6.2420940836 -1.4560823457 0.9618893
C 3.6415904078 1.8771428596 0.8690892355
C 3.2108657464 3.3284893867 0.4299808736
C 1.6889290573 3.0994744244 0.1064169856
C 1.5094431568 1.5758622728 0.4948117442
O 2.4588930547 1.3831484943 1.6146318994
H 4.0939642888 1.5266679355 -1.2930760881
H 1.7994487669 0.9682184581 -1.6585031845
H 6.8422542448 -1.6639135436 0.0524266097
H 4.5513920744 1.8090061312 1.4951115615
H 3.344587107 4.0379114573 1.2621206084
H 3.7833584211 3.6898891633 -0.4391122781
H 1.0370886139 3.7320502455 0.7293749088
H 1.4525754543 3.287881897 -0.9519692878
H 0.4772181158 1.2908272571 0.7798556387
H 5.5922790755 -2.3318922877 1.1638111289
H 6.916112949 -1.2875099504 1.8217433778
H -0.1146218547 2.3828008126 -2.041138096
H -1.667061721 3.3053283734 -2.1184200361
H -1.5649880402 1.6529538384 -2.8316248241
H -1.1303488339 -2.3816408722 -2.3683818762
H -0.9912068909 -4.0245367701 -1.5845033722
H 1.1871671312 -3.0907277697 -0.3946144392
H 1.3237350483 -3.3967409851 -2.1868137186
$end

$rem
JOBTYPE                   OPT
METHOD                    B3LYP
DFT_D                     d3_op
BASIS                     STO-3G
GEOM_OPT_MAX_CYCLES       100
GEOM_OPT_TOL_GRADIENT     300
GEOM_OPT_TOL_DISPLACEMENT 1200
GEOM_OPT_TOL_ENERGY       100
SYMMETRY                  False
THRESH                    12
SCF_CONVERGENCE           8
MAX_SUB_FILE_NUM          128
MEM_STATIC                400
MEM_TOTAL                 4000
$end
--------------------------------------------------------------

   16   -1510.2883192274      6.93E-09 Convergence criterion met
 Total energy in the final basis set = -1510.28831923
   14   -1510.2897855708      5.69E-09 Convergence criterion met
 Total energy in the final basis set = -1510.28978557
   14   -1510.2855188591      7.30E-09 Convergence criterion met
 Total energy in the final basis set = -1510.28551886
   14   -1510.2906898172      8.38E-09 Convergence criterion met
 Total energy in the final basis set = -1510.29068982
   13   -1510.2917057245      9.05E-09 Convergence criterion met
 Total energy in the final basis set = -1510.29170572
   14   -1510.2934108084      3.85E-09 Convergence criterion met
 Total energy in the final basis set = -1510.29341081
   14   -1510.2924241431      7.63E-09 Convergence criterion met
 Total energy in the final basis set = -1510.29242414
   15   -1510.2940954250      2.58E-09 Convergence criterion met
   11   -1510.3070515248      7.94E-09 Convergence criterion met
 Total energy in the final basis set = -1510.30705152
   10   -1510.3070698121      8.79E-09 Convergence criterion met
 Total energy in the final basis set = -1510.30706981
   10   -1510.3070614919      6.61E-09 Convergence criterion met
 Total energy in the final basis set = -1510.30706149
   10   -1510.3070599816      4.03E-09 Convergence criterion met
 Total energy in the final basis set = -1510.30705998
    9   -1510.3070692771      3.68E-09 Convergence criterion met
 Total energy in the final basis set = -1510.30706928
    9   -1510.3070690757      2.26E-09 Convergence criterion met
 Total energy in the final basis set = -1510.30706908

             Standard Nuclear Orientation (Angstroms)
    I     Atom           X                Y                Z
 ----------------------------------------------------------------
    1      O       3.9811231538    -1.4499259779     1.5271966157
    2      C       3.0196472819    -0.7310705929     1.1822831451
    3      C       3.0875679531     0.6454620866     0.4315023217
    4      C       2.3141680414     0.6441845855    -0.9536408930
    5      C       1.8880664627    -0.7951447725    -1.4105052831
    6      O       0.7932067956    -0.7002146164    -2.3285511193
    7      C       0.4361842772    -2.0400701562    -2.8564689136
    8      C      -0.1666583292    -3.0037598675    -1.7411610955
    9      O      -0.3118939371    -2.3050835207    -0.4463557622
   10      C      -1.3163063730    -1.2872862971    -0.5479413182
   11      C      -1.2742933804    -0.4254564794     0.7463456546
   12      C      -2.0481738577     0.9450006079     0.5912905777
   13      C      -2.6534584820     1.1793238526    -0.8372885102
   14      O      -3.8539645089     1.1904464117    -1.1757008159
   15      O       1.6461959324    -1.0250399046     1.4886472590
   16      O      -1.5705871418     1.5241906248    -1.7292742541
   17      O      -2.0713938853    -1.1558919240    -1.5381042338
   18      C      -2.0537958942     1.6100106857    -3.1216384822
   19      C      -2.0900906616    -1.0936823890     1.9344673978
   20      C      -1.6985404135    -0.3457015549     3.2697878299
   21      C      -2.4983364964     1.0007515384     3.1081649283
   22      C      -3.1710786215     0.7875742161     1.6954610210
   23      O      -3.4821276597    -0.6618687968     1.6781369876
   24      H      -0.2085723912    -0.2498591126     1.0125666206
   25      H      -1.3508466222     1.7728282702     0.8186506155
   26      H      -2.0267957454    -2.1986750186     1.9751349242
   27      H      -2.0368036088    -0.9161752431     4.1493635688
   28      H      -0.6104809795    -0.1870546896     3.3424284923
   29      H      -3.2673522920     1.1083661127     3.8897833045
   30      H      -1.8451307912     1.8875367175     3.1278966678
   31      H      -4.0879004877     1.3777936496     1.5022196611
   32      O       2.4491804927    -1.8696151013    -1.1001835911
   33      C       1.5403576518    -2.3775071777     2.0776132225
   34      C       2.2837376675     1.7727144191     1.2068210510
   35      C       2.6101415534     3.1753943891     0.5569219436
   36      C       1.7369398725     3.1183980721    -0.7529267687
   37      C       1.1317148280     1.6643167334    -0.6589743830
   38      O       0.8867647862     1.5163714188     0.7959223242
   39      H       4.1529362922     0.9042705145     0.3033024139
   40      H       2.9648983303     1.0474268776    -1.7523918232
   41      H       2.1324662428    -2.4650539572     3.0115007005
   42      H       2.3798475690     1.7284382354     2.3091010919
   43      H       2.2926233411     3.9928540968     1.2235443682
   44      H       3.6855466541     3.2908363920     0.3467610790
   45      H       0.9296768541     3.8680579989    -0.7298664836
   46      H       2.3307472971     3.2681155256    -1.6686503641
   47      H       0.1786069452     1.4991594304    -1.2203857719
   48      H       1.8852550620    -3.1503681911     1.3610833749
   49      H       0.4690863359    -2.5330528258     2.2974191941
   50      H      -1.1823615326     1.9080486332    -3.7332557972
   51      H      -2.8615645880     2.3626543107    -3.2283604457
   52      H      -2.4337568191     0.6268758637    -3.4679144685
   53      H      -1.1427524592    -3.4037466311    -2.0899073254
   54      H       0.5286212448    -3.8412371867    -1.5399506280
   55      H       1.3213960047    -2.5225727611    -3.3227745770
   56      H      -0.3253083022    -1.8356080725    -3.6337302638
 ----------------------------------------------------------------

    9   -1510.3070685908      1.72E-09 Convergence criterion met
 Total energy in the final basis set = -1510.30706859
 Final energy is   -1510.30706859082
 **  OPTIMIZATION CONVERGED  **

                    Orbital Energies (a.u.)
 --------------------------------------------------------------

 Alpha MOs
 -- Occupied --
-18.944 -18.936 -18.929 -18.926 -18.890 -18.882 -18.878 -18.877
-18.869 -18.865 -10.107 -10.098 -10.095 -10.092 -10.078 -10.075
-10.063 -10.058 -10.057 -10.052 -10.049 -10.045 -10.039 -10.037
-10.022 -10.021 -10.017 -10.016 -10.012 -10.011  -1.026  -1.009
 -1.004  -0.999  -0.972  -0.961  -0.944  -0.937  -0.930  -0.927
 -0.764  -0.753  -0.726  -0.719  -0.710  -0.702  -0.691  -0.656
 -0.655  -0.621  -0.596  -0.577  -0.545  -0.539  -0.538  -0.530
 -0.513  -0.502  -0.482  -0.475  -0.466  -0.458  -0.444  -0.441
 -0.429  -0.427  -0.421  -0.418  -0.410  -0.407  -0.405  -0.403
 -0.393  -0.378  -0.371  -0.367  -0.361  -0.355  -0.348  -0.343
 -0.343  -0.342  -0.331  -0.329  -0.324  -0.322  -0.317  -0.313
 -0.306  -0.303  -0.299  -0.296  -0.292  -0.285  -0.278  -0.273
 -0.268  -0.260  -0.249  -0.246  -0.244  -0.235  -0.221  -0.195
 -0.173  -0.172  -0.168  -0.161  -0.154  -0.147  -0.146  -0.141
 -0.136

          Ground-State Mulliken Net Atomic Charges

     Atom                 Charge (a.u.)
  ----------------------------------------
      1 O                    -0.211815
      2 C                     0.213976
      3 C                    -0.080394
      4 C                    -0.080235
      5 C                     0.214641
      6 O                    -0.168043
      7 C                    -0.050782
      8 C                    -0.050317
      9 O                    -0.170884
     10 C                     0.212859
     11 C                    -0.093061
     12 C                    -0.085129
     13 C                     0.219790
     14 O                    -0.211195
     15 O                    -0.173286
     16 O                    -0.178448
     17 O                    -0.214384
     18 C                    -0.125964
     19 C                     0.023523
     20 C                    -0.143971
     21 C                    -0.143091
     22 C                     0.024304
     23 O                    -0.191176
     24 H                     0.120320
     25 H                     0.094977
     26 H                     0.077931
     27 H                     0.074200
     28 H                     0.077557
     29 H                     0.075284
     30 H                     0.074428
     31 H                     0.086247
     32 O                    -0.212338
     33 C                    -0.125850
     34 C                     0.026054
     35 C                    -0.144942
     36 C                    -0.144084
     37 C                     0.005802
     38 O                    -0.195727
     39 H                     0.084835
     40 H                     0.084604
     41 H                     0.086096
     42 H                     0.081465
     43 H                     0.076634
     44 H                     0.073501
     45 H                     0.076450
     46 H                     0.071446
     47 H                     0.116984
     48 H                     0.093766
     49 H                     0.089726
     50 H                     0.086792
     51 H                     0.088436
     52 H                     0.093736
     53 H                     0.090775
     54 H                     0.094543
     55 H                     0.088516
     56 H                     0.094917
  ----------------------------------------
  Sum of atomic charges =    -0.000000

                    Cartesian Multipole Moments
 -----------------------------------------------------------------
    Charge (ESU x 10^10)
                -0.0000
    Dipole Moment (Debye)
         X       2.0352      Y       1.1764      Z      -0.9361
       Tot       2.5303
    Quadrupole Moments (Debye-Ang)
        XX    -180.8819     XY       6.7755     YY    -150.7895
        XZ      -4.9392     YZ       2.9047     ZZ    -147.9525

 Total job time:  220.01s(wall), 10491.88s(cpu)
        *  Thank you very much for using Q-Chem.  Have a nice day.  *
