 Q-Chem 5.0, Q-Chem, Inc., Pleasanton, CA (2017)
 Q-Chem 5.0.1 for Intel X86 EM64T Linux

User input:
--------------------------------------------------------------
$molecule
0  1
O -3.94934 -3.66094 2.70899
C -3.26408 -4.56952 2.26188
C -3.36658 -6.02376 2.66595
C -4.77403 -6.64011 2.72129
C -5.90576 -5.78532 2.19535
O -6.83416 -5.589 3.17767
C -7.96 -4.81922 2.74273
C -9.22739 -5.66608 2.79454
O -9.25122 -6.5796 1.68648
C -9.07876 -7.88661 2.00448
C -9.15313 -8.79913 0.80346
C -8.74506 -10.25528 1.0706
C -8.67262 -10.66447 2.528
O -9.28971 -11.58951 3.036
O -2.42612 -4.27944 1.23013
O -7.65841 -10.10174 3.24215
O -9.4356 -8.27466 3.11037
C -7.35062 -10.41802 4.54856
C -10.58357 -9.00195 0.26363
C -10.5166 -9.38599 -1.21277
C -9.9356 -10.78263 -1.11401
C -9.93792 -10.97376 0.40874
O -11.02614 -10.20015 0.85288
H -8.52919 -8.33306 0.00649
H -7.76487 -10.51036 0.61089
H -11.23953 -8.1152 0.40434
H -11.56911 -9.46227 -1.56937
H -9.9593 -8.6871 -1.87294
H -10.63615 -11.48892 -1.61213
H -8.91107 -10.90131 -1.52881
H -9.97405 -12.05709 0.6576
O -5.95143 -5.33796 1.05446
C -2.25403 -3.02107 0.69206
C -2.67715 -7.01114 1.6986
C -2.37335 -8.32995 2.41475
C -3.75807 -8.93674 2.49435
C -4.57864 -7.85286 1.79467
O -3.70277 -7.36783 0.80388
H -2.88876 -6.0724 3.6698
H -5.02737 -6.97087 3.75578
H -1.87502 -2.32186 1.46776
H -1.74187 -6.61698 1.24674
H -1.7523 -8.96147 1.74011
H -1.85191 -8.20343 3.38796
H -3.77503 -9.85956 1.87209
H -4.11995 -9.16957 3.5191
H -5.54409 -8.27386 1.43415
H -3.21633 -2.6446 0.28381
H -1.51378 -3.07627 -0.13222
H -6.48551 -9.80529 4.87556
H -7.0793 -11.49224 4.62899
H -8.21623 -10.19747 5.20899
H -9.29515 -6.11768 3.80907
H -10.11041 -5.00127 2.68506
H -7.88869 -4.34527 1.73836
H -8.07119 -3.98398 3.46659
$end

$opt
CONSTRAINT
tors           1           2           3           4     +47.211
tors           3           4           5           6    -121.434
tors           4           5           6           7    -178.242
tors           5           6           7           8    +115.673
tors           6           7           8           9     -76.101
tors           7           8           9          10    +110.044
tors           8           9          10          11    +178.357
tors           9          10          11          12    +170.715
tors          11          12          13          14    +123.326
ENDCONSTRAINT
$end

$rem
JOBTYPE                   OPT
METHOD                    B3LYP
DFT_D                     d3_op
BASIS                     STO-3G
GEOM_OPT_MAX_CYCLES       100
GEOM_OPT_TOL_GRADIENT     300
GEOM_OPT_TOL_DISPLACEMENT 1200
GEOM_OPT_TOL_ENERGY       100
SYMMETRY                  False
THRESH                    12
SCF_CONVERGENCE           8
MAX_SUB_FILE_NUM          128
MEM_STATIC                400
MEM_TOTAL                 4000
$end
--------------------------------------------------------------

   15   -1510.1454028249      7.10E-09 Convergence criterion met
 Total energy in the final basis set = -1510.14540282
   13   -1510.2158579721      9.07E-09 Convergence criterion met
 Total energy in the final basis set = -1510.21585797
   13   -1510.2542538349      8.90E-09 Convergence criterion met
 Total energy in the final basis set = -1510.25425383
   14   -1510.2727728332      2.34E-09 Convergence criterion met
 Total energy in the final basis set = -1510.27277283
   13   -1510.2804704732      7.12E-09 Convergence criterion met
 Total energy in the final basis set = -1510.28047047
   13   -1510.2825735404      4.83E-09 Convergence criterion met
 Total energy in the final basis set = -1510.28257354
   13   -1510.2849131726      6.44E-09 Convergence criterion met
 Total energy in the final basis set = -1510.28491317
   13   -1510.2859134204      3.12E-09 Convergence criterion met
   11   -1510.2884675294      4.42E-09 Convergence criterion met
 Total energy in the final basis set = -1510.28846753
   10   -1510.2884933458      8.54E-09 Convergence criterion met
 Total energy in the final basis set = -1510.28849335
   10   -1510.2885068168      6.31E-09 Convergence criterion met
 Total energy in the final basis set = -1510.28850682
    9   -1510.2885114181      9.85E-09 Convergence criterion met
 Total energy in the final basis set = -1510.28851142
    9   -1510.2885134387      3.12E-09 Convergence criterion met
 Total energy in the final basis set = -1510.28851344
    9   -1510.2885146890      2.30E-09 Convergence criterion met
 Total energy in the final basis set = -1510.28851469

             Standard Nuclear Orientation (Angstroms)
    I     Atom           X                Y                Z
 ----------------------------------------------------------------
    1      O       4.4693570196    -1.3574609700    -1.0080559734
    2      C       4.5350026007    -0.3465061132    -0.2737159816
    3      C       3.6848394298     0.9662159699    -0.4321476244
    4      C       2.1381374953     0.6738802393    -0.6498588384
    5      C       1.7880722921    -0.8345025469    -0.4248858919
    6      O       1.2015079191    -1.3676123797    -1.6227162882
    7      C       0.8281425865    -2.7861007148    -1.4026617504
    8      C      -0.7255083182    -2.9499231926    -1.5031633375
    9      O      -1.3294837702    -2.4287024619    -0.2503535726
   10      C      -2.0373595292    -1.2150387480    -0.5032752421
   11      C      -2.6873815389    -0.7317354918     0.8348018318
   12      C      -3.2970177228     0.7224008703     0.7175782478
   13      C      -2.9578002950     1.4698748186    -0.6237091104
   14      O      -3.7771746321     1.9428572370    -1.4393448887
   15      O       5.4466298566    -0.2147284975     0.8182375740
   16      O      -1.5392144650     1.7003848748    -0.6878162405
   17      O      -2.1770466949    -0.6996153656    -1.6366859372
   18      C      -1.2144294996     2.2992581198    -2.0015939764
   19      C      -4.0070846864    -1.5770415214     1.1137515262
   20      C      -4.5230107338    -1.2540890180     2.5727250851
   21      C      -5.1785824940     0.1621881815     2.3607379703
   22      C      -4.8481184992     0.4197140625     0.8406398896
   23      O      -4.9973673153    -0.9232467174     0.2298900938
   24      H      -1.9537768424    -0.8253512989     1.6551324230
   25      H      -2.9429432868     1.3526037020     1.5538354707
   26      H      -3.9145852913    -2.6541059258     0.8732566088
   27      H      -5.2654226819    -2.0019519509     2.8936092769
   28      H      -3.6995800332    -1.2354274442     3.3046101428
   29      H      -6.2687461616     0.1275013391     2.5162012464
   30      H      -4.7512671090     0.9339628641     3.0205132855
   31      H      -5.4897105779     1.1549255656     0.3170423707
   32      O       1.9550069069    -1.4951192731     0.6249383749
   33      C       6.2420940836    -1.4560823457     0.9618893000
   34      C       3.6415904078     1.8771428596     0.8690892355
   35      C       3.2108657464     3.3284893867     0.4299808736
   36      C       1.6889290573     3.0994744244     0.1064169856
   37      C       1.5094431568     1.5758622728     0.4948117442
   38      O       2.4588930547     1.3831484943     1.6146318994
   39      H       4.0939642888     1.5266679355    -1.2930760881
   40      H       1.7994487669     0.9682184581    -1.6585031845
   41      H       6.8422542448    -1.6639135436     0.0524266097
   42      H       4.5513920744     1.8090061312     1.4951115615
   43      H       3.3445871070     4.0379114573     1.2621206084
   44      H       3.7833584211     3.6898891633    -0.4391122781
   45      H       1.0370886139     3.7320502455     0.7293749088
   46      H       1.4525754543     3.2878818970    -0.9519692878
   47      H       0.4772181158     1.2908272571     0.7798556387
   48      H       5.5922790755    -2.3318922877     1.1638111289
   49      H       6.9161129490    -1.2875099504     1.8217433778
   50      H      -0.1146218547     2.3828008126    -2.0411380960
   51      H      -1.6670617210     3.3053283734    -2.1184200361
   52      H      -1.5649880402     1.6529538384    -2.8316248241
   53      H      -1.1303488339    -2.3816408722    -2.3683818762
   54      H      -0.9912068909    -4.0245367701    -1.5845033722
   55      H       1.1871671312    -3.0907277697    -0.3946144392
   56      H       1.3237350483    -3.3967409851    -2.1868137186
 ----------------------------------------------------------------

    9   -1510.2885155239      2.46E-09 Convergence criterion met
 Total energy in the final basis set = -1510.28851552
 Final energy is   -1510.28851552386
 **  OPTIMIZATION CONVERGED  **

                    Orbital Energies (a.u.)
 --------------------------------------------------------------

 Alpha MOs
 -- Occupied --
-18.938 -18.938 -18.930 -18.921 -18.886 -18.885 -18.883 -18.873
-18.871 -18.864 -10.104 -10.100 -10.096 -10.092 -10.071 -10.065
-10.065 -10.061 -10.057 -10.056 -10.056 -10.056 -10.039 -10.038
-10.036 -10.034 -10.020 -10.019 -10.018 -10.018  -1.020  -1.013
 -1.006  -1.000  -0.969  -0.968  -0.943  -0.937  -0.931  -0.926
 -0.763  -0.762  -0.727  -0.721  -0.713  -0.705  -0.696  -0.661
 -0.655  -0.617  -0.597  -0.576  -0.546  -0.542  -0.536  -0.535
 -0.511  -0.510  -0.487  -0.473  -0.460  -0.456  -0.453  -0.448
 -0.434  -0.430  -0.426  -0.416  -0.412  -0.411  -0.405  -0.402
 -0.399  -0.378  -0.372  -0.364  -0.360  -0.355  -0.354  -0.348
 -0.343  -0.340  -0.338  -0.333  -0.329  -0.323  -0.322  -0.311
 -0.309  -0.305  -0.301  -0.300  -0.289  -0.286  -0.278  -0.276
 -0.271  -0.255  -0.252  -0.247  -0.243  -0.233  -0.232  -0.189
 -0.178  -0.168  -0.163  -0.160  -0.157  -0.150  -0.145  -0.143
 -0.141

          Ground-State Mulliken Net Atomic Charges

     Atom                 Charge (a.u.)
  ----------------------------------------
      1 O                    -0.216897
      2 C                     0.211342
      3 C                    -0.078700
      4 C                    -0.077781
      5 C                     0.211928
      6 O                    -0.170672
      7 C                    -0.057006
      8 C                    -0.055402
      9 O                    -0.172313
     10 C                     0.215842
     11 C                    -0.078007
     12 C                    -0.081650
     13 C                     0.216803
     14 O                    -0.215424
     15 O                    -0.167320
     16 O                    -0.179479
     17 O                    -0.208996
     18 C                    -0.128229
     19 C                     0.025343
     20 C                    -0.144008
     21 C                    -0.143524
     22 C                     0.024237
     23 O                    -0.190023
     24 H                     0.089256
     25 H                     0.083289
     26 H                     0.084396
     27 H                     0.078359
     28 H                     0.074699
     29 H                     0.078154
     30 H                     0.073479
     31 H                     0.091471
     32 O                    -0.214569
     33 C                    -0.127106
     34 C                     0.022983
     35 C                    -0.143988
     36 C                    -0.143202
     37 C                     0.024616
     38 O                    -0.187625
     39 H                     0.084091
     40 H                     0.085263
     41 H                     0.088714
     42 H                     0.093000
     43 H                     0.077607
     44 H                     0.072208
     45 H                     0.078695
     46 H                     0.070991
     47 H                     0.090687
     48 H                     0.093341
     49 H                     0.091244
     50 H                     0.082130
     51 H                     0.085456
     52 H                     0.095429
     53 H                     0.105268
     54 H                     0.088144
     55 H                     0.106670
     56 H                     0.086787
  ----------------------------------------
  Sum of atomic charges =    -0.000000

                    Cartesian Multipole Moments
 -----------------------------------------------------------------
    Charge (ESU x 10^10)
                -0.0000
    Dipole Moment (Debye)
         X       1.9457      Y       0.3374      Z       0.8116
       Tot       2.1350
    Quadrupole Moments (Debye-Ang)
        XX    -158.6780     XY       4.5459     YY    -149.8557
        XZ     -11.6838     YZ       0.4044     ZZ    -161.1925

 Total job time:  61.59s(wall), 2934.03s(cpu)
        *  Thank you very much for using Q-Chem.  Have a nice day.  *
