 Q-Chem 5.0, Q-Chem, Inc., Pleasanton, CA (2017)
 Q-Chem 5.0.1 for Intel X86 EM64T Linux

User input:
--------------------------------------------------------------
$molecule
0  1
O 4.5190559845 -1.3511714197 -1.0099900142
C 4.6085171195 -0.3217273197 -0.3046880077
C 3.7193351107 0.967330668 -0.4331229485
C 2.1807183273 0.6403436851 -0.6422172999
C 1.8489296029 -0.8738190839 -0.4233351739
O 1.1543410717 -1.3596722209 -1.5804699947
C 0.7990334772 -2.7889089031 -1.3992096691
C -0.7549209599 -2.9202473231 -1.5156936134
O -1.3442556253 -2.3946956839 -0.2572467038
C -2.0740777814 -1.1943427796 -0.5067227557
C -2.7049175934 -0.7109376737 0.8401775187
C -3.3396358347 0.7334127055 0.727731077
C -3.0565516405 1.4579293958 -0.6394238598
O -3.8954766536 1.7967355193 -1.500109306
O 5.588465098 -0.1398031793 0.719096988
O -1.6613052589 1.8065438014 -0.6864268476
O -2.2182836895 -0.6753213391 -1.6378415312
C -1.3502611662 2.3686762815 -2.0193246328
C -4.0015689002 -1.5749900434 1.1640098308
C -4.4739074694 -1.2527182661 2.6374794431
C -5.1534902978 0.1542183912 2.4414218473
C -4.8808209099 0.4075517789 0.9085651246
O -5.0304510351 -0.9410721115 0.3106380179
H -1.9489662892 -0.7842526644 1.6424295047
H -2.9638386942 1.3802695256 1.5410391445
H -3.8999986459 -2.6516738853 0.925447221
H -5.1958870407 -2.0086058558 2.9851267603
H -3.6277126559 -1.2207632169 3.3423611702
H -6.2368040349 0.1080908875 2.636599823
H -4.7115151772 0.9345883356 3.0810259979
H -5.5544979568 1.1278923456 0.4052665826
O 2.0849917817 -1.5636879789 0.593434688
C 6.4272248984 -1.3553966448 0.8345763049
C 3.6661386482 1.8660538845 0.8766053795
C 3.200939893 3.3111333801 0.4503509291
C 1.6832750993 3.0502607877 0.1297217347
C 1.5390099571 1.5221563493 0.5124816593
O 2.4988396299 1.3425361186 1.625588755
H 4.1052670908 1.5498935314 -1.2903684469
H 1.8246331246 0.9353256529 -1.6446920431
H 6.9821611117 -1.5590790378 -0.1041279466
H 4.5817731821 1.8128417485 1.4958115602
H 3.3211083061 4.016753191 1.2878008959
H 3.7620111051 3.6926372004 -0.4176180181
H 1.0188657051 3.667209274 0.7550412177
H 1.4398037769 3.2336678018 -0.9282609372
H 0.5163603656 1.2129885633 0.8063842153
H 5.8162031442 -2.2466838748 1.0840356252
H 7.1430709952 -1.1543458106 1.6526482883
H -0.2749780984 2.6198135579 -2.006686484
H -1.9425845513 3.282668634 -2.2297623969
H -1.5477954152 1.6255116292 -2.8188051051
H -1.1404040031 -2.329054832 -2.3743195412
H -1.0501564623 -3.9860311712 -1.6130341467
H 1.1545891293 -3.1194175262 -0.3982535949
H 1.2977765085 -3.3803815584 -2.1964468718
$end

$rem
JOBTYPE                   OPT
METHOD                    B3LYP
DFT_D                     d3_op
BASIS                     STO-3G
GEOM_OPT_MAX_CYCLES       100
GEOM_OPT_TOL_GRADIENT     300
GEOM_OPT_TOL_DISPLACEMENT 1200
GEOM_OPT_TOL_ENERGY       100
SYMMETRY                  False
THRESH                    12
SCF_CONVERGENCE           8
MAX_SUB_FILE_NUM          128
MEM_STATIC                400
MEM_TOTAL                 4000
$end
--------------------------------------------------------------

   16   -1510.2886867282      6.47E-09 Convergence criterion met
 Total energy in the final basis set = -1510.28868673
   14   -1510.2847390308      3.10E-09 Convergence criterion met
 Total energy in the final basis set = -1510.28473903
   14   -1510.2883340720      4.54E-09 Convergence criterion met
 Total energy in the final basis set = -1510.28833407
   15   -1510.2897830101      4.40E-09 Convergence criterion met
 Total energy in the final basis set = -1510.28978301
   13   -1510.2905221311      6.07E-09 Convergence criterion met
 Total energy in the final basis set = -1510.29052213
   14   -1510.2919344051      5.13E-09 Convergence criterion met
 Total energy in the final basis set = -1510.29193441
   15   -1510.2937066821      5.21E-09 Convergence criterion met
 Total energy in the final basis set = -1510.29370668
   15   -1510.2922249322      5.87E-09 Convergence criterion met
   11   -1510.3070902663      8.68E-09 Convergence criterion met
 Total energy in the final basis set = -1510.30709027
   10   -1510.3070869981      7.16E-09 Convergence criterion met
 Total energy in the final basis set = -1510.30708700
   11   -1510.3070944857      9.42E-09 Convergence criterion met
 Total energy in the final basis set = -1510.30709449
   10   -1510.3071012799      8.66E-09 Convergence criterion met
 Total energy in the final basis set = -1510.30710128
    9   -1510.3070990100      3.63E-09 Convergence criterion met
 Total energy in the final basis set = -1510.30709901
    9   -1510.3071005255      2.21E-09 Convergence criterion met
 Total energy in the final basis set = -1510.30710053

             Standard Nuclear Orientation (Angstroms)
    I     Atom           X                Y                Z
 ----------------------------------------------------------------
    1      O       4.0177431396    -1.4007833841     1.4824761707
    2      C       3.0459381276    -0.6934825783     1.1426915736
    3      C       3.0920753503     0.6728193256     0.3716960493
    4      C       2.2953862486     0.6477150430    -0.9998203063
    5      C       1.8710626844    -0.8004893328    -1.4297558266
    6      O       0.7598367107    -0.7249720380    -2.3298460087
    7      C       0.4014107536    -2.0744906283    -2.8314296038
    8      C      -0.1767060573    -3.0245954320    -1.6916305651
    9      O      -0.3032651185    -2.3071631979    -0.4050889153
   10      C      -1.3167782847    -1.2981167017    -0.5040403031
   11      C      -1.2572953278    -0.4150416509     0.7751647171
   12      C      -2.0449205366     0.9466450122     0.6122984822
   13      C      -2.6740933688     1.1556748491    -0.8097133984
   14      O      -3.8798209643     1.1561020819    -1.1290888974
   15      O       1.6795216029    -0.9919593124     1.4744895230
   16      O      -1.6070910561     1.4908825943    -1.7242892940
   17      O      -2.0915899962    -1.1883960491    -1.4815227588
   18      C      -2.1123574822     1.5506105020    -3.1101780966
   19      C      -2.0458034559    -1.0701676991     1.9885537000
   20      C      -1.6384236708    -0.2955725171     3.3039896492
   21      C      -2.4554036787     1.0394976534     3.1345590121
   22      C      -3.1486901827     0.7965872826     1.7367483263
   23      O      -3.4460562677    -0.6557504012     1.7486876162
   24      H      -0.1884045137    -0.2260462301     1.0185314036
   25      H      -1.3513183828     1.7832471668     0.8173515188
   26      H      -1.9713261049    -2.1736595644     2.0469430093
   27      H      -1.9540864462    -0.8545673616     4.1991909656
   28      H      -0.5510563131    -0.1241875317     3.3536072279
   29      H      -3.2128128684     1.1510401787     3.9268690233
   30      H      -1.8118385722     1.9334866329     3.1294619571
   31      H      -4.0741832741     1.3748919585     1.5487583107
   32      O       2.4446407471    -1.8669793146    -1.1147934029
   33      C       1.5926987424    -2.3342912672     2.0892256872
   34      C       2.2936124582     1.8050608683     1.1454700846
   35      C       2.5993422381     3.2010982962     0.4717391798
   36      C       1.7046527499     3.1206762242    -0.8225392632
   37      C       1.1111070012     1.6639075491    -0.6988269344
   38      O       0.8917632686     1.5341150957     0.7618516702
   39      H       4.1532169761     0.9372917491     0.2219514297
   40      H       2.9294414524     1.0442974930    -1.8151351069
   41      H       2.1968201564    -2.3992534596     3.0172150355
   42      H       2.4085678548     1.7761712939     2.2464512956
   43      H       2.2874248568     4.0252756545     1.1327019324
   44      H       3.6702297365     3.3208450617     0.2419000714
   45      H       0.8928162426     3.8652449252    -0.7957586259
   46      H       2.2820449777     3.2620528802    -1.7499963801
   47      H       0.1499431507     1.4842511083    -1.2418152005
   48      H       1.9357756147    -3.1174376572     1.3830938371
   49      H       0.5255761095    -2.4948783636     2.3249554324
   50      H      -1.2499079781     1.8336031970    -3.7413500728
   51      H      -2.9193938623     2.3037413991    -3.2192326799
   52      H      -2.5006931424     0.5620730359    -3.4307323478
   53      H      -1.1566196488    -3.4343978025    -2.0174383862
   54      H       0.5263387961    -3.8555110342    -1.4903453660
   55      H       1.2811208551    -2.5591735081    -3.3058452431
   56      H      -0.3746487476    -1.8861262762    -3.5982856603
 ----------------------------------------------------------------

    8   -1510.3071001313      8.04E-09 Convergence criterion met
 Total energy in the final basis set = -1510.30710013
 Final energy is   -1510.30710013130
 **  OPTIMIZATION CONVERGED  **

                    Orbital Energies (a.u.)
 --------------------------------------------------------------

 Alpha MOs
 -- Occupied --
-18.944 -18.936 -18.929 -18.926 -18.890 -18.882 -18.878 -18.877
-18.869 -18.866 -10.107 -10.098 -10.095 -10.092 -10.078 -10.075
-10.063 -10.058 -10.057 -10.052 -10.049 -10.045 -10.039 -10.037
-10.022 -10.021 -10.017 -10.016 -10.012 -10.011  -1.026  -1.009
 -1.004  -0.999  -0.972  -0.961  -0.944  -0.937  -0.930  -0.927
 -0.764  -0.753  -0.726  -0.719  -0.710  -0.702  -0.691  -0.656
 -0.655  -0.621  -0.596  -0.577  -0.545  -0.539  -0.538  -0.530
 -0.513  -0.502  -0.482  -0.476  -0.467  -0.458  -0.444  -0.441
 -0.429  -0.427  -0.421  -0.418  -0.410  -0.407  -0.405  -0.403
 -0.393  -0.378  -0.371  -0.367  -0.361  -0.355  -0.348  -0.343
 -0.343  -0.342  -0.332  -0.329  -0.324  -0.322  -0.317  -0.313
 -0.306  -0.303  -0.299  -0.296  -0.292  -0.285  -0.278  -0.273
 -0.268  -0.260  -0.249  -0.246  -0.244  -0.235  -0.221  -0.195
 -0.173  -0.172  -0.168  -0.161  -0.154  -0.147  -0.146  -0.141
 -0.136

          Ground-State Mulliken Net Atomic Charges

     Atom                 Charge (a.u.)
  ----------------------------------------
      1 O                    -0.211859
      2 C                     0.213940
      3 C                    -0.080402
      4 C                    -0.080242
      5 C                     0.214688
      6 O                    -0.168082
      7 C                    -0.050809
      8 C                    -0.050351
      9 O                    -0.170835
     10 C                     0.212859
     11 C                    -0.093108
     12 C                    -0.085116
     13 C                     0.219813
     14 O                    -0.211148
     15 O                    -0.173206
     16 O                    -0.178468
     17 O                    -0.214427
     18 C                    -0.125960
     19 C                     0.023535
     20 C                    -0.143986
     21 C                    -0.143079
     22 C                     0.024290
     23 O                    -0.191222
     24 H                     0.120476
     25 H                     0.094818
     26 H                     0.077914
     27 H                     0.074191
     28 H                     0.077584
     29 H                     0.075295
     30 H                     0.074385
     31 H                     0.086256
     32 O                    -0.212309
     33 C                    -0.125836
     34 C                     0.026082
     35 C                    -0.144937
     36 C                    -0.144084
     37 C                     0.005833
     38 O                    -0.195692
     39 H                     0.084833
     40 H                     0.084601
     41 H                     0.086014
     42 H                     0.081459
     43 H                     0.076644
     44 H                     0.073519
     45 H                     0.076461
     46 H                     0.071473
     47 H                     0.116987
     48 H                     0.093738
     49 H                     0.089769
     50 H                     0.086842
     51 H                     0.088285
     52 H                     0.093843
     53 H                     0.090818
     54 H                     0.094537
     55 H                     0.088521
     56 H                     0.094859
  ----------------------------------------
  Sum of atomic charges =    -0.000000

                    Cartesian Multipole Moments
 -----------------------------------------------------------------
    Charge (ESU x 10^10)
                -0.0000
    Dipole Moment (Debye)
         X       2.0104      Y       1.1826      Z      -0.9832
       Tot       2.5312
    Quadrupole Moments (Debye-Ang)
        XX    -181.1356     XY       6.5856     YY    -150.6394
        XZ      -4.4863     YZ       2.8114     ZZ    -147.8752

 Total job time:  287.82s(wall), 13733.04s(cpu)
        *  Thank you very much for using Q-Chem.  Have a nice day.  *
