 Q-Chem 5.0, Q-Chem, Inc., Pleasanton, CA (2017)
 Q-Chem 5.0.1 for Intel X86 EM64T Linux

User input:
--------------------------------------------------------------
$molecule
0  1
O -3.94934 -3.66094 2.70899
C -3.26408 -4.56952 2.26188
C -3.36658 -6.02376 2.66595
C -4.7785 -6.61395 2.81429
C -5.92685 -5.73529 2.37006
O -6.84189 -5.62291 3.37778
C -7.97477 -4.82287 3.0231
C -9.2566 -5.63858 3.15597
O -9.36394 -6.56315 2.06211
C -9.26049 -7.87393 2.39424
C -9.42069 -8.79568 1.20876
C -9.09237 -10.26998 1.48609
C -9.00534 -10.6641 2.94685
O -9.74684 -11.45398 3.51327
O -2.4198 -4.27617 1.23615
O -7.9085 -10.21452 3.61723
O -9.5196 -8.23029 3.53646
C -7.63616 -10.49373 4.9405
C -10.85026 -8.90901 0.65509
C -10.78417 -9.33644 -0.81329
C -10.33567 -10.77706 -0.66877
C -10.34501 -10.91692 0.85794
O -11.37751 -10.05506 1.2753
H -8.75518 -8.38467 0.41509
H -8.15109 -10.60815 0.99912
H -11.43845 -7.9718 0.76187
H -11.82418 -9.32598 -1.20979
H -10.1398 -8.70713 -1.4654
H -11.10899 -11.4326 -1.12719
H -9.33581 -11.01195 -1.09485
H -10.45884 -11.98668 1.13999
O -6.02375 -5.25468 1.24589
C -2.22504 -3.01204 0.71972
C -2.76864 -7.0074 1.63421
C -2.43252 -8.34192 2.3016
C -3.81718 -8.92337 2.48828
C -4.67002 -7.81848 1.86177
O -3.86374 -7.33413 0.81422
H -2.81865 -6.09353 3.6319
H -4.97067 -6.9584 3.85733
H -1.83823 -2.33247 1.50916
H -1.86379 -6.62455 1.11579
H -1.88592 -8.96949 1.56151
H -1.82473 -8.24614 3.2268
H -3.89889 -9.84472 1.86908
H -4.10133 -9.15083 3.53845
H -5.66611 -8.22087 1.56988
H -3.17864 -2.61265 0.31338
H -1.48054 -3.06538 -0.10087
H -6.68599 -9.99909 5.22861
H -7.53112 -11.58955 5.08987
H -8.45174 -10.10392 5.58671
H -9.27678 -6.075 4.17895
H -10.12734 -4.95219 3.08875
H -7.9606 -4.34273 2.01937
H -8.02297 -3.99389 3.76115
$end

$opt
CONSTRAINT
tors           1           2           3           4     +43.158
tors           3           4           5           6    -126.722
tors           4           5           6           7    -178.924
tors           5           6           7           8    +121.254
tors           6           7           8           9     -74.937
tors           7           8           9          10    +112.706
tors           8           9          10          11    +178.357
tors           9          10          11          12    +170.719
tors          11          12          13          14    +116.006
ENDCONSTRAINT
$end

$rem
JOBTYPE                   OPT
METHOD                    B3LYP
DFT_D                     d3_op
BASIS                     STO-3G
GEOM_OPT_MAX_CYCLES       100
GEOM_OPT_TOL_GRADIENT     300
GEOM_OPT_TOL_DISPLACEMENT 1200
GEOM_OPT_TOL_ENERGY       100
SYMMETRY                  False
THRESH                    12
SCF_CONVERGENCE           8
MAX_SUB_FILE_NUM          128
MEM_STATIC                400
MEM_TOTAL                 4000
$end
--------------------------------------------------------------

   15   -1510.1496184281      6.97E-09 Convergence criterion met
 Total energy in the final basis set = -1510.14961843
   13   -1510.2196338874      9.19E-09 Convergence criterion met
 Total energy in the final basis set = -1510.21963389
   13   -1510.2575797179      9.37E-09 Convergence criterion met
 Total energy in the final basis set = -1510.25757972
   14   -1510.2754971472      6.25E-09 Convergence criterion met
 Total energy in the final basis set = -1510.27549715
   13   -1510.2826485709      7.58E-09 Convergence criterion met
 Total energy in the final basis set = -1510.28264857
    2   -1510.2826485710      3.37E-09 Convergence criterion met
 Total energy in the final basis set = -1510.28264857
   13   -1510.2856365727      5.30E-09 Convergence criterion met
 Total energy in the final basis set = -1510.28563657
   13   -1510.2864880865      3.75E-09 Convergence criterion met
   11   -1510.2887537050      4.81E-09 Convergence criterion met
 Total energy in the final basis set = -1510.28875370
   10   -1510.2887801688      7.68E-09 Convergence criterion met
 Total energy in the final basis set = -1510.28878017
   11   -1510.2888039569      3.32E-09 Convergence criterion met
 Total energy in the final basis set = -1510.28880396
   10   -1510.2888091968      8.97E-09 Convergence criterion met
 Total energy in the final basis set = -1510.28880920
    9   -1510.2888116267      4.47E-09 Convergence criterion met
 Total energy in the final basis set = -1510.28881163
    9   -1510.2888058935      4.13E-09 Convergence criterion met
 Total energy in the final basis set = -1510.28880589

             Standard Nuclear Orientation (Angstroms)
    I     Atom           X                Y                Z
 ----------------------------------------------------------------
    1      O       4.5190559845    -1.3511714197    -1.0099900142
    2      C       4.6085171195    -0.3217273197    -0.3046880077
    3      C       3.7193351107     0.9673306680    -0.4331229485
    4      C       2.1807183273     0.6403436851    -0.6422172999
    5      C       1.8489296029    -0.8738190839    -0.4233351739
    6      O       1.1543410717    -1.3596722209    -1.5804699947
    7      C       0.7990334772    -2.7889089031    -1.3992096691
    8      C      -0.7549209599    -2.9202473231    -1.5156936134
    9      O      -1.3442556253    -2.3946956839    -0.2572467038
   10      C      -2.0740777814    -1.1943427796    -0.5067227557
   11      C      -2.7049175934    -0.7109376737     0.8401775187
   12      C      -3.3396358347     0.7334127055     0.7277310770
   13      C      -3.0565516405     1.4579293958    -0.6394238598
   14      O      -3.8954766536     1.7967355193    -1.5001093060
   15      O       5.5884650980    -0.1398031793     0.7190969880
   16      O      -1.6613052589     1.8065438014    -0.6864268476
   17      O      -2.2182836895    -0.6753213391    -1.6378415312
   18      C      -1.3502611662     2.3686762815    -2.0193246328
   19      C      -4.0015689002    -1.5749900434     1.1640098308
   20      C      -4.4739074694    -1.2527182661     2.6374794431
   21      C      -5.1534902978     0.1542183912     2.4414218473
   22      C      -4.8808209099     0.4075517789     0.9085651246
   23      O      -5.0304510351    -0.9410721115     0.3106380179
   24      H      -1.9489662892    -0.7842526644     1.6424295047
   25      H      -2.9638386942     1.3802695256     1.5410391445
   26      H      -3.8999986459    -2.6516738853     0.9254472210
   27      H      -5.1958870407    -2.0086058558     2.9851267603
   28      H      -3.6277126559    -1.2207632169     3.3423611702
   29      H      -6.2368040349     0.1080908875     2.6365998230
   30      H      -4.7115151772     0.9345883356     3.0810259979
   31      H      -5.5544979568     1.1278923456     0.4052665826
   32      O       2.0849917817    -1.5636879789     0.5934346880
   33      C       6.4272248984    -1.3553966448     0.8345763049
   34      C       3.6661386482     1.8660538845     0.8766053795
   35      C       3.2009398930     3.3111333801     0.4503509291
   36      C       1.6832750993     3.0502607877     0.1297217347
   37      C       1.5390099571     1.5221563493     0.5124816593
   38      O       2.4988396299     1.3425361186     1.6255887550
   39      H       4.1052670908     1.5498935314    -1.2903684469
   40      H       1.8246331246     0.9353256529    -1.6446920431
   41      H       6.9821611117    -1.5590790378    -0.1041279466
   42      H       4.5817731821     1.8128417485     1.4958115602
   43      H       3.3211083061     4.0167531910     1.2878008959
   44      H       3.7620111051     3.6926372004    -0.4176180181
   45      H       1.0188657051     3.6672092740     0.7550412177
   46      H       1.4398037769     3.2336678018    -0.9282609372
   47      H       0.5163603656     1.2129885633     0.8063842153
   48      H       5.8162031442    -2.2466838748     1.0840356252
   49      H       7.1430709952    -1.1543458106     1.6526482883
   50      H      -0.2749780984     2.6198135579    -2.0066864840
   51      H      -1.9425845513     3.2826686340    -2.2297623969
   52      H      -1.5477954152     1.6255116292    -2.8188051051
   53      H      -1.1404040031    -2.3290548320    -2.3743195412
   54      H      -1.0501564623    -3.9860311712    -1.6130341467
   55      H       1.1545891293    -3.1194175262    -0.3982535949
   56      H       1.2977765085    -3.3803815584    -2.1964468718
 ----------------------------------------------------------------

    9   -1510.2888067110      2.29E-09 Convergence criterion met
 Total energy in the final basis set = -1510.28880671
 Final energy is   -1510.28880671100
 **  OPTIMIZATION CONVERGED  **

                    Orbital Energies (a.u.)
 --------------------------------------------------------------

 Alpha MOs
 -- Occupied --
-18.939 -18.938 -18.929 -18.919 -18.886 -18.886 -18.884 -18.873
-18.871 -18.863 -10.105 -10.100 -10.096 -10.091 -10.072 -10.066
-10.065 -10.061 -10.059 -10.056 -10.056 -10.055 -10.040 -10.038
-10.036 -10.033 -10.020 -10.020 -10.019 -10.018  -1.020  -1.013
 -1.006  -0.998  -0.969  -0.968  -0.943  -0.937  -0.931  -0.925
 -0.763  -0.762  -0.728  -0.721  -0.714  -0.705  -0.696  -0.662
 -0.655  -0.618  -0.597  -0.576  -0.545  -0.543  -0.536  -0.536
 -0.512  -0.510  -0.487  -0.473  -0.461  -0.456  -0.453  -0.449
 -0.434  -0.430  -0.425  -0.416  -0.412  -0.411  -0.405  -0.402
 -0.399  -0.378  -0.372  -0.364  -0.360  -0.356  -0.354  -0.348
 -0.342  -0.340  -0.338  -0.333  -0.329  -0.324  -0.321  -0.311
 -0.309  -0.304  -0.302  -0.300  -0.290  -0.287  -0.277  -0.275
 -0.271  -0.255  -0.252  -0.246  -0.244  -0.233  -0.232  -0.188
 -0.178  -0.167  -0.164  -0.162  -0.157  -0.150  -0.144  -0.142
 -0.142

          Ground-State Mulliken Net Atomic Charges

     Atom                 Charge (a.u.)
  ----------------------------------------
      1 O                    -0.216193
      2 C                     0.212174
      3 C                    -0.078882
      4 C                    -0.078185
      5 C                     0.212780
      6 O                    -0.172453
      7 C                    -0.055911
      8 C                    -0.054851
      9 O                    -0.172536
     10 C                     0.216154
     11 C                    -0.077914
     12 C                    -0.081820
     13 C                     0.216413
     14 O                    -0.214879
     15 O                    -0.168002
     16 O                    -0.179895
     17 O                    -0.208495
     18 C                    -0.128828
     19 C                     0.025415
     20 C                    -0.143975
     21 C                    -0.143621
     22 C                     0.024499
     23 O                    -0.189635
     24 H                     0.088845
     25 H                     0.083138
     26 H                     0.084409
     27 H                     0.078345
     28 H                     0.074632
     29 H                     0.078092
     30 H                     0.073446
     31 H                     0.090656
     32 O                    -0.214664
     33 C                    -0.127225
     34 C                     0.023202
     35 C                    -0.143785
     36 C                    -0.142790
     37 C                     0.025490
     38 O                    -0.187872
     39 H                     0.084087
     40 H                     0.086212
     41 H                     0.088472
     42 H                     0.092981
     43 H                     0.077761
     44 H                     0.072402
     45 H                     0.079159
     46 H                     0.070672
     47 H                     0.088558
     48 H                     0.093642
     49 H                     0.091110
     50 H                     0.081528
     51 H                     0.086565
     52 H                     0.094281
     53 H                     0.106024
     54 H                     0.087770
     55 H                     0.106676
     56 H                     0.086821
  ----------------------------------------
  Sum of atomic charges =    -0.000000

                    Cartesian Multipole Moments
 -----------------------------------------------------------------
    Charge (ESU x 10^10)
                -0.0000
    Dipole Moment (Debye)
         X       2.0289      Y       0.4710      Z       0.7696
       Tot       2.2205
    Quadrupole Moments (Debye-Ang)
        XX    -159.2465     XY       4.4034     YY    -149.7899
        XZ     -12.3581     YZ       0.5803     ZZ    -160.9439

 Total job time:  59.49s(wall), 2834.51s(cpu)
        *  Thank you very much for using Q-Chem.  Have a nice day.  *
