 Q-Chem 5.0, Q-Chem, Inc., Pleasanton, CA (2017)
 Q-Chem 5.0.1 for Intel X86 EM64T Linux

User input:
--------------------------------------------------------------
$molecule
0  1
O -3.94934 -3.66094 2.70899
C -3.26408 -4.56952 2.26188
C -3.36658 -6.02376 2.66595
C -4.7781 -6.6002 2.86387
C -5.93283 -5.70889 2.46354
O -6.75133 -5.49981 3.53674
C -7.88014 -4.67402 3.2316
C -9.17449 -5.44764 3.4603
O -9.37436 -6.39238 2.39709
C -9.23309 -7.69642 2.74156
C -9.4939 -8.64025 1.59186
C -9.20062 -10.11821 1.88835
C -9.04178 -10.47975 3.35148
O -9.7297 -11.28575 3.96116
O -2.43932 -4.2828 1.21872
O -7.83071 -10.16108 3.8916
O -8.9271 -8.00938 3.88006
C -7.41152 -10.52973 5.15325
C -10.96514 -8.70428 1.15083
C -11.03831 -9.1613 -0.3042
C -10.61844 -10.61116 -0.16584
C -10.51961 -10.7258 1.36117
O -11.48503 -9.81709 1.83556
H -8.85667 -8.28407 0.75007
H -8.30912 -10.50697 1.3479
H -11.51023 -7.74477 1.28636
H -12.11179 -9.12791 -0.59918
H -10.44235 -8.5625 -1.02616
H -11.43835 -11.25142 -0.56054
H -9.65628 -10.8767 -0.6551
H -10.65332 -11.7858 1.6702
O -6.08278 -5.25012 1.33611
C -2.26926 -3.02505 0.67848
C -2.81386 -7.01972 1.62179
C -2.47296 -8.35374 2.29134
C -3.85794 -8.92197 2.51619
C -4.71704 -7.80935 1.91458
O -3.93864 -7.33899 0.83932
H -2.78683 -6.09657 3.61298
H -4.9321 -6.93276 3.91714
H -1.87688 -2.32772 1.44926
H -1.92142 -6.64908 1.07396
H -1.94759 -8.99512 1.54813
H -1.84534 -8.25289 3.2029
H -3.96782 -9.83917 1.89508
H -4.11485 -9.15214 3.57283
H -5.72705 -8.19987 1.65649
H -3.23523 -2.64424 0.28323
H -1.54018 -3.08313 -0.1555
H -6.392 -10.12875 5.3281
H -7.38038 -11.63679 5.23936
H -8.09756 -10.11149 5.92051
H -9.17793 -5.85453 4.49556
H -10.02499 -4.73438 3.41929
H -7.91357 -4.22254 2.21509
H -7.85712 -3.82319 3.94544
$end

$opt
CONSTRAINT
tors           1           2           3           4     +41.003
tors           3           4           5           6    -121.707
tors           4           5           6           7    -179.345
tors           5           6           7           8    +118.604
tors           6           7           8           9     -74.937
tors           7           8           9          10    +110.044
tors           8           9          10          11    +178.357
tors           9          10          11          12    +173.718
tors          11          12          13          14    +120.354
ENDCONSTRAINT
$end

$rem
JOBTYPE                   OPT
METHOD                    B3LYP
DFT_D                     d3_op
BASIS                     STO-3G
GEOM_OPT_MAX_CYCLES       100
GEOM_OPT_TOL_GRADIENT     300
GEOM_OPT_TOL_DISPLACEMENT 1200
GEOM_OPT_TOL_ENERGY       100
SYMMETRY                  False
THRESH                    12
SCF_CONVERGENCE           8
MAX_SUB_FILE_NUM          128
MEM_STATIC                400
MEM_TOTAL                 4000
$end
--------------------------------------------------------------

   15   -1510.1524723097      6.87E-09 Convergence criterion met
 Total energy in the final basis set = -1510.15247231
   14   -1510.2221999620      4.51E-09 Convergence criterion met
 Total energy in the final basis set = -1510.22219996
   14   -1510.2586183761      7.39E-09 Convergence criterion met
 Total energy in the final basis set = -1510.25861838
   14   -1510.2744798326      2.05E-09 Convergence criterion met
 Total energy in the final basis set = -1510.27447983
   13   -1510.2816567597      7.99E-09 Convergence criterion met
 Total energy in the final basis set = -1510.28165676
   13   -1510.2847236732      4.39E-09 Convergence criterion met
 Total energy in the final basis set = -1510.28472367
   13   -1510.2864865845      2.67E-09 Convergence criterion met
 Total energy in the final basis set = -1510.28648658
   12   -1510.2872900104      9.93E-09 Convergence criterion met
   11   -1510.2887727213      8.16E-09 Convergence criterion met
 Total energy in the final basis set = -1510.28877272
   11   -1510.2888270852      6.75E-09 Convergence criterion met
 Total energy in the final basis set = -1510.28882709
   11   -1510.2888490423      4.64E-09 Convergence criterion met
 Total energy in the final basis set = -1510.28884904
   11   -1510.2888722985      4.66E-09 Convergence criterion met
 Total energy in the final basis set = -1510.28887230
    9   -1510.2888782656      8.16E-09 Convergence criterion met
 Total energy in the final basis set = -1510.28887827
    9   -1510.2888799410      4.12E-09 Convergence criterion met
 Total energy in the final basis set = -1510.28887994

             Standard Nuclear Orientation (Angstroms)
    I     Atom           X                Y                Z
 ----------------------------------------------------------------
    1      O       4.4112222092    -1.3348682193    -1.0190576475
    2      C       4.5604236952    -0.3084720815    -0.3190218413
    3      C       3.6896539961     0.9969291565    -0.3940398690
    4      C       2.1405893804     0.6955361781    -0.5684887170
    5      C       1.8005939203    -0.8228520932    -0.3961584704
    6      O       1.1697972981    -1.2920445309    -1.5972160549
    7      C       0.8219552715    -2.7267903285    -1.4552506928
    8      C      -0.7296116474    -2.8857042745    -1.5803068207
    9      O      -1.3441110106    -2.4060394559    -0.3159068339
   10      C      -2.0475631277    -1.1835660166    -0.5316931157
   11      C      -2.7082913361    -0.7462413063     0.8175534911
   12      C      -3.3797712721     0.6816561519     0.7197514105
   13      C      -3.0587598179     1.4638712678    -0.6066137458
   14      O      -3.8821144516     1.8714160050    -1.4528345422
   15      O       5.6029365479    -0.1456390265     0.6440271353
   16      O      -1.6613015098     1.8074864898    -0.6093098730
   17      O      -2.1675241774    -0.6214180020    -1.6450458653
   18      C      -1.3278810475     2.4491221121    -1.9000508170
   19      C      -3.9888265569    -1.6509048044     1.0884854321
   20      C      -4.5220096450    -1.3630711926     2.5487027776
   21      C      -5.2430704229     0.0220386785     2.3455041837
   22      C      -4.9171527389     0.3084760875     0.8290136530
   23      O      -5.0041328025    -1.0340940535     0.2062952390
   24      H      -1.9661897932    -0.8190848150     1.6325312546
   25      H      -3.0592128351     1.3119584899     1.5691387569
   26      H      -3.8475694265    -2.7207052809     0.8393552998
   27      H      -5.2275973494    -2.1479242218     2.8641188326
   28      H      -3.7009466316    -1.3094827227     3.2815534964
   29      H      -6.3311438425    -0.0654421722     2.4949558520
   30      H      -4.8553655311     0.8069667002     3.0142635601
   31      H      -5.5891693711     1.0187564704     0.3092714556
   32      O       1.9856883836    -1.5296873756     0.6195786140
   33      C       6.4276220114    -1.3749900783     0.7055678048
   34      C       3.6850146911     1.8594605316     0.9403962258
   35      C       3.2181319867     3.3192737412     0.5710861403
   36      C       1.6869114280     3.0813380614     0.3015493572
   37      C       1.5445225530     1.5419413670     0.6355748982
   38      O       2.5389537807     1.3207497279     1.7104393786
   39      H       4.0631163445     1.5950670215    -1.2462643703
   40      H       1.7616265018     1.0294158800    -1.5500015725
   41      H       6.9234439967    -1.5827322717    -0.2647638294
   42      H       4.6193323165     1.7838396659     1.5286537151
   43      H       3.3771829197     4.0008093971     1.4218632501
   44      H       3.7494886557     3.7193913787    -0.3071877253
   45      H       1.0537162920     3.6800804509     0.9751105206
   46      H       1.4034404626     3.3060003529    -0.7383220264
   47      H       0.5313702154     1.2272904382     0.9547459996
   48      H       5.8181107814    -2.2578274753     0.9866383886
   49      H       7.1932181481    -1.1892425787     1.4810376920
   50      H      -0.2544201656     2.7031598525    -1.8521580074
   51      H      -1.9204092818     3.3719453969    -2.0670367897
   52      H      -1.5061020885     1.7551215736    -2.7467875163
   53      H      -1.1217545041    -2.2850973752    -2.4292794878
   54      H      -0.9995099714    -3.9553855657    -1.7030325914
   55      H       1.1756453515    -3.0785960470    -0.4608905355
   56      H       1.3308227466    -3.2911211012    -2.2654287785
 ----------------------------------------------------------------

    9   -1510.2888803470      2.90E-09 Convergence criterion met
 Total energy in the final basis set = -1510.28888035
 Final energy is   -1510.28888034701
 **  OPTIMIZATION CONVERGED  **

                    Orbital Energies (a.u.)
 --------------------------------------------------------------

 Alpha MOs
 -- Occupied --
-18.939 -18.939 -18.929 -18.919 -18.886 -18.885 -18.884 -18.875
-18.870 -18.862 -10.105 -10.101 -10.095 -10.091 -10.071 -10.066
-10.065 -10.060 -10.059 -10.057 -10.055 -10.055 -10.039 -10.038
-10.036 -10.032 -10.020 -10.020 -10.019 -10.018  -1.020  -1.014
 -1.005  -0.998  -0.969  -0.968  -0.943  -0.938  -0.930  -0.924
 -0.763  -0.762  -0.727  -0.722  -0.713  -0.705  -0.696  -0.662
 -0.655  -0.617  -0.597  -0.576  -0.545  -0.542  -0.536  -0.535
 -0.511  -0.510  -0.487  -0.473  -0.461  -0.455  -0.452  -0.449
 -0.434  -0.430  -0.425  -0.416  -0.412  -0.412  -0.404  -0.402
 -0.399  -0.378  -0.372  -0.364  -0.360  -0.355  -0.354  -0.349
 -0.342  -0.339  -0.338  -0.332  -0.329  -0.323  -0.322  -0.311
 -0.310  -0.305  -0.302  -0.300  -0.291  -0.286  -0.277  -0.276
 -0.271  -0.256  -0.252  -0.246  -0.243  -0.233  -0.233  -0.188
 -0.179  -0.166  -0.163  -0.161  -0.158  -0.150  -0.144  -0.142
 -0.141

          Ground-State Mulliken Net Atomic Charges

     Atom                 Charge (a.u.)
  ----------------------------------------
      1 O                    -0.215540
      2 C                     0.212122
      3 C                    -0.078631
      4 C                    -0.078320
      5 C                     0.212745
      6 O                    -0.171901
      7 C                    -0.056335
      8 C                    -0.054860
      9 O                    -0.172267
     10 C                     0.216576
     11 C                    -0.077716
     12 C                    -0.081836
     13 C                     0.216648
     14 O                    -0.216209
     15 O                    -0.167876
     16 O                    -0.179742
     17 O                    -0.208008
     18 C                    -0.128663
     19 C                     0.025236
     20 C                    -0.144124
     21 C                    -0.143427
     22 C                     0.024243
     23 O                    -0.190349
     24 H                     0.088905
     25 H                     0.082986
     26 H                     0.084731
     27 H                     0.078302
     28 H                     0.074512
     29 H                     0.078015
     30 H                     0.073317
     31 H                     0.091063
     32 O                    -0.215112
     33 C                    -0.127322
     34 C                     0.023205
     35 C                    -0.143846
     36 C                    -0.142798
     37 C                     0.025872
     38 O                    -0.187734
     39 H                     0.084352
     40 H                     0.086312
     41 H                     0.088704
     42 H                     0.092703
     43 H                     0.077811
     44 H                     0.072414
     45 H                     0.079064
     46 H                     0.070766
     47 H                     0.088484
     48 H                     0.093629
     49 H                     0.091370
     50 H                     0.081140
     51 H                     0.086658
     52 H                     0.093806
     53 H                     0.105370
     54 H                     0.088090
     55 H                     0.106620
     56 H                     0.086844
  ----------------------------------------
  Sum of atomic charges =    -0.000000

                    Cartesian Multipole Moments
 -----------------------------------------------------------------
    Charge (ESU x 10^10)
                -0.0000
    Dipole Moment (Debye)
         X       2.1128      Y       0.4460      Z       0.7447
       Tot       2.2842
    Quadrupole Moments (Debye-Ang)
        XX    -157.8168     XY       4.3140     YY    -149.9902
        XZ     -12.7229     YZ       1.0322     ZZ    -161.3379

 Total job time:  56.26s(wall), 2680.15s(cpu)
        *  Thank you very much for using Q-Chem.  Have a nice day.  *
