 Q-Chem 5.0, Q-Chem, Inc., Pleasanton, CA (2017)
 Q-Chem 5.0.1 for Intel X86 EM64T Linux

User input:
--------------------------------------------------------------
$molecule
0  1
O 4.4112222092 -1.3348682193 -1.0190576475
C 4.5604236952 -0.3084720815 -0.3190218413
C 3.6896539961 0.9969291565 -0.394039869
C 2.1405893804 0.6955361781 -0.568488717
C 1.8005939203 -0.8228520932 -0.3961584704
O 1.1697972981 -1.2920445309 -1.5972160549
C 0.8219552715 -2.7267903285 -1.4552506928
C -0.7296116474 -2.8857042745 -1.5803068207
O -1.3441110106 -2.4060394559 -0.3159068339
C -2.0475631277 -1.1835660166 -0.5316931157
C -2.7082913361 -0.7462413063 0.8175534911
C -3.3797712721 0.6816561519 0.7197514105
C -3.0587598179 1.4638712678 -0.6066137458
O -3.8821144516 1.871416005 -1.4528345422
O 5.6029365479 -0.1456390265 0.6440271353
O -1.6613015098 1.8074864898 -0.609309873
O -2.1675241774 -0.621418002 -1.6450458653
C -1.3278810475 2.4491221121 -1.900050817
C -3.9888265569 -1.6509048044 1.0884854321
C -4.522009645 -1.3630711926 2.5487027776
C -5.2430704229 0.0220386785 2.3455041837
C -4.9171527389 0.3084760875 0.829013653
O -5.0041328025 -1.0340940535 0.206295239
H -1.9661897932 -0.819084815 1.6325312546
H -3.0592128351 1.3119584899 1.5691387569
H -3.8475694265 -2.7207052809 0.8393552998
H -5.2275973494 -2.1479242218 2.8641188326
H -3.7009466316 -1.3094827227 3.2815534964
H -6.3311438425 -0.0654421722 2.494955852
H -4.8553655311 0.8069667002 3.0142635601
H -5.5891693711 1.0187564704 0.3092714556
O 1.9856883836 -1.5296873756 0.619578614
C 6.4276220114 -1.3749900783 0.7055678048
C 3.6850146911 1.8594605316 0.9403962258
C 3.2181319867 3.3192737412 0.5710861403
C 1.686911428 3.0813380614 0.3015493572
C 1.544522553 1.541941367 0.6355748982
O 2.5389537807 1.3207497279 1.7104393786
H 4.0631163445 1.5950670215 -1.2462643703
H 1.7616265018 1.02941588 -1.5500015725
H 6.9234439967 -1.5827322717 -0.2647638294
H 4.6193323165 1.7838396659 1.5286537151
H 3.3771829197 4.0008093971 1.4218632501
H 3.7494886557 3.7193913787 -0.3071877253
H 1.053716292 3.6800804509 0.9751105206
H 1.4034404626 3.3060003529 -0.7383220264
H 0.5313702154 1.2272904382 0.9547459996
H 5.8181107814 -2.2578274753 0.9866383886
H 7.1932181481 -1.1892425787 1.481037692
H -0.2544201656 2.7031598525 -1.8521580074
H -1.9204092818 3.3719453969 -2.0670367897
H -1.5061020885 1.7551215736 -2.7467875163
H -1.1217545041 -2.2850973752 -2.4292794878
H -0.9995099714 -3.9553855657 -1.7030325914
H 1.1756453515 -3.078596047 -0.4608905355
H 1.3308227466 -3.2911211012 -2.2654287785
$end

$rem
JOBTYPE                   OPT
METHOD                    B3LYP
DFT_D                     d3_op
BASIS                     STO-3G
GEOM_OPT_MAX_CYCLES       100
GEOM_OPT_TOL_GRADIENT     300
GEOM_OPT_TOL_DISPLACEMENT 1200
GEOM_OPT_TOL_ENERGY       100
SYMMETRY                  False
THRESH                    12
SCF_CONVERGENCE           8
MAX_SUB_FILE_NUM          128
MEM_STATIC                400
MEM_TOTAL                 4000
$end
--------------------------------------------------------------

   16   -1510.2887151880      7.69E-09 Convergence criterion met
 Total energy in the final basis set = -1510.28871519
   14   -1510.2903497753      3.26E-09 Convergence criterion met
 Total energy in the final basis set = -1510.29034978
   14   -1510.2895423513      3.58E-09 Convergence criterion met
 Total energy in the final basis set = -1510.28954235
   14   -1510.2884611754      1.54E-09 Convergence criterion met
 Total energy in the final basis set = -1510.28846118
   15   -1510.2877209216      5.73E-09 Convergence criterion met
 Total energy in the final basis set = -1510.28772092
   14   -1510.2864774804      8.16E-09 Convergence criterion met
 Total energy in the final basis set = -1510.28647748
   14   -1510.2891455887      4.78E-09 Convergence criterion met
 Total energy in the final basis set = -1510.28914559
   14   -1510.2907620221      7.50E-09 Convergence criterion met
   13   -1510.2976945862      3.41E-09 Convergence criterion met
 Total energy in the final basis set = -1510.29769459
   12   -1510.2976891719      4.94E-09 Convergence criterion met
 Total energy in the final basis set = -1510.29768917
   12   -1510.2977176901      2.45E-09 Convergence criterion met
 Total energy in the final basis set = -1510.29771769
   12   -1510.2977003962      9.47E-09 Convergence criterion met
 Total energy in the final basis set = -1510.29770040
   12   -1510.2977228278      7.83E-09 Convergence criterion met
 Total energy in the final basis set = -1510.29772283
   10   -1510.2977245955      9.66E-09 Convergence criterion met
 Total energy in the final basis set = -1510.29772460

             Standard Nuclear Orientation (Angstroms)
    I     Atom           X                Y                Z
 ----------------------------------------------------------------
    1      O       3.4147905876    -1.7686834454     0.3872430009
    2      C       3.9295955430    -0.6331376156     0.5025667934
    3      C       3.4481388958     0.6956019578    -0.1687775269
    4      C       2.0383687146     0.5661683581    -0.8770607745
    5      C       1.3136384199    -0.7903439198    -0.5552626218
    6      O       1.4038613302    -1.6298295039    -1.7187786040
    7      C       0.8211837122    -2.9664744542    -1.4580024904
    8      C      -0.7334094723    -3.0322121094    -1.7154262972
    9      O      -1.4916978823    -2.5675048545    -0.5301962050
   10      C      -1.8113160217    -1.1809208312    -0.6509894193
   11      C      -2.3673679926    -0.6724377344     0.7183553877
   12      C      -2.9170653292     0.8087768126     0.6446715024
   13      C      -2.8388592680     1.4502729148    -0.7877477311
   14      O      -3.7400517192     1.4951716710    -1.6502044745
   15      O       5.0976652312    -0.3624610222     1.2789382273
   16      O      -1.5814435625     2.1494367282    -0.9091598245
   17      O      -1.6543757890    -0.5070982907    -1.6958194116
   18      C      -1.4462984684     2.6890730733    -2.2799891157
   19      C      -3.6651477671    -1.4610371661     1.1826788577
   20      C      -3.9099158104    -1.1520087554     2.7114215978
   21      C      -4.4598316253     0.3207326815     2.6386315012
   22      C      -4.4262744900     0.5833173686     1.0815448303
   23      O      -4.7609178909    -0.7377024119     0.4986296525
   24      H      -1.5450341740    -0.7686060867     1.4516025733
   25      H      -2.3729595887     1.4635952157     1.3479156066
   26      H      -3.6659753290    -2.5332133791     0.9059024987
   27      H      -4.6597065099    -1.8434765736     3.1277809390
   28      H      -2.9847092588    -1.2334839881     3.3039496211
   29      H      -5.4922242642     0.3864013927     3.0173308935
   30      H      -3.8324286523     1.0366326939     3.1933530196
   31      H      -5.1284231899     1.3545409390     0.7100545592
   32      O       0.6783131040    -1.0815679383     0.4808015508
   33      C       5.5749378896    -1.6069045517     1.9267709741
   34      C       3.1625150387     1.8641958167     0.8756600449
   35      C       3.2105817364     3.2283318770     0.0869017555
   36      C       1.8806390990     3.1294667241    -0.7460409443
   37      C       1.2618830816     1.7758199514    -0.2073573703
   38      O       1.7263230032     1.7107060856     1.1995030009
   39      H       4.2262792548     1.0055126052    -0.8909294222
   40      H       2.1240803813     0.6651370352    -1.9730755636
   41      H       5.8404258433    -2.3805591730     1.1776152245
   42      H       3.7845183465     1.8164616791     1.7904774227
   43      H       3.1858773092     4.0765214842     0.7896611206
   44      H       4.1086722112     3.3185138963    -0.5448580580
   45      H       1.2059077310     3.9733516785    -0.5317509284
   46      H       2.0657137593     3.0927921709    -1.8315863796
   47      H       0.1491316509     1.7235467834    -0.2835320061
   48      H       4.8112529555    -2.0275342146     2.6124720263
   49      H       6.4750594419    -1.3242721489     2.5028963157
   50      H      -0.5309309956     3.3072660890    -2.2827587800
   51      H      -2.3210389858     3.3099859090    -2.5589163904
   52      H      -1.3433373950     1.8675371862    -3.0183987453
   53      H      -0.9967159169    -2.4168982128    -2.6026185493
   54      H      -1.0309028878    -4.0875154139    -1.8834252227
   55      H       1.0324921915    -3.2903196307    -0.4163111573
   56      H       1.3266196483    -3.6530752837    -2.1679963422
 ----------------------------------------------------------------

   10   -1510.2977246472      5.76E-09 Convergence criterion met
 Total energy in the final basis set = -1510.29772465
 Final energy is   -1510.29772464716
 **  OPTIMIZATION CONVERGED  **

                    Orbital Energies (a.u.)
 --------------------------------------------------------------

 Alpha MOs
 -- Occupied --
-18.942 -18.934 -18.925 -18.921 -18.883 -18.881 -18.879 -18.879
-18.862 -18.859 -10.105 -10.102 -10.091 -10.091 -10.069 -10.069
-10.067 -10.055 -10.055 -10.054 -10.053 -10.039 -10.036 -10.031
-10.029 -10.028 -10.015 -10.015 -10.014 -10.012  -1.019  -1.016
 -0.999  -0.996  -0.964  -0.962  -0.942  -0.939  -0.926  -0.925
 -0.758  -0.757  -0.722  -0.717  -0.710  -0.700  -0.691  -0.665
 -0.654  -0.616  -0.593  -0.574  -0.541  -0.539  -0.532  -0.530
 -0.509  -0.506  -0.481  -0.473  -0.456  -0.453  -0.448  -0.445
 -0.429  -0.427  -0.426  -0.416  -0.413  -0.405  -0.403  -0.400
 -0.392  -0.377  -0.374  -0.362  -0.357  -0.352  -0.349  -0.345
 -0.344  -0.336  -0.328  -0.326  -0.325  -0.319  -0.319  -0.310
 -0.309  -0.301  -0.299  -0.297  -0.294  -0.277  -0.273  -0.271
 -0.271  -0.257  -0.249  -0.244  -0.239  -0.228  -0.225  -0.187
 -0.183  -0.167  -0.160  -0.158  -0.155  -0.142  -0.141  -0.139
 -0.136

          Ground-State Mulliken Net Atomic Charges

     Atom                 Charge (a.u.)
  ----------------------------------------
      1 O                    -0.210340
      2 C                     0.213097
      3 C                    -0.079483
      4 C                    -0.081293
      5 C                     0.217502
      6 O                    -0.174615
      7 C                    -0.050820
      8 C                    -0.054052
      9 O                    -0.169087
     10 C                     0.221451
     11 C                    -0.079337
     12 C                    -0.082479
     13 C                     0.218930
     14 O                    -0.214229
     15 O                    -0.169001
     16 O                    -0.175544
     17 O                    -0.214905
     18 C                    -0.129018
     19 C                     0.024664
     20 C                    -0.143494
     21 C                    -0.144127
     22 C                     0.025396
     23 O                    -0.189519
     24 H                     0.102771
     25 H                     0.086795
     26 H                     0.087153
     27 H                     0.076932
     28 H                     0.075786
     29 H                     0.076888
     30 H                     0.073901
     31 H                     0.085958
     32 O                    -0.223746
     33 C                    -0.128051
     34 C                     0.024780
     35 C                    -0.143307
     36 C                    -0.146393
     37 C                     0.010343
     38 O                    -0.191457
     39 H                     0.085071
     40 H                     0.084009
     41 H                     0.089795
     42 H                     0.085256
     43 H                     0.076411
     44 H                     0.071510
     45 H                     0.074982
     46 H                     0.069245
     47 H                     0.107551
     48 H                     0.091765
     49 H                     0.091874
     50 H                     0.086289
     51 H                     0.089881
     52 H                     0.092683
     53 H                     0.100244
     54 H                     0.088333
     55 H                     0.099775
     56 H                     0.087275
  ----------------------------------------
  Sum of atomic charges =     0.000000

                    Cartesian Multipole Moments
 -----------------------------------------------------------------
    Charge (ESU x 10^10)
                 0.0000
    Dipole Moment (Debye)
         X       3.3564      Y      -0.0946      Z       0.4782
       Tot       3.3916
    Quadrupole Moments (Debye-Ang)
        XX    -158.0743     XY      -1.2989     YY    -149.1494
        XZ      -7.0086     YZ      -0.7359     ZZ    -155.9244

 Total job time:  110.32s(wall), 5258.88s(cpu)
        *  Thank you very much for using Q-Chem.  Have a nice day.  *
