 Q-Chem 5.0, Q-Chem, Inc., Pleasanton, CA (2017)
 Q-Chem 5.0.1 for Intel X86 EM64T Linux

User input:
--------------------------------------------------------------
$molecule
0  1
O -3.94934 -3.66094 2.70899
C -3.26408 -4.56952 2.26188
C -3.36658 -6.02376 2.66595
C -4.76575 -6.56065 3.00936
C -5.92925 -5.63252 2.73931
O -6.69273 -5.50594 3.8647
C -7.82345 -4.64675 3.68439
C -9.11662 -5.44082 3.83699
O -9.33788 -6.24517 2.66782
C -9.17079 -7.58014 2.8383
C -9.53259 -8.38004 1.60951
C -9.16172 -9.86886 1.67393
C -8.82487 -10.40699 3.05003
O -9.41862 -11.30888 3.62328
O -2.19455 -4.23707 1.49016
O -7.64442 -9.97622 3.57513
O -9.29226 -8.05679 3.96008
C -7.11369 -10.41396 4.77017
C -11.05063 -8.47625 1.35627
C -11.30008 -8.73298 -0.12817
C -10.79351 -10.15583 -0.25639
C -10.50304 -10.4772 1.21587
O -11.43514 -9.70156 1.92959
H -9.05275 -7.87086 0.74232
H -8.31324 -10.12799 1.00306
H -11.6135 -7.57895 1.69457
H -12.40494 -8.73393 -0.26972
H -10.84436 -8.00309 -0.83134
H -11.6196 -10.78681 -0.65284
H -9.88155 -10.28114 -0.87959
H -10.55087 -11.57569 1.38339
O -6.17454 -5.14324 1.64136
C -1.89838 -2.95499 1.07641
C -3.02945 -6.97295 1.48469
C -2.61347 -8.34641 2.0146
C -3.94901 -8.88837 2.47338
C -4.87107 -7.74687 2.03874
O -4.2664 -7.2443 0.87492
H -2.60925 -6.18919 3.46415
H -4.81569 -6.90462 4.06837
H -1.72373 -2.29866 1.95558
H -2.23367 -6.59031 0.81026
H -2.27075 -8.95045 1.14388
H -1.81407 -8.33002 2.78626
H -4.17764 -9.80732 1.88877
H -4.02776 -9.10228 3.56112
H -5.91656 -8.11369 1.9291
H -2.732 -2.54949 0.46392
H -0.97789 -2.97605 0.45777
H -6.15159 -9.8928 4.95225
H -6.92626 -11.50809 4.72815
H -7.80951 -10.18264 5.60469
H -9.07578 -5.97805 4.80993
H -9.96867 -4.73205 3.90958
H -7.86756 -4.06981 2.73362
H -7.78221 -3.88988 4.49642
$end

$opt
CONSTRAINT
tors           1           2           3           4     +34.661
tors           3           4           5           6    -127.193
tors           4           5           6           7    -179.580
tors           5           6           7           8    +115.576
tors           6           7           8           9     -74.937
tors           7           8           9          10    +108.841
tors           8           9          10          11    +175.020
tors           9          10          11          12    +171.122
tors          11          12          13          14    +119.836
ENDCONSTRAINT
$end

$rem
JOBTYPE                   OPT
METHOD                    B3LYP
DFT_D                     d3_op
BASIS                     STO-3G
GEOM_OPT_MAX_CYCLES       100
GEOM_OPT_TOL_GRADIENT     300
GEOM_OPT_TOL_DISPLACEMENT 1200
GEOM_OPT_TOL_ENERGY       100
SYMMETRY                  False
THRESH                    12
SCF_CONVERGENCE           8
MAX_SUB_FILE_NUM          128
MEM_STATIC                400
MEM_TOTAL                 4000
$end
--------------------------------------------------------------

   15   -1510.1472404053      7.04E-09 Convergence criterion met
 Total energy in the final basis set = -1510.14724041
   14   -1510.2176579805      6.13E-09 Convergence criterion met
 Total energy in the final basis set = -1510.21765798
   13   -1510.2561171901      8.19E-09 Convergence criterion met
 Total energy in the final basis set = -1510.25611719
   14   -1510.2743089430      5.10E-09 Convergence criterion met
 Total energy in the final basis set = -1510.27430894
   14   -1510.2808436475      2.23E-09 Convergence criterion met
 Total energy in the final basis set = -1510.28084365
    2   -1510.2808436473      4.87E-09 Convergence criterion met
 Total energy in the final basis set = -1510.28084365
   13   -1510.2847694386      6.17E-09 Convergence criterion met
 Total energy in the final basis set = -1510.28476944
    2   -1510.2847694386      4.09E-09 Convergence criterion met
   11   -1510.2892859170      8.22E-09 Convergence criterion met
 Total energy in the final basis set = -1510.28928592
   11   -1510.2893403681      8.10E-09 Convergence criterion met
 Total energy in the final basis set = -1510.28934037
   11   -1510.2893779327      5.40E-09 Convergence criterion met
 Total energy in the final basis set = -1510.28937793
   11   -1510.2894027770      3.48E-09 Convergence criterion met
 Total energy in the final basis set = -1510.28940278
   10   -1510.2894300215      8.82E-09 Convergence criterion met
 Total energy in the final basis set = -1510.28943002
   11   -1510.2894347085      3.35E-09 Convergence criterion met
 Total energy in the final basis set = -1510.28943471

             Standard Nuclear Orientation (Angstroms)
    I     Atom           X                Y                Z
 ----------------------------------------------------------------
    1      O       4.4164846554    -1.4313165670    -0.8358064579
    2      C       4.5551645840    -0.3554227911    -0.2122081657
    3      C       3.6929532481     0.9431637776    -0.3948229136
    4      C       2.1730333682     0.6427294306    -0.7313688236
    5      C       1.7974390354    -0.8515849862    -0.4483765160
    6      O       1.1918090413    -1.4150909125    -1.6227932338
    7      C       0.8228714758    -2.8274993795    -1.3623672809
    8      C      -0.7327160045    -2.9911848335    -1.4319807821
    9      O      -1.3106549175    -2.4121693695    -0.1922478357
   10      C      -1.9965506900    -1.1929519574    -0.4720462755
   11      C      -2.6851506563    -0.7070064649     0.8456703428
   12      C      -3.2892791168     0.7484800581     0.7158980696
   13      C      -2.9522982197     1.4748006326    -0.6370678980
   14      O      -3.7717701271     1.8873549886    -1.4846244864
   15      O       5.5803238113    -0.1200520992     0.7553438140
   16      O      -1.5419967238     1.7587200455    -0.6826497782
   17      O      -2.0996507428    -0.6818043673    -1.6111353407
   18      C      -1.2183073597     2.3302018654    -2.0094012164
   19      C      -4.0104706287    -1.5525000337     1.0969720021
   20      C      -4.5404108416    -1.2456342699     2.5541630861
   21      C      -5.1749096459     0.1820292287     2.3551811833
   22      C      -4.8411906219     0.4500255838     0.8370579205
   23      O      -4.9920398319    -0.8864438948     0.2130663163
   24      H      -1.9736701230    -0.8001379119     1.6852983123
   25      H      -2.9330009380     1.3871747464     1.5445261152
   26      H      -3.9172081895    -2.6266851107     0.8443474895
   27      H      -5.2971722661    -1.9883187309     2.8528987763
   28      H      -3.7270914995    -1.2497208169     3.2975168994
   29      H      -6.2652203806     0.1635601606     2.5120346923
   30      H      -4.7345624232     0.9410773334     3.0211304706
   31      H      -5.4813090271     1.1904966415     0.3192735405
   32      O       1.9377587702    -1.4702842954     0.6300501711
   33      C       6.4037521219    -1.3399795314     0.9238865314
   34      C       3.5459791516     1.8337671485     0.9171477369
   35      C       3.2062390976     3.3011214378     0.4547214339
   36      C       1.7367080274     3.1040795097    -0.0708958666
   37      C       1.4574075423     1.5938381894     0.3170336889
   38      O       2.2757835729     1.3798083505     1.5334597483
   39      H       4.1545406997     1.5337730145    -1.2080952760
   40      H       1.9178227421     0.8834719859    -1.7779376436
   41      H       6.9144482031    -1.6214670280    -0.0197135927
   42      H       4.3871973336     1.7284696539     1.6285719382
   43      H       3.2388248130     3.9911895969     1.3129577899
   44      H       3.8940317068     3.6682460605    -0.3237127360
   45      H       1.0227476978     3.7700307519     0.4384146778
   46      H       1.6594999075     3.2729235398    -1.1566408718
   47      H       0.3861245935     1.3591972965     0.4865965558
   48      H       5.7901923386    -2.1994167197     1.2628073697
   49      H       7.1573731594    -1.0943585305     1.6944857598
   50      H      -0.1276065003     2.4948425127    -2.0206570326
   51      H      -1.7410880317     3.2935080174    -2.1795616705
   52      H      -1.4948875782     1.6269374305    -2.8209765371
   53      H      -1.1471063263    -2.4612048230    -2.3165255988
   54      H      -1.0047547315    -4.0669332939    -1.4582823512
   55      H       1.1953457881    -3.1080625089    -0.3523817591
   56      H       1.3056296025    -3.4575685693    -2.1391990839
 ----------------------------------------------------------------

    9   -1510.2894376876      5.84E-09 Convergence criterion met
 Total energy in the final basis set = -1510.28943769
 Final energy is   -1510.28943768759
 **  OPTIMIZATION CONVERGED  **

                    Orbital Energies (a.u.)
 --------------------------------------------------------------

 Alpha MOs
 -- Occupied --
-18.938 -18.938 -18.928 -18.922 -18.886 -18.884 -18.883 -18.874
-18.868 -18.864 -10.104 -10.101 -10.094 -10.092 -10.071 -10.066
-10.063 -10.060 -10.056 -10.055 -10.055 -10.055 -10.039 -10.037
-10.035 -10.033 -10.020 -10.019 -10.018 -10.018  -1.019  -1.014
 -1.004  -0.999  -0.969  -0.967  -0.942  -0.938  -0.929  -0.926
 -0.762  -0.761  -0.727  -0.721  -0.713  -0.704  -0.695  -0.662
 -0.655  -0.617  -0.597  -0.575  -0.545  -0.542  -0.536  -0.534
 -0.510  -0.510  -0.486  -0.472  -0.459  -0.456  -0.452  -0.448
 -0.434  -0.430  -0.425  -0.416  -0.412  -0.411  -0.405  -0.402
 -0.398  -0.378  -0.372  -0.363  -0.360  -0.355  -0.353  -0.348
 -0.342  -0.340  -0.337  -0.333  -0.328  -0.323  -0.320  -0.310
 -0.310  -0.304  -0.301  -0.299  -0.291  -0.284  -0.278  -0.275
 -0.271  -0.255  -0.252  -0.247  -0.242  -0.233  -0.231  -0.188
 -0.179  -0.168  -0.162  -0.160  -0.157  -0.149  -0.145  -0.142
 -0.140

          Ground-State Mulliken Net Atomic Charges

     Atom                 Charge (a.u.)
  ----------------------------------------
      1 O                    -0.215070
      2 C                     0.212325
      3 C                    -0.079240
      4 C                    -0.078117
      5 C                     0.213449
      6 O                    -0.171996
      7 C                    -0.056515
      8 C                    -0.054560
      9 O                    -0.172246
     10 C                     0.215500
     11 C                    -0.078173
     12 C                    -0.081823
     13 C                     0.217158
     14 O                    -0.214745
     15 O                    -0.168818
     16 O                    -0.179466
     17 O                    -0.209159
     18 C                    -0.129174
     19 C                     0.025415
     20 C                    -0.143824
     21 C                    -0.143751
     22 C                     0.024504
     23 O                    -0.189842
     24 H                     0.089940
     25 H                     0.083764
     26 H                     0.084323
     27 H                     0.078283
     28 H                     0.074866
     29 H                     0.078054
     30 H                     0.073526
     31 H                     0.091038
     32 O                    -0.214809
     33 C                    -0.127480
     34 C                     0.023504
     35 C                    -0.143168
     36 C                    -0.144115
     37 C                     0.021101
     38 O                    -0.187878
     39 H                     0.083946
     40 H                     0.085275
     41 H                     0.088682
     42 H                     0.091891
     43 H                     0.077544
     44 H                     0.072221
     45 H                     0.078714
     46 H                     0.069809
     47 H                     0.094670
     48 H                     0.093217
     49 H                     0.091103
     50 H                     0.083548
     51 H                     0.086081
     52 H                     0.095264
     53 H                     0.104222
     54 H                     0.088300
     55 H                     0.106697
     56 H                     0.086039
  ----------------------------------------
  Sum of atomic charges =    -0.000000

                    Cartesian Multipole Moments
 -----------------------------------------------------------------
    Charge (ESU x 10^10)
                -0.0000
    Dipole Moment (Debye)
         X       2.0844      Y       0.3449      Z       0.7457
       Tot       2.2405
    Quadrupole Moments (Debye-Ang)
        XX    -156.8161     XY       4.3423     YY    -149.8339
        XZ     -11.8501     YZ       0.4569     ZZ    -160.7380

 Total job time:  58.13s(wall), 2766.35s(cpu)
        *  Thank you very much for using Q-Chem.  Have a nice day.  *
