 Q-Chem 5.0, Q-Chem, Inc., Pleasanton, CA (2017)
 Q-Chem 5.0.1 for Intel X86 EM64T Linux

User input:
--------------------------------------------------------------
$molecule
0  1
O 4.4164846554 -1.431316567 -0.8358064579
C 4.555164584 -0.3554227911 -0.2122081657
C 3.6929532481 0.9431637776 -0.3948229136
C 2.1730333682 0.6427294306 -0.7313688236
C 1.7974390354 -0.8515849862 -0.448376516
O 1.1918090413 -1.4150909125 -1.6227932338
C 0.8228714758 -2.8274993795 -1.3623672809
C -0.7327160045 -2.9911848335 -1.4319807821
O -1.3106549175 -2.4121693695 -0.1922478357
C -1.99655069 -1.1929519574 -0.4720462755
C -2.6851506563 -0.7070064649 0.8456703428
C -3.2892791168 0.7484800581 0.7158980696
C -2.9522982197 1.4748006326 -0.637067898
O -3.7717701271 1.8873549886 -1.4846244864
O 5.5803238113 -0.1200520992 0.755343814
O -1.5419967238 1.7587200455 -0.6826497782
O -2.0996507428 -0.6818043673 -1.6111353407
C -1.2183073597 2.3302018654 -2.0094012164
C -4.0104706287 -1.5525000337 1.0969720021
C -4.5404108416 -1.2456342699 2.5541630861
C -5.1749096459 0.1820292287 2.3551811833
C -4.8411906219 0.4500255838 0.8370579205
O -4.9920398319 -0.8864438948 0.2130663163
H -1.973670123 -0.8001379119 1.6852983123
H -2.933000938 1.3871747464 1.5445261152
H -3.9172081895 -2.6266851107 0.8443474895
H -5.2971722661 -1.9883187309 2.8528987763
H -3.7270914995 -1.2497208169 3.2975168994
H -6.2652203806 0.1635601606 2.5120346923
H -4.7345624232 0.9410773334 3.0211304706
H -5.4813090271 1.1904966415 0.3192735405
O 1.9377587702 -1.4702842954 0.6300501711
C 6.4037521219 -1.3399795314 0.9238865314
C 3.5459791516 1.8337671485 0.9171477369
C 3.2062390976 3.3011214378 0.4547214339
C 1.7367080274 3.1040795097 -0.0708958666
C 1.4574075423 1.5938381894 0.3170336889
O 2.2757835729 1.3798083505 1.5334597483
H 4.1545406997 1.5337730145 -1.208095276
H 1.9178227421 0.8834719859 -1.7779376436
H 6.9144482031 -1.621467028 -0.0197135927
H 4.3871973336 1.7284696539 1.6285719382
H 3.238824813 3.9911895969 1.3129577899
H 3.8940317068 3.6682460605 -0.323712736
H 1.0227476978 3.7700307519 0.4384146778
H 1.6594999075 3.2729235398 -1.1566408718
H 0.3861245935 1.3591972965 0.4865965558
H 5.7901923386 -2.1994167197 1.2628073697
H 7.1573731594 -1.0943585305 1.6944857598
H -0.1276065003 2.4948425127 -2.0206570326
H -1.7410880317 3.2935080174 -2.1795616705
H -1.4948875782 1.6269374305 -2.8209765371
H -1.1471063263 -2.461204823 -2.3165255988
H -1.0047547315 -4.0669332939 -1.4582823512
H 1.1953457881 -3.1080625089 -0.3523817591
H 1.3056296025 -3.4575685693 -2.1391990839
$end

$rem
JOBTYPE                   OPT
METHOD                    B3LYP
DFT_D                     d3_op
BASIS                     STO-3G
GEOM_OPT_MAX_CYCLES       100
GEOM_OPT_TOL_GRADIENT     300
GEOM_OPT_TOL_DISPLACEMENT 1200
GEOM_OPT_TOL_ENERGY       100
SYMMETRY                  False
THRESH                    12
SCF_CONVERGENCE           8
MAX_SUB_FILE_NUM          128
MEM_STATIC                400
MEM_TOTAL                 4000
$end
--------------------------------------------------------------

   16   -1510.2892879989      6.94E-09 Convergence criterion met
 Total energy in the final basis set = -1510.28928800
   14   -1510.2915162849      3.02E-09 Convergence criterion met
 Total energy in the final basis set = -1510.29151628
   15   -1510.2805299783      5.37E-09 Convergence criterion met
 Total energy in the final basis set = -1510.28052998
   14   -1510.2898870395      4.17E-09 Convergence criterion met
 Total energy in the final basis set = -1510.28988704
   14   -1510.2918882868      6.25E-09 Convergence criterion met
 Total energy in the final basis set = -1510.29188829
   14   -1510.2932343872      2.36E-09 Convergence criterion met
 Total energy in the final basis set = -1510.29323439
   15   -1510.2944907083      2.89E-09 Convergence criterion met
 Total energy in the final basis set = -1510.29449071
   14   -1510.2938973741      8.68E-09 Convergence criterion met
   11   -1510.2976489872      7.01E-09 Convergence criterion met
 Total energy in the final basis set = -1510.29764899
   10   -1510.2976557044      9.92E-09 Convergence criterion met
 Total energy in the final basis set = -1510.29765570
   12   -1510.2976799935      5.63E-09 Convergence criterion met
 Total energy in the final basis set = -1510.29767999
   12   -1510.2976798730      6.41E-09 Convergence criterion met
 Total energy in the final basis set = -1510.29767987
   12   -1510.2976727346      6.53E-09 Convergence criterion met
 Total energy in the final basis set = -1510.29767273
   11   -1510.2976899072      5.01E-09 Convergence criterion met
 Total energy in the final basis set = -1510.29768991

             Standard Nuclear Orientation (Angstroms)
    I     Atom           X                Y                Z
 ----------------------------------------------------------------
    1      O       3.4072646512    -1.7811687926     0.4431899296
    2      C       3.9221369084    -0.6469955745     0.5709114123
    3      C       3.4557449302     0.6844594007    -0.1058177817
    4      C       2.0587102753     0.5596878372    -0.8399452474
    5      C       1.3259429428    -0.7966346633    -0.5358567756
    6      O       1.4364029684    -1.6323196138    -1.7003039392
    7      C       0.8469334738    -2.9689591588    -1.4550097416
    8      C      -0.7026553700    -3.0307135122    -1.7419250275
    9      O      -1.4814817533    -2.5698658361    -0.5684982713
   10      C      -1.7991297641    -1.1828666866    -0.6899472607
   11      C      -2.3764203179    -0.6792353867     0.6723622090
   12      C      -2.9190980138     0.8045223133     0.5974945507
   13      C      -2.8180917335     1.4516593641    -0.8309941503
   14      O      -3.7062636660     1.5017271483    -1.7065594022
   15      O       5.0757714113    -0.3808001136     1.3701769750
   16      O      -1.5573440338     2.1481228968    -0.9311286516
   17      O      -1.6248854127    -0.5054466877    -1.7296800312
   18      C      -1.4000421121     2.6918559246    -2.2979665238
   19      C      -3.6845727202    -1.4650493592     1.1121122051
   20      C      -3.9511909889    -1.1636544549     2.6388141652
   21      C      -4.4929565621     0.3121266176     2.5660229085
   22      C      -4.4352941381     0.5830406515     1.0111161790
   23      O      -4.7668727753    -0.7332585933     0.4158572434
   24      H      -1.5664483148    -0.7822329728     1.4184207469
   25      H      -2.3825527020     1.4541288469     1.3112807162
   26      H      -3.6857734515    -2.5356204074     0.8291661239
   27      H      -4.7105600040    -1.8538336767     3.0396918154
   28      H      -3.0354759246    -1.2529958981     3.2447117748
   29      H      -5.5304869502     0.3806777657     2.9298925428
   30      H      -3.8704469168     1.0219749281     3.1338801297
   31      H      -5.1287311186     1.3592368885     0.6337145387
   32      O       0.6716699584    -1.0904571045     0.4875457975
   33      C       5.5374826745    -1.6278497893     2.0242325090
   34      C       3.1532839929     1.8503520569     0.9370184102
   35      C       3.2174359022     3.2171632248     0.1540314883
   36      C       1.9030187347     3.1227826020    -0.7035370246
   37      C       1.2723810869     1.7685044735    -0.1804854037
   38      O       1.7113306567     1.6978879366     1.2344451009
   39      H       4.2474387384     0.9947719403    -0.8129235221
   40      H       2.1645683667     0.6618511078    -1.9339028469
   41      H       5.8201839186    -2.3988496814     1.2785832997
   42      H       3.7586440375     1.7984333663     1.8626894750
   43      H       3.1806905640     4.0628151054     0.8593178646
   44      H       4.1271204066     3.3085694613    -0.4607572153
   45      H       1.2257035287     3.9670930322    -0.4994226315
   46      H       2.1083126889     3.0888370760    -1.7855394344
   47      H       0.1610946510     1.7187653342    -0.2768519046
   48      H       4.7579627907    -2.0508121091     2.6903743059
   49      H       6.4241398524    -1.3477531314     2.6220862167
   50      H      -0.4806131873     3.3038720047    -2.2857878120
   51      H      -2.2665918050     3.3198808725    -2.5864245470
   52      H      -1.2925364609     1.8724487508    -3.0380718110
   53      H      -0.9483914740    -2.4103687492    -2.6306859581
   54      H      -0.9990394370    -4.0845656106    -1.9207061458
   55      H       1.0377206309    -3.2963040353    -0.4104855120
   56      H       1.3648003307    -3.6541137140    -2.1573903682
 ----------------------------------------------------------------

   11   -1510.2976908516      2.02E-09 Convergence criterion met
 Total energy in the final basis set = -1510.29769085
 Final energy is   -1510.29769085164
 **  OPTIMIZATION CONVERGED  **

                    Orbital Energies (a.u.)
 --------------------------------------------------------------

 Alpha MOs
 -- Occupied --
-18.942 -18.934 -18.925 -18.921 -18.883 -18.881 -18.879 -18.879
-18.862 -18.859 -10.105 -10.102 -10.091 -10.091 -10.069 -10.069
-10.067 -10.055 -10.055 -10.054 -10.053 -10.039 -10.036 -10.031
-10.029 -10.028 -10.015 -10.015 -10.014 -10.012  -1.019  -1.016
 -0.999  -0.996  -0.964  -0.962  -0.942  -0.939  -0.926  -0.925
 -0.758  -0.757  -0.722  -0.717  -0.710  -0.700  -0.691  -0.665
 -0.654  -0.616  -0.593  -0.574  -0.541  -0.539  -0.532  -0.530
 -0.509  -0.506  -0.481  -0.473  -0.456  -0.453  -0.448  -0.445
 -0.429  -0.427  -0.426  -0.416  -0.413  -0.405  -0.403  -0.400
 -0.392  -0.377  -0.374  -0.362  -0.357  -0.352  -0.349  -0.345
 -0.344  -0.336  -0.328  -0.326  -0.325  -0.319  -0.319  -0.310
 -0.309  -0.301  -0.299  -0.297  -0.294  -0.277  -0.273  -0.271
 -0.271  -0.257  -0.249  -0.244  -0.239  -0.228  -0.225  -0.187
 -0.183  -0.167  -0.160  -0.158  -0.155  -0.142  -0.141  -0.139
 -0.136

          Ground-State Mulliken Net Atomic Charges

     Atom                 Charge (a.u.)
  ----------------------------------------
      1 O                    -0.210343
      2 C                     0.213083
      3 C                    -0.079471
      4 C                    -0.081297
      5 C                     0.217512
      6 O                    -0.174644
      7 C                    -0.050844
      8 C                    -0.054082
      9 O                    -0.169122
     10 C                     0.221394
     11 C                    -0.079355
     12 C                    -0.082479
     13 C                     0.218934
     14 O                    -0.214174
     15 O                    -0.169007
     16 O                    -0.175540
     17 O                    -0.214890
     18 C                    -0.128985
     19 C                     0.024688
     20 C                    -0.143480
     21 C                    -0.144142
     22 C                     0.025416
     23 O                    -0.189477
     24 H                     0.102805
     25 H                     0.086831
     26 H                     0.087096
     27 H                     0.076931
     28 H                     0.075802
     29 H                     0.076887
     30 H                     0.073920
     31 H                     0.085934
     32 O                    -0.223742
     33 C                    -0.128043
     34 C                     0.024785
     35 C                    -0.143304
     36 C                    -0.146404
     37 C                     0.010269
     38 O                    -0.191465
     39 H                     0.085065
     40 H                     0.083998
     41 H                     0.089727
     42 H                     0.085259
     43 H                     0.076418
     44 H                     0.071513
     45 H                     0.074992
     46 H                     0.069232
     47 H                     0.107561
     48 H                     0.091821
     49 H                     0.091866
     50 H                     0.086300
     51 H                     0.089804
     52 H                     0.092775
     53 H                     0.100263
     54 H                     0.088318
     55 H                     0.099811
     56 H                     0.087281
  ----------------------------------------
  Sum of atomic charges =     0.000000

                    Cartesian Multipole Moments
 -----------------------------------------------------------------
    Charge (ESU x 10^10)
                 0.0000
    Dipole Moment (Debye)
         X       3.3508      Y      -0.1048      Z       0.5345
       Tot       3.3948
    Quadrupole Moments (Debye-Ang)
        XX    -157.8845     XY      -1.2408     YY    -149.1397
        XZ      -7.0273     YZ      -0.7257     ZZ    -156.1361

 Total job time:  101.47s(wall), 4838.33s(cpu)
        *  Thank you very much for using Q-Chem.  Have a nice day.  *
