 Q-Chem 5.0, Q-Chem, Inc., Pleasanton, CA (2017)
 Q-Chem 5.0.1 for Intel X86 EM64T Linux

User input:
--------------------------------------------------------------
$molecule
0  1
O -3.94934 -3.66094 2.70899
C -3.26408 -4.56952 2.26188
C -3.36658 -6.02376 2.66595
C -4.7785 -6.61395 2.81429
C -5.92685 -5.73529 2.37006
O -6.82418 -5.59361 3.38994
C -7.94991 -4.78118 3.04074
C -9.22812 -5.61263 3.07222
O -9.25527 -6.51104 1.95195
C -9.10691 -7.82471 2.25428
C -9.15612 -8.71772 1.03741
C -8.71747 -10.16904 1.28138
C -8.6424 -10.60171 2.73185
O -9.30513 -11.49426 3.24048
O -2.44025 -4.2827 1.21792
O -7.62949 -10.05225 3.45678
O -9.4828 -8.23203 3.34714
C -7.34294 -10.37148 4.76712
C -10.57934 -8.93896 0.48732
C -10.49842 -9.29781 -0.99472
C -9.89218 -10.68482 -0.9154
C -9.89559 -10.89909 0.60423
O -11.00065 -10.15427 1.05592
H -8.53743 -8.22603 0.25173
H -7.73466 -10.40445 0.81678
H -11.25251 -8.06708 0.63943
H -11.54749 -9.38761 -1.35824
H -9.95059 -8.578 -1.64018
H -10.57864 -11.39626 -1.42567
H -8.86478 -10.77868 -1.32942
H -9.91119 -11.98669 0.83653
O -6.03126 -5.26599 1.24178
C -2.27502 -3.026 0.67376
C -2.76231 -7.01636 1.64851
C -2.43923 -8.34709 2.3338
C -3.82755 -8.9281 2.49626
C -4.66952 -7.82 1.86372
O -3.8517 -7.34321 0.82091
H -2.82478 -6.08595 3.6359
H -4.96975 -6.95577 3.85846
H -1.88546 -2.3246 1.44223
H -1.85075 -6.63804 1.13857
H -1.87387 -8.98533 1.6178
H -1.85585 -8.23702 3.27327
H -3.90389 -9.84133 1.86428
H -4.12659 -9.16903 3.53928
H -5.66496 -8.2184 1.56398
H -3.24255 -2.65039 0.27726
H -1.54589 -3.08393 -0.16019
H -6.47236 -9.77199 5.10401
H -7.08973 -11.44978 4.85198
H -8.213 -10.1365 5.41667
H -9.29293 -6.08637 4.07683
H -10.10612 -4.93864 2.98046
H -7.8987 -4.25228 2.06297
H -8.0293 -3.98665 3.81295
$end

$opt
CONSTRAINT
tors           1           2           3           4     +43.158
tors           3           4           5           6    -125.102
tors           4           5           6           7    -179.489
tors           5           6           7           8    +115.673
tors           6           7           8           9     -72.370
tors           7           8           9          10    +110.300
tors           8           9          10          11    +179.501
tors           9          10          11          12    +168.334
tors          11          12          13          14    +118.373
ENDCONSTRAINT
$end

$rem
JOBTYPE                   OPT
METHOD                    B3LYP
DFT_D                     d3_op
BASIS                     STO-3G
GEOM_OPT_MAX_CYCLES       100
GEOM_OPT_TOL_GRADIENT     300
GEOM_OPT_TOL_DISPLACEMENT 1200
GEOM_OPT_TOL_ENERGY       100
SYMMETRY                  False
THRESH                    12
SCF_CONVERGENCE           8
MAX_SUB_FILE_NUM          128
MEM_STATIC                400
MEM_TOTAL                 4000
$end
--------------------------------------------------------------

   15   -1510.1480650163      7.23E-09 Convergence criterion met
 Total energy in the final basis set = -1510.14806502
   13   -1510.2182913393      9.81E-09 Convergence criterion met
 Total energy in the final basis set = -1510.21829134
   14   -1510.2566313730      5.26E-09 Convergence criterion met
 Total energy in the final basis set = -1510.25663137
   13   -1510.2749892717      9.82E-09 Convergence criterion met
 Total energy in the final basis set = -1510.27498927
   13   -1510.2824293227      7.88E-09 Convergence criterion met
 Total energy in the final basis set = -1510.28242932
   13   -1510.2842975897      5.25E-09 Convergence criterion met
 Total energy in the final basis set = -1510.28429759
   13   -1510.2866617806      7.82E-09 Convergence criterion met
 Total energy in the final basis set = -1510.28666178
   12   -1510.2875896337      7.88E-09 Convergence criterion met
   11   -1510.2897834757      4.03E-09 Convergence criterion met
 Total energy in the final basis set = -1510.28978348
   10   -1510.2898173423      6.93E-09 Convergence criterion met
 Total energy in the final basis set = -1510.28981734
    9   -1510.2898368906      9.10E-09 Convergence criterion met
 Total energy in the final basis set = -1510.28983689
    9   -1510.2898354526      9.43E-09 Convergence criterion met
 Total energy in the final basis set = -1510.28983545
    9   -1510.2898375298      7.56E-09 Convergence criterion met
 Total energy in the final basis set = -1510.28983753
    9   -1510.2898385780      2.17E-09 Convergence criterion met
 Total energy in the final basis set = -1510.28983858

             Standard Nuclear Orientation (Angstroms)
    I     Atom           X                Y                Z
 ----------------------------------------------------------------
    1      O       4.4445767497    -1.3518807263    -0.9218775541
    2      C       4.4986981773    -0.3109451860    -0.2299463354
    3      C       3.6054434924     0.9689850943    -0.4119902047
    4      C       2.0779284293     0.6267573696    -0.6747706628
    5      C       1.7543453390    -0.8866850172    -0.4417302950
    6      O       1.1424464762    -1.4201711402    -1.6263294676
    7      C       0.8169610067    -2.8528012763    -1.4193857365
    8      C      -0.7367594405    -3.0344033689    -1.4748402913
    9      O      -1.2983767976    -2.4562997406    -0.2268861761
   10      C      -2.0250629488    -1.2612315709    -0.5109540031
   11      C      -2.6030358329    -0.7036325820     0.8298374955
   12      C      -3.1729090986     0.7643996149     0.6800746280
   13      C      -2.9189209730     1.4196681337    -0.7270126323
   14      O      -3.7827093056     1.8005493451    -1.5445964790
   15      O       5.4366870873    -0.1058451733     0.8284084269
   16      O      -1.5093808993     1.6678575052    -0.8697564245
   17      O      -2.2127369057    -0.8023984577    -1.6616484306
   18      C      -1.2451434627     2.1713799316    -2.2356716631
   19      C      -3.9292065498    -1.4917958437     1.2252707868
   20      C      -4.3278360459    -1.1003410304     2.7031707886
   21      C      -4.9359285653     0.3361887366     2.4873279903
   22      C      -4.7177037124     0.5243680267     0.9368429323
   23      O      -4.9588150210    -0.8336657202     0.3913012101
   24      H      -1.8304741885    -0.7814122779     1.6156803014
   25      H      -2.7320710413     1.4257427037     1.4480096597
   26      H      -3.8906029483    -2.5791838839     1.0187945792
   27      H      -5.0783361975    -1.8036692769     3.0976061174
   28      H      -3.4569743825    -1.0973047902     3.3779468936
   29      H      -6.0100916572     0.3588650497     2.7310669364
   30      H      -4.4222541290     1.1107967613     3.0786561141
   31      H      -5.3751427347     1.2616113803     0.4365443665
   32      O       1.9475597947    -1.5469401999     0.6035216156
   33      C       6.2780190438    -1.3134251336     0.9961211375
   34      C       3.4957283475     1.8812062683     0.8851539238
   35      C       3.0403675540     3.3196302289     0.4268314438
   36      C       1.5398017404     3.0449086525     0.0436696258
   37      C       1.3870882922     1.5210153238     0.4401319407
   38      O       2.3020719003     1.3596235624     1.5931556807
   39      H       4.0195258562     1.5443757556    -1.2607779177
   40      H       1.7596352352     0.9013926357    -1.6954245069
   41      H       6.8621925737    -1.5344973928     0.0794063647
   42      H       4.3871753904     1.8374059867     1.5392813287
   43      H       3.1199582331     4.0326905922     1.2628770159
   44      H       3.6359867226     3.6977657196    -0.4193144373
   45      H       0.8451218031     3.6652318482     0.6314089519
   46      H       1.3411585061     3.2135969402    -1.0257300589
   47      H       0.3528075754     1.2129422696     0.6902345769
   48      H       5.6643985894    -2.2026203926     1.2468447144
   49      H       6.9673874180    -1.0902439400     1.8310405977
   50      H      -0.1508841920     2.2982726138    -2.3137093628
   51      H      -1.7454974867     3.1442364005    -2.4195321882
   52      H      -1.5877493898     1.4446466876    -3.0002028079
   53      H      -1.1692869011    -2.5040383768    -2.3505632537
   54      H      -1.0010647940    -4.1121359262    -1.5014676476
   55      H       1.2105166178    -3.1636078675    -0.4265982096
   56      H       1.3018472416    -3.4388038148    -2.2285792807
 ----------------------------------------------------------------

    9   -1510.2898390878      2.08E-09 Convergence criterion met
 Total energy in the final basis set = -1510.28983909
 Final energy is   -1510.28983908781
 **  OPTIMIZATION CONVERGED  **

                    Orbital Energies (a.u.)
 --------------------------------------------------------------

 Alpha MOs
 -- Occupied --
-18.938 -18.938 -18.929 -18.921 -18.886 -18.885 -18.883 -18.873
-18.870 -18.864 -10.105 -10.100 -10.096 -10.092 -10.071 -10.065
-10.065 -10.061 -10.057 -10.056 -10.056 -10.056 -10.039 -10.038
-10.036 -10.034 -10.020 -10.019 -10.018 -10.018  -1.020  -1.013
 -1.006  -0.999  -0.969  -0.968  -0.943  -0.937  -0.930  -0.926
 -0.763  -0.761  -0.727  -0.721  -0.713  -0.705  -0.696  -0.661
 -0.656  -0.617  -0.597  -0.576  -0.545  -0.542  -0.536  -0.535
 -0.511  -0.510  -0.487  -0.473  -0.461  -0.456  -0.452  -0.448
 -0.433  -0.430  -0.425  -0.416  -0.412  -0.411  -0.405  -0.402
 -0.399  -0.378  -0.373  -0.364  -0.360  -0.356  -0.354  -0.348
 -0.343  -0.340  -0.338  -0.333  -0.328  -0.323  -0.321  -0.311
 -0.309  -0.304  -0.301  -0.300  -0.290  -0.286  -0.278  -0.275
 -0.272  -0.255  -0.252  -0.247  -0.243  -0.233  -0.232  -0.188
 -0.178  -0.168  -0.163  -0.161  -0.157  -0.150  -0.145  -0.143
 -0.141

          Ground-State Mulliken Net Atomic Charges

     Atom                 Charge (a.u.)
  ----------------------------------------
      1 O                    -0.216325
      2 C                     0.211984
      3 C                    -0.078933
      4 C                    -0.077766
      5 C                     0.212544
      6 O                    -0.171807
      7 C                    -0.056328
      8 C                    -0.055072
      9 O                    -0.172068
     10 C                     0.215477
     11 C                    -0.078513
     12 C                    -0.081767
     13 C                     0.216662
     14 O                    -0.214546
     15 O                    -0.167994
     16 O                    -0.179878
     17 O                    -0.209040
     18 C                    -0.127929
     19 C                     0.025565
     20 C                    -0.143871
     21 C                    -0.143704
     22 C                     0.024417
     23 O                    -0.189247
     24 H                     0.089310
     25 H                     0.083066
     26 H                     0.084339
     27 H                     0.078375
     28 H                     0.075000
     29 H                     0.078169
     30 H                     0.073506
     31 H                     0.090887
     32 O                    -0.214548
     33 C                    -0.127228
     34 C                     0.023050
     35 C                    -0.143900
     36 C                    -0.142875
     37 C                     0.025111
     38 O                    -0.188388
     39 H                     0.083987
     40 H                     0.085283
     41 H                     0.088644
     42 H                     0.092824
     43 H                     0.077458
     44 H                     0.072099
     45 H                     0.078417
     46 H                     0.071232
     47 H                     0.090091
     48 H                     0.093409
     49 H                     0.091099
     50 H                     0.081783
     51 H                     0.085991
     52 H                     0.095534
     53 H                     0.105003
     54 H                     0.088054
     55 H                     0.106589
     56 H                     0.086773
  ----------------------------------------
  Sum of atomic charges =    -0.000000

                    Cartesian Multipole Moments
 -----------------------------------------------------------------
    Charge (ESU x 10^10)
                -0.0000
    Dipole Moment (Debye)
         X       2.0980      Y       0.4600      Z       0.7280
       Tot       2.2679
    Quadrupole Moments (Debye-Ang)
        XX    -159.9283     XY       4.0765     YY    -149.6971
        XZ     -11.3569     YZ       0.5275     ZZ    -160.4482

 Total job time:  58.80s(wall), 2801.35s(cpu)
        *  Thank you very much for using Q-Chem.  Have a nice day.  *
