 Q-Chem 5.0, Q-Chem, Inc., Pleasanton, CA (2017)
 Q-Chem 5.0.1 for Intel X86 EM64T Linux

User input:
--------------------------------------------------------------
$molecule
0  1
O 4.4445767497 -1.3518807263 -0.9218775541
C 4.4986981773 -0.310945186 -0.2299463354
C 3.6054434924 0.9689850943 -0.4119902047
C 2.0779284293 0.6267573696 -0.6747706628
C 1.754345339 -0.8866850172 -0.441730295
O 1.1424464762 -1.4201711402 -1.6263294676
C 0.8169610067 -2.8528012763 -1.4193857365
C -0.7367594405 -3.0344033689 -1.4748402913
O -1.2983767976 -2.4562997406 -0.2268861761
C -2.0250629488 -1.2612315709 -0.5109540031
C -2.6030358329 -0.703632582 0.8298374955
C -3.1729090986 0.7643996149 0.680074628
C -2.918920973 1.4196681337 -0.7270126323
O -3.7827093056 1.8005493451 -1.544596479
O 5.4366870873 -0.1058451733 0.8284084269
O -1.5093808993 1.6678575052 -0.8697564245
O -2.2127369057 -0.8023984577 -1.6616484306
C -1.2451434627 2.1713799316 -2.2356716631
C -3.9292065498 -1.4917958437 1.2252707868
C -4.3278360459 -1.1003410304 2.7031707886
C -4.9359285653 0.3361887366 2.4873279903
C -4.7177037124 0.5243680267 0.9368429323
O -4.958815021 -0.8336657202 0.3913012101
H -1.8304741885 -0.7814122779 1.6156803014
H -2.7320710413 1.4257427037 1.4480096597
H -3.8906029483 -2.5791838839 1.0187945792
H -5.0783361975 -1.8036692769 3.0976061174
H -3.4569743825 -1.0973047902 3.3779468936
H -6.0100916572 0.3588650497 2.7310669364
H -4.422254129 1.1107967613 3.0786561141
H -5.3751427347 1.2616113803 0.4365443665
O 1.9475597947 -1.5469401999 0.6035216156
C 6.2780190438 -1.3134251336 0.9961211375
C 3.4957283475 1.8812062683 0.8851539238
C 3.040367554 3.3196302289 0.4268314438
C 1.5398017404 3.0449086525 0.0436696258
C 1.3870882922 1.5210153238 0.4401319407
O 2.3020719003 1.3596235624 1.5931556807
H 4.0195258562 1.5443757556 -1.2607779177
H 1.7596352352 0.9013926357 -1.6954245069
H 6.8621925737 -1.5344973928 0.0794063647
H 4.3871753904 1.8374059867 1.5392813287
H 3.1199582331 4.0326905922 1.2628770159
H 3.6359867226 3.6977657196 -0.4193144373
H 0.8451218031 3.6652318482 0.6314089519
H 1.3411585061 3.2135969402 -1.0257300589
H 0.3528075754 1.2129422696 0.6902345769
H 5.6643985894 -2.2026203926 1.2468447144
H 6.967387418 -1.09024394 1.8310405977
H -0.150884192 2.2982726138 -2.3137093628
H -1.7454974867 3.1442364005 -2.4195321882
H -1.5877493898 1.4446466876 -3.0002028079
H -1.1692869011 -2.5040383768 -2.3505632537
H -1.001064794 -4.1121359262 -1.5014676476
H 1.2105166178 -3.1636078675 -0.4265982096
H 1.3018472416 -3.4388038148 -2.2285792807
$end

$rem
JOBTYPE                   OPT
METHOD                    B3LYP
DFT_D                     d3_op
BASIS                     STO-3G
GEOM_OPT_MAX_CYCLES       100
GEOM_OPT_TOL_GRADIENT     300
GEOM_OPT_TOL_DISPLACEMENT 1200
GEOM_OPT_TOL_ENERGY       100
SYMMETRY                  False
THRESH                    12
SCF_CONVERGENCE           8
MAX_SUB_FILE_NUM          128
MEM_STATIC                400
MEM_TOTAL                 4000
$end
--------------------------------------------------------------

   16   -1510.2897536010      6.51E-09 Convergence criterion met
 Total energy in the final basis set = -1510.28975360
   14   -1510.2887600932      5.25E-09 Convergence criterion met
 Total energy in the final basis set = -1510.28876009
   14   -1510.2880969369      5.95E-09 Convergence criterion met
 Total energy in the final basis set = -1510.28809694
   15   -1510.2894030169      4.13E-09 Convergence criterion met
 Total energy in the final basis set = -1510.28940302
   13   -1510.2908626548      3.92E-09 Convergence criterion met
 Total energy in the final basis set = -1510.29086265
   14   -1510.2929892795      4.16E-09 Convergence criterion met
 Total energy in the final basis set = -1510.29298928
   15   -1510.2938853449      5.45E-09 Convergence criterion met
 Total energy in the final basis set = -1510.29388534
   13   -1510.2949016490      3.56E-09 Convergence criterion met
   12   -1510.2976796293      7.41E-09 Convergence criterion met
 Total energy in the final basis set = -1510.29767963
   12   -1510.2977058867      3.83E-09 Convergence criterion met
 Total energy in the final basis set = -1510.29770589
   11   -1510.2977216316      6.17E-09 Convergence criterion met
 Total energy in the final basis set = -1510.29772163
   11   -1510.2977175455      7.29E-09 Convergence criterion met
 Total energy in the final basis set = -1510.29771755
   11   -1510.2977257363      4.87E-09 Convergence criterion met
 Total energy in the final basis set = -1510.29772574
   11   -1510.2977242383      4.61E-09 Convergence criterion met
 Total energy in the final basis set = -1510.29772424

             Standard Nuclear Orientation (Angstroms)
    I     Atom           X                Y                Z
 ----------------------------------------------------------------
    1      O       3.4527479068    -1.7193982487     0.5283893856
    2      C       3.9290363998    -0.5639546715     0.6045047177
    3      C       3.4460998464     0.7097762907    -0.1658363988
    4      C       2.0550752127     0.5133108600    -0.8957806106
    5      C       1.3403972192    -0.8285784187    -0.4997161674
    6      O       1.4410056366    -1.7315994727    -1.6135911324
    7      C       0.8615702164    -3.0538807325    -1.2820175844
    8      C      -0.6912484752    -3.1386625852    -1.5441053911
    9      O      -1.4551993770    -2.6058404767    -0.3918259795
   10      C      -1.7828976578    -1.2313451192    -0.5980842715
   11      C      -2.3392198725    -0.6433852891     0.7389900177
   12      C      -2.9126994521     0.8209909173     0.5736088570
   13      C      -2.8423903254     1.3765087004    -0.8947548884
   14      O      -3.7449633254     1.3639187615    -1.7568426139
   15      O       5.0492467983    -0.2147768928     1.4195782598
   16      O      -1.5910154519     2.0774754788    -1.0601540522
   17      O      -1.6322376522    -0.6221674243    -1.6826870973
   18      C      -1.4644088992     2.5408247303    -2.4594966225
   19      C      -3.6224004695    -1.4212561011     1.2581339501
   20      C      -3.8723442448    -1.0167009524     2.7634747072
   21      C      -4.4476097280     0.4386851829     2.5949139795
   22      C      -4.4183842911     0.5986913955     1.0241679828
   23      O      -4.7305092215    -0.7631958931     0.5292926189
   24      H      -1.5115757787    -0.6802352820     1.4718905007
   25      H      -2.3805355859     1.5263667691     1.2358418433
   26      H      -3.6044778351    -2.5092262071     1.0532954363
   27      H      -4.6098707829    -1.6921404180     3.2254191715
   28      H      -2.9457375764    -1.0432528267     3.3588200732
   29      H      -5.4810157013     0.5109511239     2.9696652783
   30      H      -3.8331352990     1.2005209619     3.1007419690
   31      H      -5.1331194576     1.3320711692     0.6034193361
   32      O       0.7079270739    -1.0686238465     0.5512042741
   33      C       5.5308609625    -1.4064977244     2.1568635425
   34      C       3.1220738954     1.9431558855     0.7890454519
   35      C       3.1724100610     3.2502912987    -0.0904015964
   36      C       1.8615125531     3.0780187973    -0.9421480623
   37      C       1.2484021892     1.7548451414    -0.3269493006
   38      O       1.6811171898     1.7921040789     1.0908814911
   39      H       4.2370287017     0.9804559779    -0.8899328720
   40      H       2.1655793891     0.5397153481    -1.9936843594
   41      H       5.8497148463    -2.2130763672     1.4654167790
   42      H       3.7234749431     1.9644318501     1.7183241730
   43      H       3.1223208999     4.1447313398     0.5509394494
   44      H       4.0830636486     3.3085577833    -0.7076949745
   45      H       1.1720237009     3.9244186534    -0.7967022524
   46      H       2.0692592229     2.9728165208    -2.0191256312
   47      H       0.1378609106     1.6847528606    -0.4213730791
   48      H       4.7493631317    -1.8100285364     2.8327469290
   49      H       6.3968304495    -1.0658712319     2.7535965664
   50      H      -0.5565606572     3.1688796409    -2.4992178986
   51      H      -2.3470942972     3.1346086298    -2.7705944961
   52      H      -1.3525974752     1.6808809118    -3.1513988461
   53      H      -0.9513719831    -2.5770645110    -2.4671243457
   54      H      -0.9857244685    -4.2027695157    -1.6508703593
   55      H       1.0669664660    -3.3177360688    -0.2223180429
   56      H       1.3736726285    -3.7774413323    -1.9492062142
 ----------------------------------------------------------------

    9   -1510.2977235673      5.92E-09 Convergence criterion met
 Total energy in the final basis set = -1510.29772357
 Final energy is   -1510.29772356725
 **  OPTIMIZATION CONVERGED  **

                    Orbital Energies (a.u.)
 --------------------------------------------------------------

 Alpha MOs
 -- Occupied --
-18.941 -18.934 -18.925 -18.922 -18.883 -18.881 -18.879 -18.879
-18.862 -18.860 -10.104 -10.102 -10.092 -10.091 -10.070 -10.069
-10.067 -10.055 -10.055 -10.054 -10.053 -10.039 -10.036 -10.031
-10.029 -10.028 -10.015 -10.015 -10.014 -10.012  -1.018  -1.016
 -1.000  -0.996  -0.964  -0.962  -0.942  -0.939  -0.926  -0.926
 -0.758  -0.757  -0.722  -0.717  -0.710  -0.700  -0.691  -0.664
 -0.654  -0.616  -0.593  -0.574  -0.541  -0.539  -0.532  -0.530
 -0.509  -0.506  -0.481  -0.473  -0.456  -0.453  -0.448  -0.445
 -0.429  -0.427  -0.426  -0.415  -0.413  -0.405  -0.403  -0.400
 -0.393  -0.377  -0.374  -0.363  -0.357  -0.352  -0.349  -0.345
 -0.344  -0.336  -0.328  -0.326  -0.325  -0.319  -0.319  -0.310
 -0.309  -0.301  -0.299  -0.296  -0.294  -0.277  -0.273  -0.271
 -0.271  -0.257  -0.249  -0.244  -0.239  -0.228  -0.225  -0.187
 -0.182  -0.167  -0.160  -0.158  -0.155  -0.142  -0.141  -0.139
 -0.136

          Ground-State Mulliken Net Atomic Charges

     Atom                 Charge (a.u.)
  ----------------------------------------
      1 O                    -0.210628
      2 C                     0.212976
      3 C                    -0.079484
      4 C                    -0.081280
      5 C                     0.217072
      6 O                    -0.174309
      7 C                    -0.050847
      8 C                    -0.054061
      9 O                    -0.169108
     10 C                     0.221271
     11 C                    -0.079464
     12 C                    -0.082505
     13 C                     0.218914
     14 O                    -0.214053
     15 O                    -0.169076
     16 O                    -0.175334
     17 O                    -0.214828
     18 C                    -0.128956
     19 C                     0.024607
     20 C                    -0.143533
     21 C                    -0.144115
     22 C                     0.025330
     23 O                    -0.189635
     24 H                     0.103035
     25 H                     0.086931
     26 H                     0.087333
     27 H                     0.076962
     28 H                     0.075837
     29 H                     0.076860
     30 H                     0.073912
     31 H                     0.086022
     32 O                    -0.223567
     33 C                    -0.128040
     34 C                     0.024723
     35 C                    -0.143419
     36 C                    -0.146350
     37 C                     0.010077
     38 O                    -0.191674
     39 H                     0.084930
     40 H                     0.084081
     41 H                     0.089769
     42 H                     0.085592
     43 H                     0.076332
     44 H                     0.071456
     45 H                     0.074928
     46 H                     0.069296
     47 H                     0.107514
     48 H                     0.091702
     49 H                     0.091793
     50 H                     0.086368
     51 H                     0.090006
     52 H                     0.092647
     53 H                     0.100324
     54 H                     0.088436
     55 H                     0.099786
     56 H                     0.087444
  ----------------------------------------
  Sum of atomic charges =     0.000000

                    Cartesian Multipole Moments
 -----------------------------------------------------------------
    Charge (ESU x 10^10)
                 0.0000
    Dipole Moment (Debye)
         X       3.3188      Y      -0.0062      Z       0.5129
       Tot       3.3582
    Quadrupole Moments (Debye-Ang)
        XX    -158.2157     XY      -1.6589     YY    -149.4204
        XZ      -6.6755     YZ      -1.2411     ZZ    -155.6465

 Total job time:  101.65s(wall), 4848.40s(cpu)
        *  Thank you very much for using Q-Chem.  Have a nice day.  *
