 Q-Chem 5.0, Q-Chem, Inc., Pleasanton, CA (2017)
 Q-Chem 5.0.1 for Intel X86 EM64T Linux

User input:
--------------------------------------------------------------
$molecule
0  1
O -3.94934 -3.66094 2.70899
C -3.26408 -4.56952 2.26188
C -3.36658 -6.02376 2.66595
C -2.1637 -6.92746 2.34928
C -0.92277 -6.23941 1.8251
O -1.01678 -6.08076 0.47181
C 0.24768 -5.84573 -0.15681
C 1.27898 -6.85122 0.34474
O 2.13997 -7.24857 -0.73401
C 1.51166 -7.58703 -1.88718
C 1.21084 -6.3955 -2.76493
C 2.35962 -5.96577 -3.689
C 3.47841 -6.97283 -3.8646
O 3.65365 -7.67272 -4.85152
O -2.44033 -4.21701 1.24364
O 4.31868 -7.11396 -2.80594
O 1.63197 -8.71089 -2.35081
C 5.38087 -7.99241 -2.76774
C 0.07754 -6.63076 -3.7833
C -0.54603 -5.29391 -4.17859
C 0.5808 -4.69261 -4.99653
C 1.56714 -5.86892 -5.01446
O 0.74104 -7.00583 -4.96373
H 1.11891 -5.40867 -2.27937
H 2.84966 -4.99384 -3.44114
H -0.70061 -7.33496 -3.41606
H -1.39812 -5.52287 -4.85815
H -0.90749 -4.6667 -3.3352
H 0.19571 -4.48088 -6.01865
H 1.04693 -3.77996 -4.56599
H 2.23628 -5.79338 -5.9
O -0.04662 -5.74944 2.53061
C -2.27859 -2.93792 0.74955
C -3.39657 -6.15273 4.2068
C -4.03489 -7.48189 4.60939
C -2.93487 -8.44599 4.22725
C -1.8571 -7.46079 3.76449
O -2.0546 -6.33212 4.57582
H -4.33612 -6.40051 2.27145
H -2.39896 -7.78008 1.67339
H -1.90087 -2.26476 1.54845
H -3.93011 -5.31725 4.71102
H -4.13381 -7.48099 5.71873
H -5.02728 -7.68537 4.15262
H -2.59954 -8.97856 5.1451
H -3.19859 -9.18136 3.43664
H -0.85336 -7.93741 3.82835
H -3.24397 -2.55355 0.35666
H -1.54002 -2.95965 -0.07797
H 5.8942 -7.89962 -1.78881
H 6.10471 -7.75287 -3.57586
H 5.01832 -9.0361 -2.88423
H 1.87009 -6.48668 1.20998
H 0.75576 -7.78715 0.64813
H 0.58668 -4.78814 -0.1037
H -0.25687 -6.06233 -1.08805
$end

$opt
CONSTRAINT
tors           1           2           3           4    -161.053
tors           3           4           5           6     -85.263
tors           4           5           6           7    -161.053
tors           5           6           7           8     +47.368
tors           6           7           8           9    +142.105
tors           7           8           9          10     -47.368
tors           8           9          10          11     +85.263
tors           9          10          11          12     +85.263
tors          11          12          13          14    +104.211
ENDCONSTRAINT
$end

$rem
JOBTYPE                   OPT
METHOD                    B3LYP
DFT_D                     d3_op
BASIS                     STO-3G
GEOM_OPT_MAX_CYCLES       100
GEOM_OPT_TOL_GRADIENT     300
GEOM_OPT_TOL_DISPLACEMENT 1200
GEOM_OPT_TOL_ENERGY       100
SYMMETRY                  False
THRESH                    12
SCF_CONVERGENCE           8
MAX_SUB_FILE_NUM          128
MEM_STATIC                400
MEM_TOTAL                 4000
$end
--------------------------------------------------------------

   15   -1510.0728500121      6.60E-09 Convergence criterion met
 Total energy in the final basis set = -1510.07285001
   14   -1510.1520579650      9.69E-09 Convergence criterion met
 Total energy in the final basis set = -1510.15205797
   14   -1510.1969665239      9.65E-09 Convergence criterion met
 Total energy in the final basis set = -1510.19696652
   14   -1510.2229297540      7.73E-09 Convergence criterion met
 Total energy in the final basis set = -1510.22292975
   13   -1510.2348248782      9.01E-09 Convergence criterion met
 Total energy in the final basis set = -1510.23482488
   14   -1510.2405446327      3.25E-09 Convergence criterion met
 Total energy in the final basis set = -1510.24054463
   14   -1510.2434650139      2.87E-09 Convergence criterion met
 Total energy in the final basis set = -1510.24346501
   13   -1510.2448594961      4.24E-09 Convergence criterion met
    9   -1510.2464525341      7.42E-09 Convergence criterion met
 Total energy in the final basis set = -1510.24645253
    9   -1510.2464541713      3.81E-09 Convergence criterion met
 Total energy in the final basis set = -1510.24645417
    9   -1510.2464551986      3.98E-09 Convergence criterion met
 Total energy in the final basis set = -1510.24645520
    9   -1510.2464563123      7.02E-09 Convergence criterion met
 Total energy in the final basis set = -1510.24645631
    9   -1510.2464575135      7.03E-09 Convergence criterion met
 Total energy in the final basis set = -1510.24645751
    9   -1510.2464589586      6.60E-09 Convergence criterion met
 Total energy in the final basis set = -1510.24645896

             Standard Nuclear Orientation (Angstroms)
    I     Atom           X                Y                Z
 ----------------------------------------------------------------
    1      O       5.7036248433    -2.1569325686     1.1835591362
    2      C       4.7146922385    -1.5009720074     0.7901438347
    3      C       4.6895523776    -0.5447349847    -0.4596548061
    4      C       3.5273308500     0.5324170913    -0.5399113499
    5      C       2.3652577340     0.4219195538     0.5120244860
    6      O       1.3959028516    -0.5120714853     0.0002233835
    7      C       0.0734638087    -0.3698185357     0.6580517324
    8      C      -0.4393840403     1.1326963931     0.7591146956
    9      O      -1.8711924273     1.4477074071     0.5713978797
   10      C      -2.5174438349     0.8423783044    -0.5819536602
   11      C      -3.0749469513    -0.6223511738    -0.3747841464
   12      C      -4.5421010878    -0.6306064424     0.2539348906
   13      C      -5.1445565864     0.8073449609     0.4427570750
   14      O      -6.0171490099     1.3675796423    -0.2537345468
   15      O       3.4342209435    -1.5494366797     1.4185579055
   16      O      -4.4958537079     1.4104476536     1.5662892285
   17      O      -2.7660019904     1.5353041982    -1.5919245667
   18      C      -4.9513095367     2.8106025612     1.7259430907
   19      C      -3.3373998872    -1.3655446306    -1.7522850001
   20      C      -3.4890680533    -2.9088849773    -1.4550151394
   21      C      -4.9165999787    -2.9498227055    -0.7926462821
   22      C      -5.3326037541    -1.4272541573    -0.8633791870
   23      O      -4.7089285266    -0.9492123264    -2.1198450555
   24      H      -2.4050610769    -1.1959161985     0.2834080415
   25      H      -4.5426105754    -1.1494087242     1.2292851028
   26      H      -2.6250952126    -1.1015326396    -2.5578400111
   27      H      -3.4650927790    -3.4834540853    -2.3946352918
   28      H      -2.6971849412    -3.2886316916    -0.7897133125
   29      H      -5.6153689902    -3.5682976977    -1.3779475461
   30      H      -4.8946136465    -3.3252325689     0.2429923815
   31      H      -6.4212621048    -1.2264134664    -0.8762259271
   32      O       2.2210890731     1.0969496098     1.5531472305
   33      C       3.4709371142    -2.4151515368     2.6181612332
   34      C       5.9615604955     0.4046064779    -0.3963134955
   35      C       6.1616005524     1.1083623287    -1.7966601974
   36      C       5.0351655512     2.2078736855    -1.7524976914
   37      C       4.3533266095     1.8791332256    -0.3685765101
   38      O       5.4970293010     1.4958429083     0.4909026156
   39      H       4.6997931202    -1.1783150763    -1.3660877801
   40      H       3.0564107572     0.4845063119    -1.5381657386
   41      H       4.2097557772    -2.0504276186     3.3605015708
   42      H       6.8594958922    -0.0890619039     0.0245222254
   43      H       7.1652946654     1.5571535414    -1.8626856725
   44      H       6.0336151374     0.4036252431    -2.6338424483
   45      H       5.4636056642     3.2227670777    -1.7373330765
   46      H       4.3300303329     2.1330603273    -2.5956969618
   47      H       3.7813929750     2.7048501016     0.0974018648
   48      H       3.7204089703    -3.4631624958     2.3538442120
   49      H       2.4552289072    -2.3724822082     3.0525639464
   50      H      -4.3798676098     3.2210861353     2.5784226979
   51      H      -6.0375579493     2.8648012688     1.9449681798
   52      H      -4.7435970168     3.4100422441     0.8162383462
   53      H      -0.1935608052     1.5328939594     1.7627135983
   54      H       0.1468056894     1.7197543388     0.0125336934
   55      H       0.0887416222    -0.8269760211     1.6716587800
   56      H      -0.5879033786    -0.9754125890     0.0135470468
 ----------------------------------------------------------------

    9   -1510.2464588720      4.65E-09 Convergence criterion met
 Total energy in the final basis set = -1510.24645887
 Final energy is   -1510.24645887201
 **  OPTIMIZATION CONVERGED  **

                    Orbital Energies (a.u.)
 --------------------------------------------------------------

 Alpha MOs
 -- Occupied --
-18.947 -18.933 -18.928 -18.906 -18.903 -18.890 -18.889 -18.880
-18.876 -18.873 -10.109 -10.106 -10.104 -10.097 -10.075 -10.073
-10.072 -10.063 -10.061 -10.061 -10.060 -10.060 -10.043 -10.041
-10.040 -10.039 -10.024 -10.022 -10.022 -10.021  -1.021  -1.011
 -1.008  -1.004  -0.972  -0.971  -0.943  -0.939  -0.935  -0.933
 -0.765  -0.765  -0.727  -0.725  -0.712  -0.707  -0.699  -0.669
 -0.661  -0.624  -0.603  -0.588  -0.550  -0.546  -0.541  -0.537
 -0.514  -0.511  -0.485  -0.476  -0.465  -0.464  -0.457  -0.450
 -0.438  -0.432  -0.428  -0.418  -0.415  -0.413  -0.410  -0.401
 -0.389  -0.387  -0.376  -0.373  -0.366  -0.359  -0.357  -0.351
 -0.345  -0.340  -0.338  -0.334  -0.333  -0.329  -0.328  -0.316
 -0.313  -0.310  -0.309  -0.304  -0.301  -0.294  -0.284  -0.280
 -0.274  -0.260  -0.252  -0.246  -0.236  -0.236  -0.230  -0.187
 -0.179  -0.175  -0.162  -0.161  -0.156  -0.151  -0.149  -0.147
 -0.145

          Ground-State Mulliken Net Atomic Charges

     Atom                 Charge (a.u.)
  ----------------------------------------
      1 O                    -0.213087
      2 C                     0.212956
      3 C                    -0.077121
      4 C                    -0.081590
      5 C                     0.218917
      6 O                    -0.174900
      7 C                    -0.056029
      8 C                    -0.049623
      9 O                    -0.190343
     10 C                     0.213587
     11 C                    -0.082857
     12 C                    -0.077568
     13 C                     0.205672
     14 O                    -0.206694
     15 O                    -0.165738
     16 O                    -0.168014
     17 O                    -0.174920
     18 C                    -0.127449
     19 C                     0.024109
     20 C                    -0.143925
     21 C                    -0.144473
     22 C                     0.025192
     23 O                    -0.183779
     24 H                     0.078861
     25 H                     0.084869
     26 H                     0.085265
     27 H                     0.079024
     28 H                     0.071323
     29 H                     0.078976
     30 H                     0.072816
     31 H                     0.089434
     32 O                    -0.216700
     33 C                    -0.125100
     34 C                     0.024358
     35 C                    -0.144577
     36 C                    -0.143399
     37 C                     0.024464
     38 O                    -0.189632
     39 H                     0.086275
     40 H                     0.083979
     41 H                     0.094191
     42 H                     0.089188
     43 H                     0.079106
     44 H                     0.073546
     45 H                     0.078821
     46 H                     0.073461
     47 H                     0.087800
     48 H                     0.091037
     49 H                     0.092014
     50 H                     0.091860
     51 H                     0.087315
     52 H                     0.093024
     53 H                     0.101116
     54 H                     0.076815
     55 H                     0.082580
     56 H                     0.085566
  ----------------------------------------
  Sum of atomic charges =    -0.000000

                    Cartesian Multipole Moments
 -----------------------------------------------------------------
    Charge (ESU x 10^10)
                 0.0000
    Dipole Moment (Debye)
         X       0.6636      Y      -2.7699      Z       0.6479
       Tot       2.9211
    Quadrupole Moments (Debye-Ang)
        XX    -175.8787     XY       9.0244     YY    -155.8548
        XZ     -22.2314     YZ      -0.8673     ZZ    -160.7617

 Total job time:  69.83s(wall), 3323.24s(cpu)
        *  Thank you very much for using Q-Chem.  Have a nice day.  *
