 Q-Chem 5.0, Q-Chem, Inc., Pleasanton, CA (2017)
 Q-Chem 5.0.1 for Intel X86 EM64T Linux

User input:
--------------------------------------------------------------
$molecule
0  1
O 5.7036248433 -2.1569325686 1.1835591362
C 4.7146922385 -1.5009720074 0.7901438347
C 4.6895523776 -0.5447349847 -0.4596548061
C 3.52733085 0.5324170913 -0.5399113499
C 2.365257734 0.4219195538 0.512024486
O 1.3959028516 -0.5120714853 0.0002233835
C 0.0734638087 -0.3698185357 0.6580517324
C -0.4393840403 1.1326963931 0.7591146956
O -1.8711924273 1.4477074071 0.5713978797
C -2.5174438349 0.8423783044 -0.5819536602
C -3.0749469513 -0.6223511738 -0.3747841464
C -4.5421010878 -0.6306064424 0.2539348906
C -5.1445565864 0.8073449609 0.442757075
O -6.0171490099 1.3675796423 -0.2537345468
O 3.4342209435 -1.5494366797 1.4185579055
O -4.4958537079 1.4104476536 1.5662892285
O -2.7660019904 1.5353041982 -1.5919245667
C -4.9513095367 2.8106025612 1.7259430907
C -3.3373998872 -1.3655446306 -1.7522850001
C -3.4890680533 -2.9088849773 -1.4550151394
C -4.9165999787 -2.9498227055 -0.7926462821
C -5.3326037541 -1.4272541573 -0.863379187
O -4.7089285266 -0.9492123264 -2.1198450555
H -2.4050610769 -1.1959161985 0.2834080415
H -4.5426105754 -1.1494087242 1.2292851028
H -2.6250952126 -1.1015326396 -2.5578400111
H -3.465092779 -3.4834540853 -2.3946352918
H -2.6971849412 -3.2886316916 -0.7897133125
H -5.6153689902 -3.5682976977 -1.3779475461
H -4.8946136465 -3.3252325689 0.2429923815
H -6.4212621048 -1.2264134664 -0.8762259271
O 2.2210890731 1.0969496098 1.5531472305
C 3.4709371142 -2.4151515368 2.6181612332
C 5.9615604955 0.4046064779 -0.3963134955
C 6.1616005524 1.1083623287 -1.7966601974
C 5.0351655512 2.2078736855 -1.7524976914
C 4.3533266095 1.8791332256 -0.3685765101
O 5.497029301 1.4958429083 0.4909026156
H 4.6997931202 -1.1783150763 -1.3660877801
H 3.0564107572 0.4845063119 -1.5381657386
H 4.2097557772 -2.0504276186 3.3605015708
H 6.8594958922 -0.0890619039 0.0245222254
H 7.1652946654 1.5571535414 -1.8626856725
H 6.0336151374 0.4036252431 -2.6338424483
H 5.4636056642 3.2227670777 -1.7373330765
H 4.3300303329 2.1330603273 -2.5956969618
H 3.781392975 2.7048501016 0.0974018648
H 3.7204089703 -3.4631624958 2.353844212
H 2.4552289072 -2.3724822082 3.0525639464
H -4.3798676098 3.2210861353 2.5784226979
H -6.0375579493 2.8648012688 1.9449681798
H -4.7435970168 3.4100422441 0.8162383462
H -0.1935608052 1.5328939594 1.7627135983
H 0.1468056894 1.7197543388 0.0125336934
H 0.0887416222 -0.8269760211 1.67165878
H -0.5879033786 -0.975412589 0.0135470468
$end

$rem
JOBTYPE                   OPT
METHOD                    B3LYP
DFT_D                     d3_op
BASIS                     STO-3G
GEOM_OPT_MAX_CYCLES       100
GEOM_OPT_TOL_GRADIENT     300
GEOM_OPT_TOL_DISPLACEMENT 1200
GEOM_OPT_TOL_ENERGY       100
SYMMETRY                  False
THRESH                    12
SCF_CONVERGENCE           8
MAX_SUB_FILE_NUM          128
MEM_STATIC                400
MEM_TOTAL                 4000
$end
--------------------------------------------------------------

   16   -1510.2464810767      5.30E-09 Convergence criterion met
 Total energy in the final basis set = -1510.24648108
   14   -1510.2497490464      4.77E-09 Convergence criterion met
 Total energy in the final basis set = -1510.24974905
   14   -1510.2534608651      3.31E-09 Convergence criterion met
 Total energy in the final basis set = -1510.25346087
   14   -1510.2569354597      4.69E-09 Convergence criterion met
 Total energy in the final basis set = -1510.25693546
   13   -1510.2601643791      9.92E-09 Convergence criterion met
 Total energy in the final basis set = -1510.26016438
   14   -1510.2632411087      3.93E-09 Convergence criterion met
 Total energy in the final basis set = -1510.26324111
   13   -1510.2664912333      7.97E-09 Convergence criterion met
 Total energy in the final basis set = -1510.26649123
   13   -1510.2698076070      1.00E-08 Convergence criterion met
   12   -1510.2864384421      8.63E-09 Convergence criterion met
 Total energy in the final basis set = -1510.28643844
   13   -1510.2864016692      3.17E-09 Convergence criterion met
 Total energy in the final basis set = -1510.28640167
   12   -1510.2864718932      7.64E-09 Convergence criterion met
 Total energy in the final basis set = -1510.28647189
   11   -1510.2864701274      6.97E-09 Convergence criterion met
 Total energy in the final basis set = -1510.28647013
   11   -1510.2864738525      4.93E-09 Convergence criterion met
 Total energy in the final basis set = -1510.28647385
   11   -1510.2864760846      3.85E-09 Convergence criterion met
 Total energy in the final basis set = -1510.28647608

             Standard Nuclear Orientation (Angstroms)
    I     Atom           X                Y                Z
 ----------------------------------------------------------------
    1      O       5.8985966713    -1.4916137408     1.1467395945
    2      C       5.1760528127    -1.1795121275     0.1780689130
    3      C       5.2348963800     0.1321142410    -0.6814093822
    4      C       3.8409318746     0.8868752001    -0.7633512187
    5      C       2.6914015670     0.1489960906     0.0042869043
    6      O       1.6761410948    -0.1894450086    -0.9513433601
    7      C       0.5546320978    -0.9029508075    -0.2943236359
    8      C      -0.3715826321     0.0941416203     0.5018459399
    9      O      -1.5853766532    -0.5759339667     1.0254934380
   10      C      -2.5785019012    -0.6808915342    -0.0060701186
   11      C      -3.8800384044    -1.2848949098     0.6244607817
   12      C      -5.0960641144    -0.2611271660     0.6235980674
   13      C      -4.7484620085     1.1257583251    -0.0253032029
   14      O      -5.3599027161     1.7145514874    -0.9405835598
   15      O       4.1246061156    -2.0019346920    -0.3483611689
   16      O      -3.5779242692     1.6399749624     0.6243702273
   17      O      -2.3922311025    -0.3461363998    -1.1961664214
   18      C      -3.1475648612     2.8993288833    -0.0240119128
   19      C      -4.4871428411    -2.4517251582    -0.2706466152
   20      C      -5.5484252256    -3.2396742143     0.5940342318
   21      C      -6.7503551507    -2.2228533344     0.6037800270
   22      C      -6.1551950744    -1.0407015660    -0.2566243724
   23      O      -5.3137590558    -1.7300296321    -1.2634828453
   24      H      -3.6440178879    -1.6264975433     1.6472352122
   25      H      -5.4594745725    -0.0853106256     1.6529789137
   26      H      -3.7320926757    -3.0808687998    -0.7805862629
   27      H      -5.8221958303    -4.1834594471     0.0961948740
   28      H      -5.1751102672    -3.4691196514     1.6049079553
   29      H      -7.6420817436    -2.6466955594     0.1150898525
   30      H      -7.0245847137    -1.8984080667     1.6203697207
   31      H      -6.8920770864    -0.3817621382    -0.7557528726
   32      O       2.6151154658    -0.0921210972     1.2288477991
   33      C       3.9285919114    -3.1927474419     0.5084820654
   34      C       6.1367324790     1.2268443249     0.0204451386
   35      C       6.4570495505     2.3629690875    -1.0276265408
   36      C       5.0753159101     3.1148040673    -1.0922210224
   37      C       4.2191494901     2.2676269704    -0.0699967861
   38      O       5.1992359581     1.8775999692     0.9670799281
   39      H       5.6012204426    -0.1230779888    -1.6928429909
   40      H       3.5187473663     1.0252458456    -1.8099461703
   41      H       3.5385286297    -2.9034707793     1.5063408763
   42      H       7.0055421640     0.8081603353     0.5647444830
   43      H       7.2574579771     3.0201215132    -0.6523576570
   44      H       6.7635670009     1.9523722583    -2.0030166395
   45      H       5.1657143226     4.1567132503    -0.7460496735
   46      H       4.6357696914     3.1148312427    -2.1026293813
   47      H       3.3637405121     2.8019891101     0.3870705185
   48      H       4.8714194407    -3.7596623331     0.6465470987
   49      H       3.1848273350    -3.8251264146    -0.0103758882
   50      H      -2.2753607963     3.2576263139     0.5530300782
   51      H      -3.9489474488     3.6655757175    -0.0031750304
   52      H      -2.8507610015     2.7261325099    -1.0789597294
   53      H       0.1725679682     0.4764430420     1.3882546141
   54      H      -0.6483636145     0.9384909484    -0.1645510118
   55      H       0.9316384434    -1.6920464500     0.3903298490
   56      H      -0.0243853036    -1.3663815523    -1.1180925412
 ----------------------------------------------------------------

   11   -1510.2864752257      2.34E-09 Convergence criterion met
 Total energy in the final basis set = -1510.28647523
 Final energy is   -1510.28647522569
 **  OPTIMIZATION CONVERGED  **

                    Orbital Energies (a.u.)
 --------------------------------------------------------------

 Alpha MOs
 -- Occupied --
-18.937 -18.935 -18.934 -18.933 -18.888 -18.887 -18.881 -18.880
-18.871 -18.871 -10.102 -10.101 -10.099 -10.099 -10.070 -10.068
-10.066 -10.065 -10.061 -10.061 -10.058 -10.058 -10.039 -10.039
-10.037 -10.037 -10.021 -10.021 -10.020 -10.020  -1.017  -1.015
 -1.009  -1.006  -0.970  -0.970  -0.940  -0.939  -0.936  -0.933
 -0.765  -0.763  -0.727  -0.724  -0.713  -0.705  -0.695  -0.664
 -0.663  -0.621  -0.598  -0.583  -0.548  -0.547  -0.538  -0.538
 -0.510  -0.510  -0.484  -0.475  -0.466  -0.455  -0.453  -0.452
 -0.437  -0.431  -0.428  -0.416  -0.414  -0.414  -0.411  -0.393
 -0.390  -0.383  -0.374  -0.371  -0.359  -0.358  -0.354  -0.352
 -0.348  -0.345  -0.334  -0.333  -0.331  -0.328  -0.326  -0.311
 -0.310  -0.306  -0.305  -0.300  -0.291  -0.288  -0.287  -0.274
 -0.273  -0.262  -0.255  -0.254  -0.244  -0.234  -0.234  -0.189
 -0.180  -0.178  -0.165  -0.159  -0.158  -0.151  -0.149  -0.144
 -0.144

          Ground-State Mulliken Net Atomic Charges

     Atom                 Charge (a.u.)
  ----------------------------------------
      1 O                    -0.205855
      2 C                     0.214091
      3 C                    -0.078304
      4 C                    -0.079523
      5 C                     0.210727
      6 O                    -0.169061
      7 C                    -0.051774
      8 C                    -0.053332
      9 O                    -0.169496
     10 C                     0.210371
     11 C                    -0.079241
     12 C                    -0.078124
     13 C                     0.213402
     14 O                    -0.206160
     15 O                    -0.172654
     16 O                    -0.172134
     17 O                    -0.218650
     18 C                    -0.129325
     19 C                     0.025524
     20 C                    -0.143866
     21 C                    -0.144006
     22 C                     0.024163
     23 O                    -0.186408
     24 H                     0.086629
     25 H                     0.085533
     26 H                     0.082788
     27 H                     0.078151
     28 H                     0.073597
     29 H                     0.078512
     30 H                     0.073144
     31 H                     0.090852
     32 O                    -0.219958
     33 C                    -0.129514
     34 C                     0.024215
     35 C                    -0.144069
     36 C                    -0.143752
     37 C                     0.025570
     38 O                    -0.186482
     39 H                     0.085608
     40 H                     0.087119
     41 H                     0.092351
     42 H                     0.090620
     43 H                     0.078554
     44 H                     0.073302
     45 H                     0.078063
     46 H                     0.073824
     47 H                     0.082050
     48 H                     0.091530
     49 H                     0.089441
     50 H                     0.089814
     51 H                     0.090897
     52 H                     0.092615
     53 H                     0.095506
     54 H                     0.090011
     55 H                     0.089057
     56 H                     0.094056
  ----------------------------------------
  Sum of atomic charges =     0.000000

                    Cartesian Multipole Moments
 -----------------------------------------------------------------
    Charge (ESU x 10^10)
                -0.0000
    Dipole Moment (Debye)
         X      -0.1708      Y      -0.3494      Z       0.0341
       Tot       0.3904
    Quadrupole Moments (Debye-Ang)
        XX    -160.3396     XY       6.4121     YY    -146.2471
        XZ     -26.9196     YZ      -3.5518     ZZ    -169.3993

 Total job time:  79.35s(wall), 3774.62s(cpu)
        *  Thank you very much for using Q-Chem.  Have a nice day.  *
