 Q-Chem 5.0, Q-Chem, Inc., Pleasanton, CA (2017)
 Q-Chem 5.0.1 for Intel X86 EM64T Linux

User input:
--------------------------------------------------------------
$molecule
0  1
O -4.481999709 2.3934013106 0.1136295931
C -3.6478178522 1.6117038071 -0.389288181
C -3.7624298169 0.0497771898 -0.4902081713
C -2.4460817977 -0.7839121002 -0.2759366654
C -1.4013059599 -0.134296525 0.7072722449
O -1.7386772949 1.2232866912 1.0765868255
C -0.4972000638 2.0274257473 1.1585630876
C 0.1862883323 2.1913072596 -0.2640409061
O 1.3823557572 1.3532305184 -0.4835453048
C 2.4547135967 1.7399234987 0.3658424485
C 3.5429992265 0.614700172 0.5092696076
C 3.2455901095 -0.9422894093 0.3804857355
C 2.0106185826 -1.519475207 -0.4238705567
O 1.0052112035 -1.0016460561 -0.9452366959
O -2.6236008823 2.0495672146 -1.3137680023
O 2.2013299516 -2.9495525294 -0.398533978
O 2.5090042425 2.8368254639 0.9698855357
C 1.0540925068 -3.6148552245 -1.0529780577
C 4.7719189969 0.7837873737 -0.5068209647
C 6.0794055106 0.3820503261 0.27671814
C 5.8493325009 -1.1667006441 0.4355856272
C 4.5459479563 -1.3812825591 -0.4332785075
O 4.6174475596 -0.3257943597 -1.4711467737
H 3.9322509897 0.7776520639 1.5311673303
H 3.2122938273 -1.4066317273 1.383284307
H 4.8090500789 1.757866761 -1.0320624436
H 6.9718190975 0.5952189991 -0.3339271443
H 6.1749541407 0.9063483825 1.2408976452
H 6.6891669394 -1.7489722743 0.0250099064
H 5.6935381307 -1.4663210392 1.4844035466
H 4.4504441877 -2.3818522385 -0.8970015242
O -0.3916093515 -0.7219529998 1.1496419482
C -2.667150498 3.5249068421 -1.4272608951
C -4.7606856369 -0.6616081801 0.519567225
C -5.3696166994 -1.8954549133 -0.2511725104
C -4.0932613582 -2.8102206659 -0.3793788608
C -3.0509126311 -2.0249905862 0.5121787889
O -3.8852675772 -1.3199201368 1.5202194541
H -4.1146882768 -0.1301197245 -1.5241154222
H -1.9279299143 -1.0465684958 -1.2161008315
H -2.3771542891 4.017934524 -0.476966269
H -5.4837882304 0.0184410105 1.0105125514
H -6.1492769165 -2.3805384646 0.3580317341
H -5.800204636 -1.6181591762 -1.2265228
H -4.2702052513 -3.8185757006 0.0265790469
H -3.7470833431 -2.9065896705 -1.4214268188
H -2.2847207409 -2.6510066941 1.0101133148
H -3.6775733956 3.8822570855 -1.7109969477
H -1.941517264 3.7947422165 -2.2163273189
H 1.2095809448 -4.7006788737 -0.9137016844
H 1.0096364286 -3.3859582973 -2.137920006
H 0.0911636202 -3.3129491151 -0.5922373879
H -0.5586001114 1.8843397066 -1.0298597719
H 0.4373212947 3.2639384315 -0.4139437065
H 0.2194040464 1.576219243 1.8794502274
H -0.8153191796 3.0168171264 1.542380462
$end

$rem
JOBTYPE                   OPT
METHOD                    B3LYP
DFT_D                     d3_op
BASIS                     STO-3G
GEOM_OPT_MAX_CYCLES       100
GEOM_OPT_TOL_GRADIENT     300
GEOM_OPT_TOL_DISPLACEMENT 1200
GEOM_OPT_TOL_ENERGY       100
SYMMETRY                  False
THRESH                    12
SCF_CONVERGENCE           8
MAX_SUB_FILE_NUM          128
MEM_STATIC                400
MEM_TOTAL                 4000
$end
--------------------------------------------------------------

   16   -1510.2552408400      3.83E-09 Convergence criterion met
 Total energy in the final basis set = -1510.25524084
   15   -1510.2588028105      2.72E-09 Convergence criterion met
 Total energy in the final basis set = -1510.25880281
   14   -1510.2625016271      4.97E-09 Convergence criterion met
 Total energy in the final basis set = -1510.26250163
   13   -1510.2640611815      8.56E-09 Convergence criterion met
 Total energy in the final basis set = -1510.26406118
   13   -1510.2668150563      6.49E-09 Convergence criterion met
 Total energy in the final basis set = -1510.26681506
   13   -1510.2688070133      8.72E-09 Convergence criterion met
 Total energy in the final basis set = -1510.26880701
   12   -1510.2706454778      9.65E-09 Convergence criterion met
 Total energy in the final basis set = -1510.27064548
   13   -1510.2721635602      4.27E-09 Convergence criterion met
   11   -1510.2930534676      7.53E-09 Convergence criterion met
 Total energy in the final basis set = -1510.29305347
   11   -1510.2930639589      7.16E-09 Convergence criterion met
 Total energy in the final basis set = -1510.29306396
   11   -1510.2930718135      4.07E-09 Convergence criterion met
 Total energy in the final basis set = -1510.29307181
   11   -1510.2930777911      3.81E-09 Convergence criterion met
 Total energy in the final basis set = -1510.29307779
   10   -1510.2930720914      8.45E-09 Convergence criterion met
 Total energy in the final basis set = -1510.29307209
    9   -1510.2930740478      1.00E-08 Convergence criterion met
 Total energy in the final basis set = -1510.29307405

             Standard Nuclear Orientation (Angstroms)
    I     Atom           X                Y                Z
 ----------------------------------------------------------------
    1      O      -3.9510803132     1.8115617900     0.2107892536
    2      C      -3.3892735967     1.3377514962    -0.8001515258
    3      C      -3.2156928014    -0.1715953213    -1.1930711138
    4      C      -2.1542779922    -0.9553963172    -0.3105402815
    5      C      -1.4996990822    -0.1019237115     0.8294673420
    6      O      -1.1453012887     1.1739495194     0.2990097209
    7      C      -0.5307029658     2.0246269100     1.3440167698
    8      C       0.6932919534     2.7822799467     0.7264307015
    9      O       1.7685895721     1.8837029659     0.2438692214
   10      C       2.5178386557     1.3531015477     1.3417443108
   11      C       3.7227067433     0.5063452532     0.7977316015
   12      C       3.3907235394    -1.0282862521     0.5385713179
   13      C       1.8917022847    -1.4135876995     0.7775720146
   14      O       0.8956075906    -0.9840570337     0.1536282896
   15      O      -2.8447036167     2.1324820039    -1.8644965969
   16      O       1.8386799262    -2.3826761771     1.8233234635
   17      O       2.2498716298     1.5751959750     2.5436651749
   18      C       0.4391970392    -2.8262497239     2.0551822095
   19      C       4.2028674333     0.9557833026    -0.6466055083
   20      C       5.6552093638     0.3794465409    -0.8833916554
   21      C       5.3411136240    -1.1416386000    -1.1350705146
   22      C       3.7663321407    -1.1526672232    -1.0022863932
   23      O       3.3582039486     0.1547372692    -1.5611717381
   24      H       4.5339826770     0.5943660522     1.5425682880
   25      H       4.0181571188    -1.6806196699     1.1707112826
   26      H       4.0811949498     2.0358449916    -0.8544351195
   27      H       6.1159036308     0.8483523405    -1.7674860928
   28      H       6.3130131295     0.5407256429    -0.0145121941
   29      H       5.6434023905    -1.4561108477    -2.1467430583
   30      H       5.8243669591    -1.8042034777    -0.3993178683
   31      H       3.2527633391    -1.9775921299    -1.5331742159
   32      O      -1.2940072088    -0.4491600184     2.0166271690
   33      C      -2.9433819293     3.5676982200    -1.5197282402
   34      C      -4.5268387462    -1.0166211248    -0.8849716720
   35      C      -4.4370855600    -2.3740874375    -1.6887419712
   36      C      -3.3665847795    -3.1577216448    -0.8409029229
   37      C      -3.0516023836    -2.1091584097     0.2964366562
   38      O      -4.3518954827    -1.4363250407     0.5236870697
   39      H      -2.9432054238    -0.2149475736    -2.2619243629
   40      H      -1.3298165289    -1.3516329674    -0.9316544903
   41      H      -2.3231016216     3.8141807841    -0.6336743587
   42      H      -5.4736074825    -0.4552712764    -1.0051885706
   43      H      -5.4109601574    -2.8889890726    -1.6844195954
   44      H      -4.1234305734    -2.2189301285    -2.7334392127
   45      H      -3.7884024262    -4.0794055279    -0.4093782216
   46      H      -2.4694907023    -3.4196868721    -1.4248147585
   47      H      -2.6619869325    -2.5285074547     1.2441349899
   48      H      -3.9897191575     3.8697375689    -1.3090615448
   49      H      -2.5658747473     4.1220699291    -2.3985722346
   50      H       0.4624719339    -3.4192035725     2.9872314681
   51      H       0.0923532846    -3.4717755613     1.2221635312
   52      H      -0.2609606163    -1.9617331661     2.1598909125
   53      H       0.3673648964     3.3465187332    -0.1708261491
   54      H       1.0836418570     3.4923962832     1.4884744631
   55      H      -0.2260295066     1.3895410871     2.2030448655
   56      H      -1.2821481430     2.7667941977     1.6934190845
 ----------------------------------------------------------------

    9   -1510.2930738481      6.84E-09 Convergence criterion met
 Total energy in the final basis set = -1510.29307385
 Final energy is   -1510.29307384815
 **  OPTIMIZATION CONVERGED  **

                    Orbital Energies (a.u.)
 --------------------------------------------------------------

 Alpha MOs
 -- Occupied --
-18.941 -18.937 -18.931 -18.925 -18.889 -18.883 -18.880 -18.875
-18.869 -18.861 -10.107 -10.100 -10.096 -10.091 -10.077 -10.070
-10.061 -10.060 -10.059 -10.056 -10.055 -10.043 -10.039 -10.037
-10.034 -10.031 -10.021 -10.020 -10.018 -10.016  -1.020  -1.011
 -1.006  -1.000  -0.970  -0.966  -0.942  -0.935  -0.932  -0.926
 -0.763  -0.759  -0.728  -0.721  -0.712  -0.703  -0.697  -0.658
 -0.655  -0.614  -0.596  -0.582  -0.546  -0.543  -0.537  -0.535
 -0.514  -0.507  -0.484  -0.472  -0.459  -0.456  -0.450  -0.441
 -0.433  -0.429  -0.426  -0.417  -0.410  -0.407  -0.405  -0.401
 -0.399  -0.377  -0.374  -0.366  -0.358  -0.353  -0.351  -0.348
 -0.343  -0.343  -0.333  -0.331  -0.327  -0.324  -0.323  -0.310
 -0.306  -0.305  -0.302  -0.301  -0.292  -0.283  -0.278  -0.277
 -0.269  -0.253  -0.250  -0.247  -0.243  -0.234  -0.230  -0.185
 -0.173  -0.171  -0.167  -0.159  -0.156  -0.146  -0.143  -0.143
 -0.140

          Ground-State Mulliken Net Atomic Charges

     Atom                 Charge (a.u.)
  ----------------------------------------
      1 O                    -0.221294
      2 C                     0.213085
      3 C                    -0.079811
      4 C                    -0.077130
      5 C                     0.236582
      6 O                    -0.164867
      7 C                    -0.053630
      8 C                    -0.045996
      9 O                    -0.161065
     10 C                     0.205772
     11 C                    -0.078655
     12 C                    -0.079141
     13 C                     0.206181
     14 O                    -0.220745
     15 O                    -0.168983
     16 O                    -0.169350
     17 O                    -0.216064
     18 C                    -0.146113
     19 C                     0.026729
     20 C                    -0.144213
     21 C                    -0.144037
     22 C                     0.026339
     23 O                    -0.183358
     24 H                     0.085224
     25 H                     0.087073
     26 H                     0.086289
     27 H                     0.077724
     28 H                     0.073347
     29 H                     0.077848
     30 H                     0.073989
     31 H                     0.082514
     32 O                    -0.218799
     33 C                    -0.127638
     34 C                     0.025257
     35 C                    -0.143731
     36 C                    -0.144250
     37 C                     0.023488
     38 O                    -0.188168
     39 H                     0.086928
     40 H                     0.098410
     41 H                     0.082526
     42 H                     0.083543
     43 H                     0.077242
     44 H                     0.073616
     45 H                     0.077062
     46 H                     0.073135
     47 H                     0.087234
     48 H                     0.088177
     49 H                     0.088215
     50 H                     0.085075
     51 H                     0.074835
     52 H                     0.112043
     53 H                     0.093112
     54 H                     0.090747
     55 H                     0.109575
     56 H                     0.088120
  ----------------------------------------
  Sum of atomic charges =     0.000000

                    Cartesian Multipole Moments
 -----------------------------------------------------------------
    Charge (ESU x 10^10)
                 0.0000
    Dipole Moment (Debye)
         X       2.2224      Y      -0.1340      Z      -2.0433
       Tot       3.0220
    Quadrupole Moments (Debye-Ang)
        XX    -153.4878     XY       0.5405     YY    -144.4220
        XZ       7.5633     YZ       1.3465     ZZ    -167.9708

 Total job time:  118.23s(wall), 5638.26s(cpu)
        *  Thank you very much for using Q-Chem.  Have a nice day.  *
