 Q-Chem 5.0, Q-Chem, Inc., Pleasanton, CA (2017)
 Q-Chem 5.0.1 for Intel X86 EM64T Linux

User input:
--------------------------------------------------------------
$molecule
0  1
O -3.94934 -3.66094 2.70899
C -3.26408 -4.56952 2.26188
C -3.36658 -6.02376 2.66595
C -2.05424 -6.81773 2.77194
C -0.77335 -6.02476 2.63554
O -1.05672 -4.75164 2.23022
C -0.09916 -4.2296 1.30296
C -0.15991 -5.00603 -0.00837
O 0.95868 -5.9024 -0.09866
C 2.17427 -5.30964 -0.19924
C 3.31177 -6.23495 0.16209
C 2.95505 -7.33571 1.17171
C 1.47502 -7.57466 1.39332
O 0.57173 -6.86814 0.96967
O -2.98742 -4.43706 0.92682
O 1.21518 -8.77907 1.97613
O 2.34028 -4.10132 -0.31954
C 0.0119 -9.42728 2.0969
C 3.77047 -7.08347 -1.04106
C 5.21717 -7.52334 -0.82962
C 5.04338 -8.51243 0.3031
C 3.51191 -8.55373 0.39523
O 3.07601 -8.29685 -0.91563
H 4.17343 -5.60333 0.47807
H 3.43286 -7.20399 2.16674
H 3.6661 -6.55937 -2.01652
H 5.51779 -8.0795 -1.74676
H 5.95202 -6.71154 -0.64018
H 5.45812 -9.49221 -0.02239
H 5.4921 -8.20848 1.27371
H 3.19649 -9.53008 0.82201
O 0.17194 -6.20359 3.39647
C -3.22135 -3.30281 0.17121
C -3.90534 -6.18139 4.10506
C -4.5256 -7.56636 4.28338
C -3.2845 -8.42863 4.29786
C -2.19975 -7.35034 4.22051
O -2.7539 -6.25528 4.90364
H -4.10059 -6.49386 1.97223
H -2.02605 -7.60872 1.99626
H -2.66753 -2.43716 0.5916
H -4.64798 -5.40562 4.39253
H -4.98673 -7.594 5.29685
H -5.28971 -7.84411 3.52584
H -3.23629 -8.95688 5.27624
H -3.20175 -9.16073 3.46556
H -1.25563 -7.746 4.65175
H -4.30803 -3.07379 0.15132
H -2.87673 -3.48044 -0.86799
H 0.20644 -10.47533 2.4029
H -0.53052 -9.4367 1.12775
H -0.57421 -8.98464 2.90625
H -1.12608 -5.53221 -0.16114
H -0.08982 -4.29315 -0.86228
H 0.91189 -4.11662 1.75007
H -0.44688 -3.19897 1.08498
$end

$opt
CONSTRAINT
tors           1           2           3           4    -142.105
tors           3           4           5           6      -9.474
tors           4           5           6           7    -142.105
tors           5           6           7           8     +66.316
tors           6           7           8           9    -104.211
tors           7           8           9          10     -66.316
tors           8           9          10          11    +161.053
tors           9          10          11          12     -28.421
tors          11          12          13          14      -9.474
ENDCONSTRAINT
$end

$rem
JOBTYPE                   OPT
METHOD                    B3LYP
DFT_D                     d3_op
BASIS                     STO-3G
GEOM_OPT_MAX_CYCLES       100
GEOM_OPT_TOL_GRADIENT     300
GEOM_OPT_TOL_DISPLACEMENT 1200
GEOM_OPT_TOL_ENERGY       100
SYMMETRY                  False
THRESH                    12
SCF_CONVERGENCE           8
MAX_SUB_FILE_NUM          128
MEM_STATIC                400
MEM_TOTAL                 4000
$end
--------------------------------------------------------------

   18   -1509.8825106718      5.73E-09 Convergence criterion met
 Total energy in the final basis set = -1509.88251067
   15   -1510.0062142704      4.25E-09 Convergence criterion met
 Total energy in the final basis set = -1510.00621427
   14   -1510.0886372840      9.94E-09 Convergence criterion met
 Total energy in the final basis set = -1510.08863728
   14   -1510.1491779830      8.27E-09 Convergence criterion met
 Total energy in the final basis set = -1510.14917798
   14   -1510.1877491043      6.94E-09 Convergence criterion met
 Total energy in the final basis set = -1510.18774910
   14   -1510.2093535246      6.22E-09 Convergence criterion met
 Total energy in the final basis set = -1510.20935352
   14   -1510.2263604828      4.25E-09 Convergence criterion met
 Total energy in the final basis set = -1510.22636048
   13   -1510.2366439608      7.30E-09 Convergence criterion met
   11   -1510.2552053808      3.77E-09 Convergence criterion met
 Total energy in the final basis set = -1510.25520538
   11   -1510.2552008135      4.15E-09 Convergence criterion met
 Total energy in the final basis set = -1510.25520081
   10   -1510.2551995053      9.23E-09 Convergence criterion met
 Total energy in the final basis set = -1510.25519951
    9   -1510.2551978840      9.51E-09 Convergence criterion met
 Total energy in the final basis set = -1510.25519788
    9   -1510.2551995710      5.38E-09 Convergence criterion met
 Total energy in the final basis set = -1510.25519957
    9   -1510.2552008267      2.47E-09 Convergence criterion met
 Total energy in the final basis set = -1510.25520083

             Standard Nuclear Orientation (Angstroms)
    I     Atom           X                Y                Z
 ----------------------------------------------------------------
    1      O      -4.4819997090     2.3934013106     0.1136295931
    2      C      -3.6478178522     1.6117038071    -0.3892881810
    3      C      -3.7624298169     0.0497771898    -0.4902081713
    4      C      -2.4460817977    -0.7839121002    -0.2759366654
    5      C      -1.4013059599    -0.1342965250     0.7072722449
    6      O      -1.7386772949     1.2232866912     1.0765868255
    7      C      -0.4972000638     2.0274257473     1.1585630876
    8      C       0.1862883323     2.1913072596    -0.2640409061
    9      O       1.3823557572     1.3532305184    -0.4835453048
   10      C       2.4547135967     1.7399234987     0.3658424485
   11      C       3.5429992265     0.6147001720     0.5092696076
   12      C       3.2455901095    -0.9422894093     0.3804857355
   13      C       2.0106185826    -1.5194752070    -0.4238705567
   14      O       1.0052112035    -1.0016460561    -0.9452366959
   15      O      -2.6236008823     2.0495672146    -1.3137680023
   16      O       2.2013299516    -2.9495525294    -0.3985339780
   17      O       2.5090042425     2.8368254639     0.9698855357
   18      C       1.0540925068    -3.6148552245    -1.0529780577
   19      C       4.7719189969     0.7837873737    -0.5068209647
   20      C       6.0794055106     0.3820503261     0.2767181400
   21      C       5.8493325009    -1.1667006441     0.4355856272
   22      C       4.5459479563    -1.3812825591    -0.4332785075
   23      O       4.6174475596    -0.3257943597    -1.4711467737
   24      H       3.9322509897     0.7776520639     1.5311673303
   25      H       3.2122938273    -1.4066317273     1.3832843070
   26      H       4.8090500789     1.7578667610    -1.0320624436
   27      H       6.9718190975     0.5952189991    -0.3339271443
   28      H       6.1749541407     0.9063483825     1.2408976452
   29      H       6.6891669394    -1.7489722743     0.0250099064
   30      H       5.6935381307    -1.4663210392     1.4844035466
   31      H       4.4504441877    -2.3818522385    -0.8970015242
   32      O      -0.3916093515    -0.7219529998     1.1496419482
   33      C      -2.6671504980     3.5249068421    -1.4272608951
   34      C      -4.7606856369    -0.6616081801     0.5195672250
   35      C      -5.3696166994    -1.8954549133    -0.2511725104
   36      C      -4.0932613582    -2.8102206659    -0.3793788608
   37      C      -3.0509126311    -2.0249905862     0.5121787889
   38      O      -3.8852675772    -1.3199201368     1.5202194541
   39      H      -4.1146882768    -0.1301197245    -1.5241154222
   40      H      -1.9279299143    -1.0465684958    -1.2161008315
   41      H      -2.3771542891     4.0179345240    -0.4769662690
   42      H      -5.4837882304     0.0184410105     1.0105125514
   43      H      -6.1492769165    -2.3805384646     0.3580317341
   44      H      -5.8002046360    -1.6181591762    -1.2265228000
   45      H      -4.2702052513    -3.8185757006     0.0265790469
   46      H      -3.7470833431    -2.9065896705    -1.4214268188
   47      H      -2.2847207409    -2.6510066941     1.0101133148
   48      H      -3.6775733956     3.8822570855    -1.7109969477
   49      H      -1.9415172640     3.7947422165    -2.2163273189
   50      H       1.2095809448    -4.7006788737    -0.9137016844
   51      H       1.0096364286    -3.3859582973    -2.1379200060
   52      H       0.0911636202    -3.3129491151    -0.5922373879
   53      H      -0.5586001114     1.8843397066    -1.0298597719
   54      H       0.4373212947     3.2639384315    -0.4139437065
   55      H       0.2194040464     1.5762192430     1.8794502274
   56      H      -0.8153191796     3.0168171264     1.5423804620
 ----------------------------------------------------------------

    9   -1510.2552005851      3.51E-09 Convergence criterion met
 Total energy in the final basis set = -1510.25520059
 Final energy is   -1510.25520058514
 **  OPTIMIZATION CONVERGED  **

                    Orbital Energies (a.u.)
 --------------------------------------------------------------

 Alpha MOs
 -- Occupied --
-18.932 -18.928 -18.926 -18.922 -18.886 -18.885 -18.884 -18.876
-18.870 -18.867 -10.102 -10.099 -10.097 -10.094 -10.072 -10.063
-10.062 -10.059 -10.059 -10.058 -10.058 -10.056 -10.039 -10.037
-10.036 -10.034 -10.021 -10.020 -10.019 -10.018  -1.015  -1.008
 -1.004  -1.002  -0.970  -0.969  -0.939  -0.934  -0.931  -0.925
 -0.764  -0.759  -0.726  -0.720  -0.708  -0.703  -0.694  -0.660
 -0.657  -0.616  -0.598  -0.586  -0.546  -0.540  -0.537  -0.535
 -0.513  -0.508  -0.483  -0.472  -0.462  -0.460  -0.446  -0.439
 -0.434  -0.431  -0.422  -0.413  -0.409  -0.408  -0.406  -0.404
 -0.386  -0.374  -0.369  -0.366  -0.364  -0.360  -0.350  -0.346
 -0.341  -0.339  -0.334  -0.331  -0.327  -0.323  -0.319  -0.313
 -0.309  -0.306  -0.305  -0.303  -0.295  -0.292  -0.288  -0.270
 -0.263  -0.253  -0.251  -0.242  -0.238  -0.233  -0.232  -0.188
 -0.174  -0.171  -0.159  -0.156  -0.149  -0.148  -0.144  -0.144
 -0.137

          Ground-State Mulliken Net Atomic Charges

     Atom                 Charge (a.u.)
  ----------------------------------------
      1 O                    -0.216936
      2 C                     0.220998
      3 C                    -0.080621
      4 C                    -0.076933
      5 C                     0.221899
      6 O                    -0.175442
      7 C                    -0.048405
      8 C                    -0.058137
      9 O                    -0.159522
     10 C                     0.205732
     11 C                    -0.081983
     12 C                    -0.074463
     13 C                     0.218179
     14 O                    -0.199430
     15 O                    -0.179081
     16 O                    -0.177773
     17 O                    -0.221016
     18 C                    -0.128550
     19 C                     0.025641
     20 C                    -0.141948
     21 C                    -0.145826
     22 C                     0.023826
     23 O                    -0.191354
     24 H                     0.084380
     25 H                     0.087702
     26 H                     0.082961
     27 H                     0.077280
     28 H                     0.074682
     29 H                     0.077798
     30 H                     0.073920
     31 H                     0.089029
     32 O                    -0.201155
     33 C                    -0.129911
     34 C                     0.022928
     35 C                    -0.141183
     36 C                    -0.146071
     37 C                     0.023317
     38 O                    -0.191967
     39 H                     0.083556
     40 H                     0.094777
     41 H                     0.084684
     42 H                     0.091085
     43 H                     0.078176
     44 H                     0.073267
     45 H                     0.078084
     46 H                     0.073331
     47 H                     0.084664
     48 H                     0.089640
     49 H                     0.087790
     50 H                     0.087321
     51 H                     0.084769
     52 H                     0.088163
     53 H                     0.108480
     54 H                     0.084459
     55 H                     0.093289
     56 H                     0.091901
  ----------------------------------------
  Sum of atomic charges =     0.000000

                    Cartesian Multipole Moments
 -----------------------------------------------------------------
    Charge (ESU x 10^10)
                 0.0000
    Dipole Moment (Debye)
         X       0.3266      Y      -1.3692      Z      -1.3390
       Tot       1.9427
    Quadrupole Moments (Debye-Ang)
        XX    -155.9718     XY       2.5786     YY    -152.7362
        XZ      12.8902     YZ      -1.2341     ZZ    -163.1605

 Total job time:  86.29s(wall), 4113.76s(cpu)
        *  Thank you very much for using Q-Chem.  Have a nice day.  *
