 Q-Chem 5.0, Q-Chem, Inc., Pleasanton, CA (2017)
 Q-Chem 5.0.1 for Intel X86 EM64T Linux

User input:
--------------------------------------------------------------
$molecule
0  1
O -3.94934 -3.66094 2.70899
C -3.26408 -4.56952 2.26188
C -3.36658 -6.02376 2.66595
C -2.09215 -6.69516 3.20345
C -0.90361 -5.79095 3.44399
O -1.18083 -4.92041 4.45924
C -0.05651 -4.67024 5.30929
C -0.51056 -4.55329 6.7606
O -1.86231 -4.07072 6.81312
C -2.38116 -3.92404 8.05748
C -3.80272 -3.41445 8.0459
C -3.94226 -1.88716 7.96711
C -2.69505 -1.12994 7.55749
O -1.66531 -1.05341 8.21196
O -2.3779 -4.29245 1.2698
O -2.7198 -0.49195 6.35439
O -1.85865 -4.38637 9.06439
C -1.66068 0.20979 5.81745
C -4.70643 -3.85815 6.88795
C -6.17194 -3.79595 7.31496
C -6.38269 -2.29902 7.38396
C -5.02698 -1.80495 6.86616
O -4.62227 -2.80524 5.95983
H -4.25271 -3.77857 8.99844
H -4.28296 -1.43405 8.92409
H -4.47271 -4.8716 6.5306
H -6.77369 -4.20198 6.47003
H -6.42423 -4.35283 8.24296
H -7.19738 -2.0276 6.67624
H -6.60582 -1.89579 8.39544
H -5.14257 -0.78042 6.44999
O 0.19922 -5.95213 2.93659
C -2.15745 -3.03236 0.7549
C -4.32224 -6.29478 3.84598
C -4.81212 -7.74242 3.80193
C -3.55702 -8.48159 4.22379
C -2.62111 -7.30292 4.50987
O -3.48524 -6.30165 4.97699
H -3.74387 -6.55135 1.761
H -1.73732 -7.48514 2.50369
H -1.79577 -2.35087 1.55446
H -5.19018 -5.60094 3.88036
H -5.57482 -7.85809 4.60522
H -5.25034 -8.06183 2.83202
H -3.77423 -9.03433 5.16484
H -3.13646 -9.17627 3.46495
H -1.7996 -7.60546 5.19598
H -3.09396 -2.63006 0.31272
H -1.38518 -3.09392 -0.03897
H -1.96009 0.62207 4.83216
H -0.78994 -0.46525 5.67291
H -1.37895 1.05026 6.48708
H -0.51815 -5.58645 7.17525
H 0.20098 -3.93331 7.35109
H 0.287 -3.65073 5.02977
H 0.81918 -5.35214 5.20618
$end

$opt
CONSTRAINT
tors           1           2           3           4    -123.158
tors           3           4           5           6     +66.316
tors           4           5           6           7    +142.105
tors           5           6           7           8    -142.105
tors           6           7           8           9     -28.421
tors           7           8           9          10    -180.000
tors           8           9          10          11    -180.000
tors           9          10          11          12     -85.263
tors          11          12          13          14     -66.316
ENDCONSTRAINT
$end

$rem
JOBTYPE                   OPT
METHOD                    B3LYP
DFT_D                     d3_op
BASIS                     STO-3G
GEOM_OPT_MAX_CYCLES       100
GEOM_OPT_TOL_GRADIENT     300
GEOM_OPT_TOL_DISPLACEMENT 1200
GEOM_OPT_TOL_ENERGY       100
SYMMETRY                  False
THRESH                    12
SCF_CONVERGENCE           8
MAX_SUB_FILE_NUM          128
MEM_STATIC                400
MEM_TOTAL                 4000
$end
--------------------------------------------------------------

   15   -1510.1427632169      6.58E-09 Convergence criterion met
 Total energy in the final basis set = -1510.14276322
   14   -1510.2123990622      7.02E-09 Convergence criterion met
 Total energy in the final basis set = -1510.21239906
   14   -1510.2494771526      6.22E-09 Convergence criterion met
 Total energy in the final basis set = -1510.24947715
   14   -1510.2594252719      8.81E-09 Convergence criterion met
 Total energy in the final basis set = -1510.25942527
   15   -1510.2695675303      2.94E-09 Convergence criterion met
 Total energy in the final basis set = -1510.26956753
   13   -1510.2733576758      6.73E-09 Convergence criterion met
 Total energy in the final basis set = -1510.27335768
   13   -1510.2757375612      5.40E-09 Convergence criterion met
 Total energy in the final basis set = -1510.27573756
   13   -1510.2762817962      7.89E-09 Convergence criterion met
   10   -1510.2785871692      4.73E-09 Convergence criterion met
 Total energy in the final basis set = -1510.27858717
    9   -1510.2785897473      8.99E-09 Convergence criterion met
 Total energy in the final basis set = -1510.27858975
    9   -1510.2785911108      5.40E-09 Convergence criterion met
 Total energy in the final basis set = -1510.27859111
    9   -1510.2785933846      4.22E-09 Convergence criterion met
 Total energy in the final basis set = -1510.27859338
    9   -1510.2785956880      3.22E-09 Convergence criterion met
 Total energy in the final basis set = -1510.27859569
    8   -1510.2785968063      8.04E-09 Convergence criterion met
 Total energy in the final basis set = -1510.27859681

             Standard Nuclear Orientation (Angstroms)
    I     Atom           X                Y                Z
 ----------------------------------------------------------------
    1      O       0.9920584615     0.8223885686     2.3341046786
    2      C       1.9906765567     0.2318086410     1.8684705148
    3      C       3.1309523399     0.9124167047     1.0293775393
    4      C       3.3810170721     0.2847304316    -0.4058804679
    5      C       2.7878618082    -1.1314255729    -0.7382935723
    6      O       1.3503553639    -1.1018394426    -0.7642680192
    7      C       0.8525279318    -1.9823836206    -1.8576617778
    8      C      -0.3894477407    -1.2408369873    -2.4724590947
    9      O      -0.9251354841    -0.4489812463    -1.3494972647
   10      C      -2.0772902416     0.3084976495    -1.7152558492
   11      C      -2.5111944138     1.0807200467    -0.4209245244
   12      C      -3.4502273039     0.1980577939     0.5231585146
   13      C      -3.6715948802    -1.2436522699    -0.0663292344
   14      O      -4.2848605094    -1.5307782910    -1.1181888665
   15      O       2.1635562759    -1.1836095496     1.8730678061
   16      O      -3.0145095235    -2.2161040230     0.7535787291
   17      O      -2.5735135136     0.3416603778    -2.8611589525
   18      C      -3.1513878337    -3.5607699697     0.1500689192
   19      C      -1.2662407271     1.3237593962     0.5445878958
   20      C      -1.6611372862     2.4199820361     1.6043156031
   21      C      -2.6612668126     1.6215508208     2.5194160533
   22      C      -2.6087811072     0.1880552778     1.8599168639
   23      O      -1.2260280287     0.0778524665     1.3511610098
   24      H      -3.0145413745     2.0179684550    -0.7156064525
   25      H      -4.4401332253     0.6753714464     0.6438057963
   26      H      -0.2884558522     1.4875419453     0.0353321826
   27      H      -0.7644111528     2.7253533481     2.1661439231
   28      H      -2.1192352471     3.3080991300     1.1402052950
   29      H      -2.3078624618     1.5765398799     3.5616269468
   30      H      -3.6794629254     2.0427910690     2.5086591522
   31      H      -2.8412349937    -0.6551273271     2.5373195535
   32      O       3.4656968915    -2.1182244438    -1.1026319249
   33      C       0.8929469564    -1.8269303967     2.3036764685
   34      C       2.5891028529     2.3470146953     0.6299913397
   35      C       3.7337744308     3.2029249254    -0.0364299536
   36      C       3.7928693439     2.5740986588    -1.4783555581
   37      C       2.7364208317     1.4114978144    -1.3367137003
   38      O       1.6788878136     2.0217577851    -0.4984655307
   39      H       4.0689764703     0.9491486125     1.6129478472
   40      H       4.4671448957     0.2055137407    -0.5903222050
   41      H       0.0194878561    -1.2410342885     1.9266245340
   42      H       2.0222277791     2.8396096689     1.4434982451
   43      H       3.4534069548     4.2675914827    -0.0690390732
   44      H       4.6868880213     3.1060522682     0.5080358907
   45      H       3.4702467746     3.2960272588    -2.2458755397
   46      H       4.7944534396     2.1989339283    -1.7423801743
   47      H       2.3083146120     1.0382368565    -2.2870613596
   48      H       0.8451948925    -1.8963080843     3.4097552896
   49      H       0.9060062381    -2.8457210595     1.8747405879
   50      H      -2.6024645002    -4.2505186907     0.8172761520
   51      H      -2.7092174700    -3.5970874215    -0.8666403076
   52      H      -4.2129014056    -3.8758273808     0.0820788247
   53      H      -0.0855038705    -0.5746778204    -3.3097126723
   54      H      -1.1377987025    -1.9653811065    -2.8627805902
   55      H       0.5382166621    -2.9619521994    -1.4349990868
   56      H       1.6365797500    -2.1722040951    -2.6195695223
 ----------------------------------------------------------------

    8   -1510.2785968432      5.30E-09 Convergence criterion met
 Total energy in the final basis set = -1510.27859684
 Final energy is   -1510.27859684324
 **  OPTIMIZATION CONVERGED  **

                    Orbital Energies (a.u.)
 --------------------------------------------------------------

 Alpha MOs
 -- Occupied --
-18.934 -18.929 -18.922 -18.921 -18.894 -18.882 -18.873 -18.870
-18.869 -18.866 -10.097 -10.095 -10.092 -10.089 -10.074 -10.073
-10.064 -10.064 -10.059 -10.052 -10.042 -10.037 -10.036 -10.033
-10.033 -10.028 -10.023 -10.022 -10.011 -10.006  -1.013  -1.009
 -1.003  -0.997  -0.974  -0.960  -0.938  -0.933  -0.925  -0.923
 -0.763  -0.754  -0.726  -0.718  -0.710  -0.704  -0.690  -0.659
 -0.643  -0.609  -0.594  -0.576  -0.544  -0.538  -0.537  -0.527
 -0.518  -0.503  -0.487  -0.469  -0.463  -0.457  -0.450  -0.440
 -0.433  -0.426  -0.423  -0.412  -0.409  -0.403  -0.397  -0.392
 -0.381  -0.376  -0.369  -0.364  -0.359  -0.350  -0.346  -0.345
 -0.341  -0.337  -0.334  -0.332  -0.325  -0.321  -0.317  -0.309
 -0.305  -0.301  -0.296  -0.292  -0.286  -0.283  -0.280  -0.269
 -0.267  -0.257  -0.249  -0.243  -0.238  -0.236  -0.220  -0.177
 -0.173  -0.167  -0.161  -0.155  -0.151  -0.149  -0.144  -0.141
 -0.130

          Ground-State Mulliken Net Atomic Charges

     Atom                 Charge (a.u.)
  ----------------------------------------
      1 O                    -0.208699
      2 C                     0.212194
      3 C                    -0.078392
      4 C                    -0.079670
      5 C                     0.214027
      6 O                    -0.168511
      7 C                    -0.045919
      8 C                    -0.044566
      9 O                    -0.164459
     10 C                     0.207563
     11 C                    -0.079520
     12 C                    -0.077486
     13 C                     0.205211
     14 O                    -0.214204
     15 O                    -0.173073
     16 O                    -0.166269
     17 O                    -0.211152
     18 C                    -0.127063
     19 C                     0.024645
     20 C                    -0.143905
     21 C                    -0.144032
     22 C                     0.026479
     23 O                    -0.184522
     24 H                     0.083652
     25 H                     0.083832
     26 H                     0.108565
     27 H                     0.083662
     28 H                     0.069690
     29 H                     0.077747
     30 H                     0.070131
     31 H                     0.087613
     32 O                    -0.211357
     33 C                    -0.142171
     34 C                     0.024784
     35 C                    -0.145335
     36 C                    -0.142761
     37 C                     0.026651
     38 O                    -0.189542
     39 H                     0.084029
     40 H                     0.084290
     41 H                     0.124713
     42 H                     0.090788
     43 H                     0.078422
     44 H                     0.074660
     45 H                     0.078054
     46 H                     0.074866
     47 H                     0.080192
     48 H                     0.074822
     49 H                     0.079944
     50 H                     0.090363
     51 H                     0.086907
     52 H                     0.088889
     53 H                     0.084002
     54 H                     0.087401
     55 H                     0.083857
     56 H                     0.089963
  ----------------------------------------
  Sum of atomic charges =    -0.000000

                    Cartesian Multipole Moments
 -----------------------------------------------------------------
    Charge (ESU x 10^10)
                -0.0000
    Dipole Moment (Debye)
         X       1.2062      Y       0.7178      Z       0.6888
       Tot       1.5635
    Quadrupole Moments (Debye-Ang)
        XX    -159.4784     XY       9.9452     YY    -150.7957
        XZ     -10.8088     YZ       0.9413     ZZ    -160.8984

 Total job time:  117.66s(wall), 5614.83s(cpu)
        *  Thank you very much for using Q-Chem.  Have a nice day.  *
