 Q-Chem 5.0, Q-Chem, Inc., Pleasanton, CA (2017)
 Q-Chem 5.0.1 for Intel X86 EM64T Linux

User input:
--------------------------------------------------------------
$molecule
0  1
O 0.9920584615 0.8223885686 2.3341046786
C 1.9906765567 0.231808641 1.8684705148
C 3.1309523399 0.9124167047 1.0293775393
C 3.3810170721 0.2847304316 -0.4058804679
C 2.7878618082 -1.1314255729 -0.7382935723
O 1.3503553639 -1.1018394426 -0.7642680192
C 0.8525279318 -1.9823836206 -1.8576617778
C -0.3894477407 -1.2408369873 -2.4724590947
O -0.9251354841 -0.4489812463 -1.3494972647
C -2.0772902416 0.3084976495 -1.7152558492
C -2.5111944138 1.0807200467 -0.4209245244
C -3.4502273039 0.1980577939 0.5231585146
C -3.6715948802 -1.2436522699 -0.0663292344
O -4.2848605094 -1.530778291 -1.1181888665
O 2.1635562759 -1.1836095496 1.8730678061
O -3.0145095235 -2.216104023 0.7535787291
O -2.5735135136 0.3416603778 -2.8611589525
C -3.1513878337 -3.5607699697 0.1500689192
C -1.2662407271 1.3237593962 0.5445878958
C -1.6611372862 2.4199820361 1.6043156031
C -2.6612668126 1.6215508208 2.5194160533
C -2.6087811072 0.1880552778 1.8599168639
O -1.2260280287 0.0778524665 1.3511610098
H -3.0145413745 2.017968455 -0.7156064525
H -4.4401332253 0.6753714464 0.6438057963
H -0.2884558522 1.4875419453 0.0353321826
H -0.7644111528 2.7253533481 2.1661439231
H -2.1192352471 3.30809913 1.140205295
H -2.3078624618 1.5765398799 3.5616269468
H -3.6794629254 2.042791069 2.5086591522
H -2.8412349937 -0.6551273271 2.5373195535
O 3.4656968915 -2.1182244438 -1.1026319249
C 0.8929469564 -1.8269303967 2.3036764685
C 2.5891028529 2.3470146953 0.6299913397
C 3.7337744308 3.2029249254 -0.0364299536
C 3.7928693439 2.5740986588 -1.4783555581
C 2.7364208317 1.4114978144 -1.3367137003
O 1.6788878136 2.0217577851 -0.4984655307
H 4.0689764703 0.9491486125 1.6129478472
H 4.4671448957 0.2055137407 -0.590322205
H 0.0194878561 -1.2410342885 1.926624534
H 2.0222277791 2.8396096689 1.4434982451
H 3.4534069548 4.2675914827 -0.0690390732
H 4.6868880213 3.1060522682 0.5080358907
H 3.4702467746 3.2960272588 -2.2458755397
H 4.7944534396 2.1989339283 -1.7423801743
H 2.308314612 1.0382368565 -2.2870613596
H 0.8451948925 -1.8963080843 3.4097552896
H 0.9060062381 -2.8457210595 1.8747405879
H -2.6024645002 -4.2505186907 0.817276152
H -2.70921747 -3.5970874215 -0.8666403076
H -4.2129014056 -3.8758273808 0.0820788247
H -0.0855038705 -0.5746778204 -3.3097126723
H -1.1377987025 -1.9653811065 -2.8627805902
H 0.5382166621 -2.9619521994 -1.4349990868
H 1.63657975 -2.1722040951 -2.6195695223
$end

$rem
JOBTYPE                   OPT
METHOD                    B3LYP
DFT_D                     d3_op
BASIS                     STO-3G
GEOM_OPT_MAX_CYCLES       100
GEOM_OPT_TOL_GRADIENT     300
GEOM_OPT_TOL_DISPLACEMENT 1200
GEOM_OPT_TOL_ENERGY       100
SYMMETRY                  False
THRESH                    12
SCF_CONVERGENCE           8
MAX_SUB_FILE_NUM          128
MEM_STATIC                400
MEM_TOTAL                 4000
$end
--------------------------------------------------------------

   16   -1510.2783461769      6.11E-09 Convergence criterion met
 Total energy in the final basis set = -1510.27834618
   15   -1510.2784376155      2.31E-09 Convergence criterion met
 Total energy in the final basis set = -1510.27843762
   14   -1510.2823725529      6.84E-09 Convergence criterion met
 Total energy in the final basis set = -1510.28237255
   14   -1510.2786442646      6.12E-09 Convergence criterion met
 Total energy in the final basis set = -1510.27864426
   15   -1510.2837431847      2.26E-09 Convergence criterion met
 Total energy in the final basis set = -1510.28374318
   14   -1510.2853562131      2.15E-09 Convergence criterion met
 Total energy in the final basis set = -1510.28535621
   14   -1510.2876287132      3.14E-09 Convergence criterion met
 Total energy in the final basis set = -1510.28762871
   14   -1510.2897620582      3.31E-09 Convergence criterion met
   13   -1510.3031031176      2.29E-09 Convergence criterion met
 Total energy in the final basis set = -1510.30310312
   12   -1510.3031163393      5.36E-09 Convergence criterion met
 Total energy in the final basis set = -1510.30311634
   12   -1510.3031236381      4.52E-09 Convergence criterion met
 Total energy in the final basis set = -1510.30312364
   11   -1510.3031148847      8.53E-09 Convergence criterion met
 Total energy in the final basis set = -1510.30311488
   10   -1510.3031251068      8.25E-09 Convergence criterion met
 Total energy in the final basis set = -1510.30312511
    9   -1510.3031222826      8.87E-09 Convergence criterion met
 Total energy in the final basis set = -1510.30312228

             Standard Nuclear Orientation (Angstroms)
    I     Atom           X                Y                Z
 ----------------------------------------------------------------
    1      O       1.7058547588    -2.0313607616    -1.9134817261
    2      C       2.2576365932    -0.9298948717    -1.6902495077
    3      C       3.3921242719    -0.6774928881    -0.6285932259
    4      C       3.2794472513     0.6895796278     0.1698312735
    5      C       2.3215614664     1.7817089677    -0.4231114927
    6      O       0.9783550524     1.5031901199    -0.0079157240
    7      C       0.0709330745     2.5969453960    -0.4270473928
    8      C      -1.0395315553     2.7037996342     0.6729821708
    9      O      -1.7633598890     1.4163800263     0.7078389982
   10      C      -1.1988318785     0.5318804397     1.6892197034
   11      C      -1.6088899576    -0.9293434953     1.3017591980
   12      C      -2.9693994252    -1.0520128408     0.4961864598
   13      C      -3.8914900774     0.2177778205     0.6080437928
   14      O      -4.3783134745     0.6871840242     1.6596054100
   15      O       1.9295521772     0.2807798652    -2.3588491115
   16      O      -4.1769866623     0.7322691197    -0.7001289037
   17      O      -0.4344860503     0.8946144385     2.6085282096
   18      C      -5.0234380378     1.9397108987    -0.5868291701
   19      C      -0.5647559825    -1.3802782636     0.1900980162
   20      C      -0.7445632748    -2.9091773344    -0.1461884081
   21      C      -2.0516443605    -2.8964615310    -1.0222892700
   22      C      -2.4312593536    -1.3676499338    -0.9652072600
   23      O      -1.1111984421    -0.6939169927    -1.0071003918
   24      H      -1.5806005271    -1.5723835358     2.1982110657
   25      H      -3.5506561023    -1.9083403159     0.8856056319
   26      H       0.4863741380    -1.0826931560     0.4352668047
   27      H       0.1277591569    -3.2523816553    -0.7270049828
   28      H      -0.8422838228    -3.5242893879     0.7624743990
   29      H      -1.8428359415    -3.2024710175    -2.0600468270
   30      H      -2.8490259203    -3.5397569991    -0.6174350368
   31      H      -3.0828684751    -0.9958988832    -1.7784626057
   32      O       2.6654288872     2.8140364044    -1.0397813626
   33      C       0.6755867492     0.0934346586    -3.1380324739
   34      C       3.1874401119    -1.7215946384     0.5399912759
   35      C       4.4107960015    -1.6793389924     1.5349207043
   36      C       4.1066766590    -0.3653018551     2.3500661517
   37      C       2.8238436518     0.1607651496     1.6022241273
   38      O       2.0861877446    -1.0923433247     1.3120236642
   39      H       4.3789032485    -0.7726194667    -1.1182156479
   40      H       4.2775764541     1.1582090698     0.2318771824
   41      H      -0.1369295088    -0.2599022835    -2.4483880510
   42      H       2.8817074737    -2.7245895526     0.1831397731
   43      H       4.4132313267    -2.5688590013     2.1843906164
   44      H       5.3719432367    -1.6314278259     0.9982620959
   45      H       3.8705891150    -0.5912974775     3.4022985734
   46      H       4.9354619256     0.3596639434     2.3193757129
   47      H       2.1731874489     0.8531456113     2.1721455562
   48      H       0.8251740348    -0.6327969535    -3.9619344880
   49      H       0.4377450074     1.0861431501    -3.5605333935
   50      H      -5.2270425059     2.2695038664    -1.6223124806
   51      H      -4.5023227039     2.7490741676    -0.0355935706
   52      H      -5.9813883841     1.7252730905    -0.0699251074
   53      H      -0.5867458569     2.9133842108     1.6660072070
   54      H      -1.7710427757     3.4944439130     0.4088931174
   55      H      -0.3938764988     2.3420043752    -1.4036562443
   56      H       0.6423571021     3.5441631941    -0.5390102132
 ----------------------------------------------------------------

    9   -1510.3031225925      3.38E-09 Convergence criterion met
 Total energy in the final basis set = -1510.30312259
 Final energy is   -1510.30312259255
 **  OPTIMIZATION CONVERGED  **

                    Orbital Energies (a.u.)
 --------------------------------------------------------------

 Alpha MOs
 -- Occupied --
-18.933 -18.927 -18.926 -18.925 -18.903 -18.888 -18.871 -18.871
-18.866 -18.859 -10.098 -10.098 -10.095 -10.092 -10.072 -10.066
-10.064 -10.063 -10.060 -10.053 -10.041 -10.038 -10.037 -10.036
-10.030 -10.029 -10.025 -10.023 -10.011 -10.005  -1.014  -1.009
 -1.002  -0.998  -0.980  -0.965  -0.936  -0.933  -0.928  -0.926
 -0.766  -0.756  -0.728  -0.719  -0.710  -0.700  -0.693  -0.655
 -0.649  -0.613  -0.594  -0.578  -0.547  -0.541  -0.537  -0.525
 -0.513  -0.504  -0.483  -0.481  -0.468  -0.462  -0.442  -0.439
 -0.434  -0.426  -0.417  -0.413  -0.408  -0.405  -0.399  -0.397
 -0.386  -0.376  -0.370  -0.368  -0.361  -0.353  -0.346  -0.342
 -0.339  -0.338  -0.336  -0.335  -0.328  -0.328  -0.314  -0.310
 -0.308  -0.301  -0.299  -0.294  -0.291  -0.289  -0.286  -0.276
 -0.265  -0.249  -0.247  -0.245  -0.239  -0.233  -0.222  -0.178
 -0.171  -0.168  -0.163  -0.158  -0.154  -0.151  -0.146  -0.142
 -0.137

          Ground-State Mulliken Net Atomic Charges

     Atom                 Charge (a.u.)
  ----------------------------------------
      1 O                    -0.216916
      2 C                     0.212121
      3 C                    -0.078727
      4 C                    -0.081909
      5 C                     0.217630
      6 O                    -0.178297
      7 C                    -0.050379
      8 C                    -0.048307
      9 O                    -0.173528
     10 C                     0.220495
     11 C                    -0.077554
     12 C                    -0.078568
     13 C                     0.216789
     14 O                    -0.223891
     15 O                    -0.169377
     16 O                    -0.171438
     17 O                    -0.214806
     18 C                    -0.126858
     19 C                     0.010549
     20 C                    -0.148937
     21 C                    -0.144109
     22 C                     0.025825
     23 O                    -0.194075
     24 H                     0.085774
     25 H                     0.082290
     26 H                     0.112750
     27 H                     0.087402
     28 H                     0.070980
     29 H                     0.076666
     30 H                     0.071218
     31 H                     0.090941
     32 O                    -0.218723
     33 C                    -0.147600
     34 C                     0.024406
     35 C                    -0.144444
     36 C                    -0.142332
     37 C                     0.025679
     38 O                    -0.187272
     39 H                     0.086460
     40 H                     0.085045
     41 H                     0.121305
     42 H                     0.092255
     43 H                     0.079887
     44 H                     0.075293
     45 H                     0.080785
     46 H                     0.075485
     47 H                     0.096937
     48 H                     0.079683
     49 H                     0.080392
     50 H                     0.087419
     51 H                     0.086056
     52 H                     0.087907
     53 H                     0.098620
     54 H                     0.087318
     55 H                     0.089855
     56 H                     0.095827
  ----------------------------------------
  Sum of atomic charges =     0.000000

                    Cartesian Multipole Moments
 -----------------------------------------------------------------
    Charge (ESU x 10^10)
                 0.0000
    Dipole Moment (Debye)
         X       0.6367      Y      -0.4318      Z      -0.5522
       Tot       0.9470
    Quadrupole Moments (Debye-Ang)
        XX    -148.8616     XY      -5.6335     YY    -155.2702
        XZ      11.1091     YZ      -1.8583     ZZ    -165.3812

 Total job time:  128.50s(wall), 6128.47s(cpu)
        *  Thank you very much for using Q-Chem.  Have a nice day.  *
