 Q-Chem 5.0, Q-Chem, Inc., Pleasanton, CA (2017)
 Q-Chem 5.0.1 for Intel X86 EM64T Linux

User input:
--------------------------------------------------------------
$molecule
0  1
O -5.3384454644 0.271957487 1.1943223258
C -4.9587150639 -0.2212476974 0.1104365514
C -3.68692951 -1.11283704 -0.1356310233
C -2.4582654183 -0.3922940742 -0.8403733248
C -2.6587530885 1.1822230306 -0.8184257765
O -1.5323018899 2.0765572708 -1.0161307166
C -0.7888619585 2.3527949122 0.2381114228
C 0.7392191756 1.9641412423 0.0928076571
O 1.2787648295 1.8285746449 1.4681910641
C 2.2276061686 0.7423523976 1.5977766419
C 3.6224758234 0.8450662452 0.8240592939
C 4.1175795547 -0.5336140217 0.2318500397
C 2.8960911106 -1.3839768368 -0.2835769617
O 1.7199438207 -1.3503733491 0.1424020074
O -5.7442112998 -0.2424164223 -1.0936149455
O 3.3389788665 -2.2785674879 -1.3031771086
O 2.0983313771 -0.0342969954 2.5683630235
C 2.2084173641 -3.1043820885 -1.788522818
C 3.9161408683 1.8252454891 -0.3940367427
C 5.4383528664 2.2294890203 -0.284902698
C 6.13173878 0.8619433181 -0.6374991561
C 4.8893656191 -0.0191131183 -1.0540787418
O 3.9027229099 0.9550430493 -1.5941317516
H 4.31069007 1.12684532 1.6443218394
H 4.7308769056 -1.123771228 0.9362208105
H 3.2244392134 2.6768876284 -0.5132489513
H 5.6773484855 3.0030251857 -1.0325086146
H 5.7083049502 2.6063933362 0.7145152661
H 6.8380684525 0.9646646598 -1.4760895924
H 6.6657821975 0.4256146439 0.2219636276
H 5.0918848558 -0.8137751291 -1.7971597947
O -3.8055885891 1.6865694929 -0.7744721354
C -6.9375062908 0.6143188495 -0.9252728571
C -3.0191272426 -1.6227307849 1.2132351137
C -2.2970339398 -2.9833529293 0.8881420699
C -1.1327655423 -2.4654095424 -0.0321757487
C -1.291050756 -0.8975316254 0.0981070419
O -1.884288007 -0.6951143428 1.4411056684
H -4.0120447102 -1.9671883328 -0.7557158997
H -2.3337619931 -0.7097712564 -1.8928902803
H -6.652379222 1.6808535274 -0.8150736103
H -3.7012285412 -1.6221179505 2.085444335
H -1.9076437039 -3.4429518394 1.8108647225
H -2.9588297064 -3.7040805367 0.3817021876
H -0.1379300589 -2.7589110381 0.3368466771
H -1.237436137 -2.8013063136 -1.0764548883
H -0.3303027367 -0.3663746691 0.0051990087
H -7.5365431248 0.316402764 -0.0403858918
H -7.5412472307 0.486842109 -1.8428044311
H 2.6074796547 -3.7009833881 -2.6292614034
H 1.3666506728 -2.4755533255 -2.1423733083
H 1.8328531298 -3.784937751 -0.9971017615
H 0.8475678158 1.0309434722 -0.4967876319
H 1.2594563719 2.7747663362 -0.4615176269
H -1.2043372717 1.7920309975 1.1039707458
H -0.8727899697 3.4396685569 0.4561115325
$end

$rem
JOBTYPE                   OPT
METHOD                    B3LYP
DFT_D                     d3_op
BASIS                     STO-3G
GEOM_OPT_MAX_CYCLES       100
GEOM_OPT_TOL_GRADIENT     300
GEOM_OPT_TOL_DISPLACEMENT 1200
GEOM_OPT_TOL_ENERGY       100
SYMMETRY                  False
THRESH                    12
SCF_CONVERGENCE           8
MAX_SUB_FILE_NUM          128
MEM_STATIC                400
MEM_TOTAL                 4000
$end
--------------------------------------------------------------

   16   -1510.2308062486      5.89E-09 Convergence criterion met
 Total energy in the final basis set = -1510.23080625
   14   -1510.2339493034      2.13E-09 Convergence criterion met
 Total energy in the final basis set = -1510.23394930
   14   -1510.2382402265      3.61E-09 Convergence criterion met
 Total energy in the final basis set = -1510.23824023
   13   -1510.2405822507      7.47E-09 Convergence criterion met
 Total energy in the final basis set = -1510.24058225
   13   -1510.2430806940      6.87E-09 Convergence criterion met
 Total energy in the final basis set = -1510.24308069
   13   -1510.2455805794      6.16E-09 Convergence criterion met
 Total energy in the final basis set = -1510.24558058
   13   -1510.2476406501      4.52E-09 Convergence criterion met
 Total energy in the final basis set = -1510.24764065
   13   -1510.2494938816      4.08E-09 Convergence criterion met
   11   -1510.2911735079      7.15E-09 Convergence criterion met
 Total energy in the final basis set = -1510.29117351
   10   -1510.2911781206      7.71E-09 Convergence criterion met
 Total energy in the final basis set = -1510.29117812
    9   -1510.2911764970      7.28E-09 Convergence criterion met
 Total energy in the final basis set = -1510.29117650
    9   -1510.2911760713      5.75E-09 Convergence criterion met
 Total energy in the final basis set = -1510.29117607
    9   -1510.2911766494      3.36E-09 Convergence criterion met
 Total energy in the final basis set = -1510.29117665
    9   -1510.2911753513      2.56E-09 Convergence criterion met
 Total energy in the final basis set = -1510.29117535

             Standard Nuclear Orientation (Angstroms)
    I     Atom           X                Y                Z
 ----------------------------------------------------------------
    1      O      -3.6468208921     0.9194900712    -1.3826973868
    2      C      -2.5353460457     0.3533071830    -1.4308912596
    3      C      -2.1934488640    -1.1375404392    -1.0620629172
    4      C      -1.3280234768    -1.3039197535     0.2517016895
    5      C      -1.0906340551     0.0480873575     1.0038446134
    6      O      -0.0828276899    -0.1666428187     1.9951371228
    7      C       0.2334044253     1.0932756300     2.7169946183
    8      C       1.0752691714     2.1041139648     1.8405195076
    9      O       2.4693998390     2.1859513551     2.3317079364
   10      C       3.5271164009     1.6830850603     1.5072497372
   11      C       3.3718454833     1.3358213611    -0.0526454290
   12      C       2.7378613002    -0.0755531510    -0.4005774814
   13      C       2.3443963218    -0.8841690239     0.8826207463
   14      O       2.7045664960    -0.6158505034     2.0503224383
   15      O      -1.3416912440     0.9377575025    -1.9702011121
   16      O       1.6084717147    -2.0603691684     0.5235898828
   17      O       4.6677698441     1.6617265931     2.0253251793
   18      C       1.3156618294    -2.8412990295     1.7535811728
   19      C       2.4882844326     2.2898444074    -0.9594705888
   20      C       2.8900777550     2.0706331357    -2.4686766242
   21      C       2.1947056108     0.6918285502    -2.7820632433
   22      C       1.5613911095     0.3393374097    -1.3833540022
   23      O       1.1349025573     1.6752628386    -0.8949819826
   24      H       4.4173160875     1.3600872707    -0.4078790736
   25      H       3.4669501834    -0.7005007126    -0.9496360070
   26      H       2.4448440641     3.3451217629    -0.6275005941
   27      H       2.4829286586     2.8788883823    -3.0968253458
   28      H       3.9828947821     2.0359862492    -2.6021601101
   29      H       1.3985047126     0.8058546581    -3.5349250767
   30      H       2.9039743989    -0.0773028848    -3.1269734406
   31      H       0.6939659093    -0.3446104408    -1.4176905328
   32      O      -1.6619446147     1.1434560244     0.8049269455
   33      C      -1.5557716159     2.3734637029    -2.2484262126
   34      C      -3.4906586912    -1.9655224491    -0.6833224980
   35      C      -3.1479896915    -3.4998580426    -0.8115866415
   36      C      -2.2297577462    -3.7075260076     0.4499122185
   37      C      -2.2674182622    -2.2665241142     1.0996332783
   38      O      -3.6236682884    -1.7686460494     0.7799589146
   39      H      -1.6680080841    -1.5862021931    -1.9246025107
   40      H      -0.3330332287    -1.7560918813     0.0651561575
   41      H      -1.9680043816     2.8966135260    -1.3622689794
   42      H      -4.4096004348    -1.6291067823    -1.2012435739
   43      H      -4.0651193048    -4.1066458910    -0.7454403380
   44      H      -2.6344101717    -3.7368448424    -1.7569635531
   45      H      -2.6508169006    -4.4543978820     1.1415563071
   46      H      -1.2058112210    -4.0119372326     0.1805550920
   47      H      -2.0863909087    -2.2364127412     2.1917055583
   48      H      -2.2445444301     2.5259529986    -3.1053582942
   49      H      -0.5579395762     2.7838262174    -2.4892558181
   50      H       0.7826482064    -3.7494843482     1.4196626911
   51      H       0.6706654926    -2.2455633353     2.4316953821
   52      H       2.2469108031    -3.1223165152     2.2841410820
   53      H       0.9953248935     1.8295751530     0.7525638701
   54      H       0.6465481375     3.1186731990     1.9772729155
   55      H       0.8238336473     0.7813055476     3.6022401888
   56      H      -0.7078418296     1.5787160129     3.0506994811
 ----------------------------------------------------------------

    8   -1510.2911727839      8.66E-09 Convergence criterion met
 Total energy in the final basis set = -1510.29117278
 Final energy is   -1510.29117278390
 **  OPTIMIZATION CONVERGED  **

                    Orbital Energies (a.u.)
 --------------------------------------------------------------

 Alpha MOs
 -- Occupied --
-18.953 -18.936 -18.925 -18.920 -18.914 -18.895 -18.887 -18.883
-18.863 -18.851 -10.116 -10.103 -10.091 -10.090 -10.079 -10.077
-10.071 -10.065 -10.062 -10.057 -10.054 -10.052 -10.041 -10.040
-10.036 -10.034 -10.033 -10.032 -10.023 -10.021  -1.028  -1.016
 -1.000  -0.998  -0.987  -0.970  -0.951  -0.941  -0.925  -0.918
 -0.777  -0.763  -0.734  -0.725  -0.720  -0.710  -0.692  -0.672
 -0.654  -0.611  -0.606  -0.580  -0.562  -0.553  -0.545  -0.538
 -0.523  -0.508  -0.491  -0.478  -0.474  -0.458  -0.456  -0.452
 -0.443  -0.434  -0.425  -0.421  -0.417  -0.411  -0.404  -0.402
 -0.389  -0.388  -0.377  -0.368  -0.364  -0.362  -0.358  -0.349
 -0.348  -0.341  -0.339  -0.334  -0.332  -0.328  -0.325  -0.321
 -0.314  -0.313  -0.307  -0.304  -0.300  -0.286  -0.282  -0.278
 -0.274  -0.267  -0.260  -0.251  -0.244  -0.234  -0.229  -0.193
 -0.187  -0.171  -0.166  -0.162  -0.156  -0.149  -0.145  -0.142
 -0.133

          Ground-State Mulliken Net Atomic Charges

     Atom                 Charge (a.u.)
  ----------------------------------------
      1 O                    -0.213902
      2 C                     0.215925
      3 C                    -0.083130
      4 C                    -0.090357
      5 C                     0.210332
      6 O                    -0.181057
      7 C                    -0.053707
      8 C                    -0.080074
      9 O                    -0.176156
     10 C                     0.211364
     11 C                    -0.086857
     12 C                    -0.084020
     13 C                     0.216518
     14 O                    -0.198263
     15 O                    -0.180293
     16 O                    -0.170834
     17 O                    -0.213211
     18 C                    -0.131773
     19 C                     0.021258
     20 C                    -0.142929
     21 C                    -0.141652
     22 C                     0.026900
     23 O                    -0.180441
     24 H                     0.088859
     25 H                     0.089729
     26 H                     0.089454
     27 H                     0.080672
     28 H                     0.079110
     29 H                     0.084181
     30 H                     0.077126
     31 H                     0.099001
     32 O                    -0.206170
     33 C                    -0.126804
     34 C                     0.024839
     35 C                    -0.143626
     36 C                    -0.144098
     37 C                     0.023905
     38 O                    -0.188506
     39 H                     0.079472
     40 H                     0.095760
     41 H                     0.095461
     42 H                     0.089670
     43 H                     0.078137
     44 H                     0.072617
     45 H                     0.077491
     46 H                     0.070511
     47 H                     0.081552
     48 H                     0.081708
     49 H                     0.088082
     50 H                     0.088403
     51 H                     0.103764
     52 H                     0.092737
     53 H                     0.116489
     54 H                     0.077823
     55 H                     0.099160
     56 H                     0.089852
  ----------------------------------------
  Sum of atomic charges =     0.000000

                    Cartesian Multipole Moments
 -----------------------------------------------------------------
    Charge (ESU x 10^10)
                -0.0000
    Dipole Moment (Debye)
         X       0.9495      Y      -2.5543      Z      -3.6614
       Tot       4.5642
    Quadrupole Moments (Debye-Ang)
        XX    -184.0507     XY       0.0561     YY    -149.7939
        XZ     -14.5872     YZ      -7.1025     ZZ    -159.6248

 Total job time:  249.22s(wall), 11885.91s(cpu)
        *  Thank you very much for using Q-Chem.  Have a nice day.  *
