 Q-Chem 5.0, Q-Chem, Inc., Pleasanton, CA (2017)
 Q-Chem 5.0.1 for Intel X86 EM64T Linux

User input:
--------------------------------------------------------------
$molecule
0  1
O -3.94934 -3.66094 2.70899
C -3.26408 -4.56952 2.26188
C -3.36658 -6.02376 2.66595
C -2.27333 -6.57303 3.59705
C -1.29943 -5.56331 4.16282
O -0.6758 -6.0847 5.26039
C -1.42233 -5.90843 6.46905
C -1.682 -7.25908 7.12819
O -2.76908 -7.14786 8.06027
C -3.60682 -8.21321 8.10887
C -2.94313 -9.45964 8.64421
C -3.3689 -10.76557 7.95751
C -4.09662 -10.61108 6.63719
O -4.78522 -9.65363 6.31518
O -2.2761 -4.2688 1.37687
O -4.24123 -11.78312 5.95712
O -4.80824 -8.03295 8.2475
C -4.97048 -11.9874 4.80562
C -1.42134 -9.69843 8.7665
C -1.11521 -10.78655 9.80966
C -1.48688 -12.03266 9.04426
C -1.97916 -11.41407 7.74154
O -1.1018 -10.32811 7.55342
H -3.31656 -9.4728 9.69336
H -4.01348 -11.41883 8.58777
H -0.84142 -8.81887 9.08949
H -0.01972 -10.81471 10.00793
H -1.65661 -10.64056 10.76925
H -0.55667 -12.60403 8.82413
H -2.22365 -12.69886 9.54269
H -1.96904 -12.18556 6.94126
O -1.21603 -4.37542 3.89523
C -2.01258 -2.9988 0.90787
C -4.68954 -6.32463 3.39141
C -5.14564 -7.70615 2.98202
C -3.99526 -8.5019 3.53158
C -3.29956 -7.42224 4.41569
O -4.3132 -6.51067 4.7218
H -3.38462 -6.55746 1.68569
H -1.61259 -7.28445 3.05458
H -1.74557 -2.32659 1.75119
H -5.50803 -5.5911 3.22206
H -6.07066 -7.91201 3.56952
H -5.35038 -7.87424 1.90259
H -4.4428 -9.34044 4.06676
H -3.28645 -8.89721 2.77137
H -2.96275 -8.00625 5.22106
H -2.89965 -2.59679 0.37329
H -1.15841 -3.04195 0.20151
H -4.97339 -13.07215 4.57443
H -4.49749 -11.4769 3.94667
H -6.02002 -11.65124 4.94416
H -1.61101 -8.18266 6.54362
H -0.73157 -7.35192 7.68143
H -2.41692 -5.44365 6.2643
H -0.90494 -5.21254 7.16641
$end

$opt
CONSTRAINT
tors           1           2           3           4    -104.211
tors           3           4           5           6    +161.053
tors           4           5           6           7     -85.263
tors           5           6           7           8    +123.158
tors           6           7           8           9    -161.053
tors           7           8           9          10    +142.105
tors           8           9          10          11     +66.316
tors           9          10          11          12    -142.105
tors          11          12          13          14     -28.421
ENDCONSTRAINT
$end

$rem
JOBTYPE                   OPT
METHOD                    B3LYP
DFT_D                     d3_op
BASIS                     STO-3G
GEOM_OPT_MAX_CYCLES       100
GEOM_OPT_TOL_GRADIENT     300
GEOM_OPT_TOL_DISPLACEMENT 1200
GEOM_OPT_TOL_ENERGY       100
SYMMETRY                  False
THRESH                    12
SCF_CONVERGENCE           8
MAX_SUB_FILE_NUM          128
MEM_STATIC                400
MEM_TOTAL                 4000
$end
--------------------------------------------------------------

   16   -1510.0442590689      2.81E-09 Convergence criterion met
 Total energy in the final basis set = -1510.04425907
   14   -1510.1243254415      4.81E-09 Convergence criterion met
 Total energy in the final basis set = -1510.12432544
   14   -1510.1700440349      8.83E-09 Convergence criterion met
 Total energy in the final basis set = -1510.17004403
   14   -1510.1994367828      6.88E-09 Convergence criterion met
 Total energy in the final basis set = -1510.19943678
   14   -1510.2148482476      4.69E-09 Convergence criterion met
 Total energy in the final basis set = -1510.21484825
   13   -1510.2226832316      9.06E-09 Convergence criterion met
 Total energy in the final basis set = -1510.22268323
   13   -1510.2265214897      5.88E-09 Convergence criterion met
 Total energy in the final basis set = -1510.22652149
   13   -1510.2280350006      4.43E-09 Convergence criterion met
   11   -1510.2306669016      8.07E-09 Convergence criterion met
 Total energy in the final basis set = -1510.23066690
   12   -1510.2306960758      2.90E-09 Convergence criterion met
 Total energy in the final basis set = -1510.23069608
   12   -1510.2307176793      2.87E-09 Convergence criterion met
 Total energy in the final basis set = -1510.23071768
   11   -1510.2307257113      7.05E-09 Convergence criterion met
 Total energy in the final basis set = -1510.23072571
   10   -1510.2307324563      9.05E-09 Convergence criterion met
 Total energy in the final basis set = -1510.23073246
    9   -1510.2307338833      7.88E-09 Convergence criterion met
 Total energy in the final basis set = -1510.23073388

             Standard Nuclear Orientation (Angstroms)
    I     Atom           X                Y                Z
 ----------------------------------------------------------------
    1      O      -5.3384454644     0.2719574870     1.1943223258
    2      C      -4.9587150639    -0.2212476974     0.1104365514
    3      C      -3.6869295100    -1.1128370400    -0.1356310233
    4      C      -2.4582654183    -0.3922940742    -0.8403733248
    5      C      -2.6587530885     1.1822230306    -0.8184257765
    6      O      -1.5323018899     2.0765572708    -1.0161307166
    7      C      -0.7888619585     2.3527949122     0.2381114228
    8      C       0.7392191756     1.9641412423     0.0928076571
    9      O       1.2787648295     1.8285746449     1.4681910641
   10      C       2.2276061686     0.7423523976     1.5977766419
   11      C       3.6224758234     0.8450662452     0.8240592939
   12      C       4.1175795547    -0.5336140217     0.2318500397
   13      C       2.8960911106    -1.3839768368    -0.2835769617
   14      O       1.7199438207    -1.3503733491     0.1424020074
   15      O      -5.7442112998    -0.2424164223    -1.0936149455
   16      O       3.3389788665    -2.2785674879    -1.3031771086
   17      O       2.0983313771    -0.0342969954     2.5683630235
   18      C       2.2084173641    -3.1043820885    -1.7885228180
   19      C       3.9161408683     1.8252454891    -0.3940367427
   20      C       5.4383528664     2.2294890203    -0.2849026980
   21      C       6.1317387800     0.8619433181    -0.6374991561
   22      C       4.8893656191    -0.0191131183    -1.0540787418
   23      O       3.9027229099     0.9550430493    -1.5941317516
   24      H       4.3106900700     1.1268453200     1.6443218394
   25      H       4.7308769056    -1.1237712280     0.9362208105
   26      H       3.2244392134     2.6768876284    -0.5132489513
   27      H       5.6773484855     3.0030251857    -1.0325086146
   28      H       5.7083049502     2.6063933362     0.7145152661
   29      H       6.8380684525     0.9646646598    -1.4760895924
   30      H       6.6657821975     0.4256146439     0.2219636276
   31      H       5.0918848558    -0.8137751291    -1.7971597947
   32      O      -3.8055885891     1.6865694929    -0.7744721354
   33      C      -6.9375062908     0.6143188495    -0.9252728571
   34      C      -3.0191272426    -1.6227307849     1.2132351137
   35      C      -2.2970339398    -2.9833529293     0.8881420699
   36      C      -1.1327655423    -2.4654095424    -0.0321757487
   37      C      -1.2910507560    -0.8975316254     0.0981070419
   38      O      -1.8842880070    -0.6951143428     1.4411056684
   39      H      -4.0120447102    -1.9671883328    -0.7557158997
   40      H      -2.3337619931    -0.7097712564    -1.8928902803
   41      H      -6.6523792220     1.6808535274    -0.8150736103
   42      H      -3.7012285412    -1.6221179505     2.0854443350
   43      H      -1.9076437039    -3.4429518394     1.8108647225
   44      H      -2.9588297064    -3.7040805367     0.3817021876
   45      H      -0.1379300589    -2.7589110381     0.3368466771
   46      H      -1.2374361370    -2.8013063136    -1.0764548883
   47      H      -0.3303027367    -0.3663746691     0.0051990087
   48      H      -7.5365431248     0.3164027640    -0.0403858918
   49      H      -7.5412472307     0.4868421090    -1.8428044311
   50      H       2.6074796547    -3.7009833881    -2.6292614034
   51      H       1.3666506728    -2.4755533255    -2.1423733083
   52      H       1.8328531298    -3.7849377510    -0.9971017615
   53      H       0.8475678158     1.0309434722    -0.4967876319
   54      H       1.2594563719     2.7747663362    -0.4615176269
   55      H      -1.2043372717     1.7920309975     1.1039707458
   56      H      -0.8727899697     3.4396685569     0.4561115325
 ----------------------------------------------------------------

    9   -1510.2307345162      5.79E-09 Convergence criterion met
 Total energy in the final basis set = -1510.23073452
 Final energy is   -1510.23073451618
 **  OPTIMIZATION CONVERGED  **

                    Orbital Energies (a.u.)
 --------------------------------------------------------------

 Alpha MOs
 -- Occupied --
-18.953 -18.914 -18.914 -18.908 -18.905 -18.893 -18.892 -18.882
-18.881 -18.854 -10.115 -10.112 -10.103 -10.086 -10.077 -10.071
-10.070 -10.067 -10.066 -10.053 -10.052 -10.049 -10.048 -10.039
-10.039 -10.028 -10.027 -10.026 -10.014 -10.012  -1.029  -1.011
 -1.000  -0.991  -0.978  -0.965  -0.952  -0.939  -0.931  -0.919
 -0.769  -0.758  -0.731  -0.717  -0.711  -0.702  -0.699  -0.674
 -0.649  -0.606  -0.599  -0.584  -0.553  -0.545  -0.541  -0.533
 -0.523  -0.507  -0.492  -0.481  -0.468  -0.459  -0.451  -0.445
 -0.440  -0.439  -0.427  -0.425  -0.417  -0.405  -0.400  -0.397
 -0.394  -0.386  -0.379  -0.375  -0.363  -0.360  -0.350  -0.346
 -0.339  -0.337  -0.336  -0.332  -0.326  -0.324  -0.322  -0.317
 -0.315  -0.310  -0.306  -0.301  -0.297  -0.292  -0.281  -0.271
 -0.269  -0.266  -0.242  -0.240  -0.240  -0.234  -0.229  -0.193
 -0.176  -0.166  -0.162  -0.159  -0.156  -0.150  -0.145  -0.140
 -0.136

          Ground-State Mulliken Net Atomic Charges

     Atom                 Charge (a.u.)
  ----------------------------------------
      1 O                    -0.222116
      2 C                     0.213908
      3 C                    -0.083165
      4 C                    -0.079578
      5 C                     0.225833
      6 O                    -0.197541
      7 C                    -0.046598
      8 C                    -0.047541
      9 O                    -0.184465
     10 C                     0.217843
     11 C                    -0.087424
     12 C                    -0.076294
     13 C                     0.217248
     14 O                    -0.213733
     15 O                    -0.176084
     16 O                    -0.166482
     17 O                    -0.188647
     18 C                    -0.127410
     19 C                     0.019086
     20 C                    -0.141225
     21 C                    -0.145825
     22 C                     0.021958
     23 O                    -0.195557
     24 H                     0.085202
     25 H                     0.091723
     26 H                     0.083884
     27 H                     0.078787
     28 H                     0.075250
     29 H                     0.079469
     30 H                     0.075118
     31 H                     0.091818
     32 O                    -0.171673
     33 C                    -0.128436
     34 C                     0.023413
     35 C                    -0.142773
     36 C                    -0.146077
     37 C                     0.018893
     38 O                    -0.192048
     39 H                     0.082966
     40 H                     0.086605
     41 H                     0.090525
     42 H                     0.089076
     43 H                     0.078361
     44 H                     0.071629
     45 H                     0.086321
     46 H                     0.066356
     47 H                     0.089462
     48 H                     0.086538
     49 H                     0.085166
     50 H                     0.094199
     51 H                     0.091711
     52 H                     0.090694
     53 H                     0.086317
     54 H                     0.076678
     55 H                     0.101432
     56 H                     0.087224
  ----------------------------------------
  Sum of atomic charges =    -0.000000

                    Cartesian Multipole Moments
 -----------------------------------------------------------------
    Charge (ESU x 10^10)
                -0.0000
    Dipole Moment (Debye)
         X       3.7388      Y      -1.9916      Z      -2.7822
       Tot       5.0681
    Quadrupole Moments (Debye-Ang)
        XX    -148.5998     XY       7.2930     YY    -151.6446
        XZ       4.5317     YZ       4.3137     ZZ    -169.8098

 Total job time:  81.10s(wall), 3864.21s(cpu)
        *  Thank you very much for using Q-Chem.  Have a nice day.  *
