 Q-Chem 5.0, Q-Chem, Inc., Pleasanton, CA (2017)
 Q-Chem 5.0.1 for Intel X86 EM64T Linux

User input:
--------------------------------------------------------------
$molecule
0  1
O -4.9601348177 1.3637552022 1.7706991041
C -4.4973545502 1.4126817885 0.6124945344
C -4.660017182 0.3657112804 -0.5450004623
C -3.5894695148 -0.812165867 -0.4873741692
C -2.5288060254 -0.6090182531 0.6534624369
O -1.18513497 -0.6086433397 0.093726681
C -0.5367500906 0.6682279176 0.4758610538
C 0.9079959327 0.6646560379 -0.1280088409
O 1.5031983351 -0.6480299239 0.2010983559
C 2.6396528057 -1.0082855077 -0.6171659248
C 3.5224102739 0.1675413497 -1.2144388742
C 4.3137197896 1.0217859991 -0.1336748238
C 4.0542429824 0.61308822 1.3563275532
O 3.9575281603 1.377953449 2.3410900264
O -3.5850350663 2.4279819281 0.1591427726
O 4.027158381 -0.8122150075 1.4340442425
O 2.8678649325 -2.221644919 -0.8002012971
C 3.7125295894 -1.2578847013 2.80975905
C 4.7233246 -0.4496666298 -2.045453453
C 5.3512499737 0.6837162088 -2.9471087662
C 6.1436868724 1.5210643168 -1.8753673184
C 5.8186228081 0.7111921361 -0.5580781757
O 5.7617711452 -0.6921571214 -1.0167094579
H 2.8970138544 0.8208363754 -1.8469546433
H 4.0882808901 2.0990825082 -0.2247595211
H 4.4679504391 -1.3955304479 -2.5611182629
H 6.0273531815 0.2472286992 -3.6992992922
H 4.5819717122 1.2763973235 -3.4675430601
H 7.2273037914 1.5091005381 -2.0730862673
H 5.8067199832 2.5682543404 -1.8155256387
H 6.5567189137 0.8256272304 0.2595487543
O -2.7658695054 -0.4337703301 1.8669641068
C -3.3151794992 3.3840930736 1.2580308617
C -6.0080352147 -0.4531691011 -0.3730022607
C -6.2988374192 -1.2370727565 -1.7133039178
C -5.2547174043 -2.4107316888 -1.6122783917
C -4.5429001309 -2.065315779 -0.2455219816
O -5.6354260464 -1.5181033762 0.5863525409
H -4.6065872702 0.8951646364 -1.512828167
H -3.0417772679 -0.8983418429 -1.4419003517
H -2.8966668692 2.8710572109 2.1482016792
H -6.8530361866 0.1416740172 0.0241267112
H -7.3333736865 -1.615263372 -1.722100962
H -6.1445753215 -0.606509225 -2.6035853635
H -5.7540525029 -3.3905732757 -1.5459993861
H -4.5489245347 -2.4311869532 -2.4579041791
H -4.0565486521 -2.9195899201 0.2643195691
H -4.2334621225 3.9247681823 1.5651543631
H -2.5775667908 4.1065545179 0.8626436432
H 3.7608237537 -2.3619350952 2.7878572158
H 2.6943678989 -0.938056809 3.1122743682
H 4.4454415818 -0.8629602147 3.5424375585
H 0.8376004014 0.8135587389 -1.2263591557
H 1.4867736191 1.5119225603 0.3050531617
H -0.485433394 0.7705798614 1.5832550808
H -1.1057392241 1.5382900451 0.0730290198
$end

$rem
JOBTYPE                   OPT
METHOD                    B3LYP
DFT_D                     d3_op
BASIS                     STO-3G
GEOM_OPT_MAX_CYCLES       100
GEOM_OPT_TOL_GRADIENT     300
GEOM_OPT_TOL_DISPLACEMENT 1200
GEOM_OPT_TOL_ENERGY       100
SYMMETRY                  False
THRESH                    12
SCF_CONVERGENCE           8
MAX_SUB_FILE_NUM          128
MEM_STATIC                400
MEM_TOTAL                 4000
$end
--------------------------------------------------------------

   16   -1510.2539608280      5.90E-09 Convergence criterion met
 Total energy in the final basis set = -1510.25396083
   14   -1510.2581853297      3.34E-09 Convergence criterion met
 Total energy in the final basis set = -1510.25818533
   13   -1510.2622632515      6.42E-09 Convergence criterion met
 Total energy in the final basis set = -1510.26226325
   13   -1510.2662509993      8.55E-09 Convergence criterion met
 Total energy in the final basis set = -1510.26625100
   13   -1510.2694456590      9.10E-09 Convergence criterion met
 Total energy in the final basis set = -1510.26944566
   13   -1510.2715263321      3.95E-09 Convergence criterion met
 Total energy in the final basis set = -1510.27152633
   13   -1510.2727286414      5.92E-09 Convergence criterion met
 Total energy in the final basis set = -1510.27272864
   13   -1510.2737036775      2.89E-09 Convergence criterion met
   11   -1510.2902125783      6.76E-09 Convergence criterion met
 Total energy in the final basis set = -1510.29021258
   11   -1510.2902248881      8.16E-09 Convergence criterion met
 Total energy in the final basis set = -1510.29022489
   12   -1510.2902401021      3.56E-09 Convergence criterion met
 Total energy in the final basis set = -1510.29024010
   10   -1510.2902402949      7.08E-09 Convergence criterion met
 Total energy in the final basis set = -1510.29024029
   10   -1510.2902402765      6.68E-09 Convergence criterion met
 Total energy in the final basis set = -1510.29024028
    9   -1510.2902415575      9.92E-09 Convergence criterion met
 Total energy in the final basis set = -1510.29024156

             Standard Nuclear Orientation (Angstroms)
    I     Atom           X                Y                Z
 ----------------------------------------------------------------
    1      O      -2.9026899390     2.1951020174     1.4572954756
    2      C      -3.4434916777     1.6606480956     0.4663117461
    3      C      -3.7294988945     0.1282084073     0.2448618971
    4      C      -2.7681674082    -0.5533459475    -0.8185149963
    5      C      -1.8071699333     0.4615324623    -1.5130464312
    6      O      -1.4995038767    -0.0060446308    -2.8408743128
    7      C      -0.3094319758     0.7252537100    -3.3330536199
    8      C       0.9902220872     0.0375409692    -2.7416987033
    9      O       0.5117333801    -0.6185734681    -1.5084553775
   10      C       1.4709253174    -1.3734923151    -0.7538150623
   11      C       2.9956568854    -1.0096852722    -0.8993125065
   12      C       3.3474082152     0.4593834343    -0.4047993381
   13      C       2.0981638163     1.2737969574     0.0895893293
   14      O       1.7670769470     2.4227911900    -0.2816599734
   15      O      -4.0070510567     2.3795963458    -0.6401943878
   16      O       1.3903216747     0.4642973598     1.0181174149
   17      O       1.0006679739    -2.2720083008    -0.0182548301
   18      C       0.1463716990     1.1263333810     1.4926257771
   19      C       3.8588561660    -1.8845814802     0.1005873674
   20      C       5.3728186884    -1.7816523564    -0.3358987293
   21      C       5.7303328898    -0.3289467330     0.1529877122
   22      C       4.3547251904     0.1288748491     0.7825434945
   23      O       3.8066641857    -1.1150595126     1.3644753499
   24      H       3.3112628363    -1.1628872678    -1.9470219507
   25      H       3.8422935736     1.0456267743    -1.1991616453
   26      H       3.4635227066    -2.9070807515     0.2558469781
   27      H       5.9761493881    -2.5429458241     0.1834386545
   28      H       5.5010411616    -1.9099038271    -1.4225937425
   29      H       6.5187825937    -0.3435360759     0.9223106342
   30      H       6.0509881121     0.3307144478    -0.6691737544
   31      H       4.4283128745     0.9198151032     1.5539655646
   32      O      -1.3873620808     1.5436462342    -1.0450013765
   33      C      -3.6777806337     3.8170789606    -0.5193933315
   34      C      -3.3802338824    -0.6949459075     1.5492854283
   35      C      -3.9809302778    -2.1472945395     1.4152881881
   36      C      -2.9798170426    -2.8006364161     0.3889024766
   37      C      -1.9923384343    -1.6030052255     0.1075511789
   38      O      -1.9218424103    -0.9231181126     1.4212303971
   39      H      -4.7866215812     0.0083281723    -0.0530547922
   40      H      -3.3379430134    -1.0807626990    -1.6035083000
   41      H      -2.5811080563     3.9798583848    -0.5602182211
   42      H      -3.6041450528    -0.1632130204     2.4942176152
   43      H      -3.9593259603    -2.6651288625     2.3872865415
   44      H      -5.0188810574    -2.1314601509     1.0457297738
   45      H      -2.4344749625    -3.6448773260     0.8400510593
   46      H      -3.4794802530    -3.1511049826    -0.5281958439
   47      H      -0.9608586852    -1.8841582750    -0.2114309922
   48      H      -4.0646799004     4.2492013740     0.4260484492
   49      H      -4.1596810848     4.3164923968    -1.3800726693
   50      H      -0.6535794616     0.3446630576     1.5418160126
   51      H      -0.1558457765     1.9227105782     0.7854479451
   52      H       0.3259601407     1.5643422662     2.4940482794
   53      H       1.3924233440    -0.7152439205    -3.4540594903
   54      H       1.7699086955     0.8032136175    -2.5460007167
   55      H      -0.3551294330     1.7850891264    -3.0049292287
   56      H      -0.3209210162     0.6635964215    -4.4386531753
 ----------------------------------------------------------------

    9   -1510.2902419487      3.40E-09 Convergence criterion met
 Total energy in the final basis set = -1510.29024195
 Final energy is   -1510.29024194868
 **  OPTIMIZATION CONVERGED  **

                    Orbital Energies (a.u.)
 --------------------------------------------------------------

 Alpha MOs
 -- Occupied --
-18.935 -18.933 -18.919 -18.919 -18.893 -18.888 -18.886 -18.878
-18.862 -18.861 -10.110 -10.102 -10.089 -10.088 -10.083 -10.076
-10.060 -10.059 -10.056 -10.053 -10.046 -10.042 -10.037 -10.034
-10.031 -10.022 -10.020 -10.016 -10.013 -10.012  -1.022  -1.007
 -0.997  -0.995  -0.970  -0.970  -0.946  -0.933  -0.924  -0.922
 -0.764  -0.759  -0.724  -0.722  -0.712  -0.705  -0.695  -0.653
 -0.633  -0.614  -0.598  -0.581  -0.551  -0.539  -0.538  -0.532
 -0.509  -0.505  -0.486  -0.480  -0.464  -0.459  -0.448  -0.443
 -0.438  -0.430  -0.425  -0.408  -0.404  -0.401  -0.400  -0.396
 -0.394  -0.381  -0.371  -0.358  -0.357  -0.353  -0.348  -0.341
 -0.340  -0.338  -0.331  -0.328  -0.323  -0.322  -0.317  -0.312
 -0.306  -0.303  -0.302  -0.297  -0.294  -0.291  -0.275  -0.273
 -0.265  -0.255  -0.245  -0.243  -0.234  -0.233  -0.223  -0.183
 -0.172  -0.164  -0.161  -0.157  -0.154  -0.145  -0.143  -0.141
 -0.139

          Ground-State Mulliken Net Atomic Charges

     Atom                 Charge (a.u.)
  ----------------------------------------
      1 O                    -0.214690
      2 C                     0.214257
      3 C                    -0.081148
      4 C                    -0.079690
      5 C                     0.224241
      6 O                    -0.168748
      7 C                    -0.049941
      8 C                    -0.048637
      9 O                    -0.181037
     10 C                     0.224642
     11 C                    -0.084379
     12 C                    -0.082702
     13 C                     0.201964
     14 O                    -0.218729
     15 O                    -0.176381
     16 O                    -0.169776
     17 O                    -0.195134
     18 C                    -0.154596
     19 C                     0.026445
     20 C                    -0.144433
     21 C                    -0.144024
     22 C                     0.027158
     23 O                    -0.181937
     24 H                     0.078041
     25 H                     0.078905
     26 H                     0.091310
     27 H                     0.078934
     28 H                     0.071240
     29 H                     0.078785
     30 H                     0.072704
     31 H                     0.085272
     32 O                    -0.212223
     33 C                    -0.128941
     34 C                     0.026940
     35 C                    -0.144021
     36 C                    -0.143255
     37 C                     0.018955
     38 O                    -0.185366
     39 H                     0.084082
     40 H                     0.086556
     41 H                     0.093354
     42 H                     0.089229
     43 H                     0.078475
     44 H                     0.072514
     45 H                     0.080533
     46 H                     0.072380
     47 H                     0.110223
     48 H                     0.086856
     49 H                     0.086066
     50 H                     0.117609
     51 H                     0.099089
     52 H                     0.074550
     53 H                     0.079414
     54 H                     0.088710
     55 H                     0.101115
     56 H                     0.089245
  ----------------------------------------
  Sum of atomic charges =     0.000000

                    Cartesian Multipole Moments
 -----------------------------------------------------------------
    Charge (ESU x 10^10)
                -0.0000
    Dipole Moment (Debye)
         X       0.8614      Y      -0.8293      Z      -3.9126
       Tot       4.0913
    Quadrupole Moments (Debye-Ang)
        XX    -139.2815     XY       0.5163     YY    -161.7861
        XZ      -8.2017     YZ       0.7460     ZZ    -155.5836

 Total job time:  217.69s(wall), 10354.90s(cpu)
        *  Thank you very much for using Q-Chem.  Have a nice day.  *
