 Q-Chem 5.0, Q-Chem, Inc., Pleasanton, CA (2017)
 Q-Chem 5.0.1 for Intel X86 EM64T Linux

User input:
--------------------------------------------------------------
$molecule
0  1
O -3.94934 -3.66094 2.70899
C -3.26408 -4.56952 2.26188
C -3.36658 -6.02376 2.66595
C -2.57813 -6.46456 3.91009
C -1.91791 -5.36653 4.71416
O -0.57679 -5.60562 4.81237
C 0.22505 -4.52839 4.31648
C 1.70548 -4.86644 4.45859
O 1.96779 -5.37137 5.77734
C 3.12105 -6.07151 5.91495
C 4.19076 -5.64079 4.93982
C 4.72189 -4.21525 5.14962
C 4.38429 -3.57349 6.48037
O 4.09851 -2.39665 6.64753
O -2.24554 -4.26596 1.41601
O 4.56352 -4.33866 7.59287
O 3.28437 -6.88166 6.81443
C 4.35871 -3.90307 8.88526
C 5.51029 -6.44337 5.10578
C 6.32855 -6.38858 3.81388
C 6.76393 -4.93897 3.82085
C 6.23648 -4.50696 5.1943
O 6.30066 -5.67497 5.97322
H 3.89684 -5.85578 3.8926
H 4.48204 -3.49704 4.33592
H 5.35235 -7.5039 5.40052
H 7.22481 -7.02969 3.97767
H 5.81084 -6.72369 2.8895
H 7.87546 -4.90671 3.78546
H 6.33576 -4.30975 3.01064
H 6.81777 -3.63824 5.5771
O -2.46545 -4.35023 5.1206
C -1.95286 -2.99158 0.9781
C -4.79943 -6.37111 3.13052
C -5.04137 -7.87673 3.01863
C -4.20468 -8.38178 4.17398
C -3.71508 -7.05472 4.76144
O -4.77801 -6.16687 4.52113
H -3.14924 -6.63236 1.75932
H -1.81989 -7.24218 3.66023
H -1.70386 -2.33827 1.84159
H -5.58517 -5.82031 2.56757
H -6.11428 -8.06111 3.25329
H -4.80119 -8.3179 2.0274
H -4.87729 -8.89359 4.89797
H -3.36529 -9.05517 3.89579
H -3.42094 -7.18895 5.8263
H -2.8182 -2.56944 0.42359
H -1.07782 -3.033 0.29766
H 4.57696 -4.73374 9.58719
H 3.3014 -3.58942 9.01918
H 5.03614 -3.05307 9.11495
H 1.82186 -5.68531 3.71251
H 2.30188 -3.97291 4.19229
H 0.02906 -3.62026 4.93023
H -0.0103 -4.3015 3.25179
$end

$opt
CONSTRAINT
tors           1           2           3           4     -85.263
tors           3           4           5           6    -123.158
tors           4           5           6           7    +123.158
tors           5           6           7           8    -180.000
tors           6           7           8           9     -47.368
tors           7           8           9          10    +161.053
tors           8           9          10          11     +28.421
tors           9          10          11          12     +66.316
tors          11          12          13          14    -142.105
ENDCONSTRAINT
$end

$rem
JOBTYPE                   OPT
METHOD                    B3LYP
DFT_D                     d3_op
BASIS                     STO-3G
GEOM_OPT_MAX_CYCLES       100
GEOM_OPT_TOL_GRADIENT     300
GEOM_OPT_TOL_DISPLACEMENT 1200
GEOM_OPT_TOL_ENERGY       100
SYMMETRY                  False
THRESH                    12
SCF_CONVERGENCE           8
MAX_SUB_FILE_NUM          128
MEM_STATIC                400
MEM_TOTAL                 4000
$end
--------------------------------------------------------------

   15   -1510.1168536457      8.30E-09 Convergence criterion met
 Total energy in the final basis set = -1510.11685365
   14   -1510.1886195549      5.60E-09 Convergence criterion met
 Total energy in the final basis set = -1510.18861955
   14   -1510.2264600423      8.29E-09 Convergence criterion met
 Total energy in the final basis set = -1510.22646004
   14   -1510.2439849800      5.54E-09 Convergence criterion met
 Total energy in the final basis set = -1510.24398498
   14   -1510.2497394892      4.33E-09 Convergence criterion met
 Total energy in the final basis set = -1510.24973949
   13   -1510.2516120766      7.11E-09 Convergence criterion met
 Total energy in the final basis set = -1510.25161208
   13   -1510.2524378862      5.15E-09 Convergence criterion met
 Total energy in the final basis set = -1510.25243789
   12   -1510.2527124275      5.42E-09 Convergence criterion met
   11   -1510.2535741284      7.37E-09 Convergence criterion met
 Total energy in the final basis set = -1510.25357413
   11   -1510.2536038773      7.50E-09 Convergence criterion met
 Total energy in the final basis set = -1510.25360388
   11   -1510.2536180795      2.55E-09 Convergence criterion met
 Total energy in the final basis set = -1510.25361808
   10   -1510.2536364582      8.59E-09 Convergence criterion met
 Total energy in the final basis set = -1510.25363646
   10   -1510.2536382773      4.33E-09 Convergence criterion met
 Total energy in the final basis set = -1510.25363828
   10   -1510.2536395702      3.03E-09 Convergence criterion met
 Total energy in the final basis set = -1510.25363957

             Standard Nuclear Orientation (Angstroms)
    I     Atom           X                Y                Z
 ----------------------------------------------------------------
    1      O      -4.9601348177     1.3637552022     1.7706991041
    2      C      -4.4973545502     1.4126817885     0.6124945344
    3      C      -4.6600171820     0.3657112804    -0.5450004623
    4      C      -3.5894695148    -0.8121658670    -0.4873741692
    5      C      -2.5288060254    -0.6090182531     0.6534624369
    6      O      -1.1851349700    -0.6086433397     0.0937266810
    7      C      -0.5367500906     0.6682279176     0.4758610538
    8      C       0.9079959327     0.6646560379    -0.1280088409
    9      O       1.5031983351    -0.6480299239     0.2010983559
   10      C       2.6396528057    -1.0082855077    -0.6171659248
   11      C       3.5224102739     0.1675413497    -1.2144388742
   12      C       4.3137197896     1.0217859991    -0.1336748238
   13      C       4.0542429824     0.6130882200     1.3563275532
   14      O       3.9575281603     1.3779534490     2.3410900264
   15      O      -3.5850350663     2.4279819281     0.1591427726
   16      O       4.0271583810    -0.8122150075     1.4340442425
   17      O       2.8678649325    -2.2216449190    -0.8002012971
   18      C       3.7125295894    -1.2578847013     2.8097590500
   19      C       4.7233246000    -0.4496666298    -2.0454534530
   20      C       5.3512499737     0.6837162088    -2.9471087662
   21      C       6.1436868724     1.5210643168    -1.8753673184
   22      C       5.8186228081     0.7111921361    -0.5580781757
   23      O       5.7617711452    -0.6921571214    -1.0167094579
   24      H       2.8970138544     0.8208363754    -1.8469546433
   25      H       4.0882808901     2.0990825082    -0.2247595211
   26      H       4.4679504391    -1.3955304479    -2.5611182629
   27      H       6.0273531815     0.2472286992    -3.6992992922
   28      H       4.5819717122     1.2763973235    -3.4675430601
   29      H       7.2273037914     1.5091005381    -2.0730862673
   30      H       5.8067199832     2.5682543404    -1.8155256387
   31      H       6.5567189137     0.8256272304     0.2595487543
   32      O      -2.7658695054    -0.4337703301     1.8669641068
   33      C      -3.3151794992     3.3840930736     1.2580308617
   34      C      -6.0080352147    -0.4531691011    -0.3730022607
   35      C      -6.2988374192    -1.2370727565    -1.7133039178
   36      C      -5.2547174043    -2.4107316888    -1.6122783917
   37      C      -4.5429001309    -2.0653157790    -0.2455219816
   38      O      -5.6354260464    -1.5181033762     0.5863525409
   39      H      -4.6065872702     0.8951646364    -1.5128281670
   40      H      -3.0417772679    -0.8983418429    -1.4419003517
   41      H      -2.8966668692     2.8710572109     2.1482016792
   42      H      -6.8530361866     0.1416740172     0.0241267112
   43      H      -7.3333736865    -1.6152633720    -1.7221009620
   44      H      -6.1445753215    -0.6065092250    -2.6035853635
   45      H      -5.7540525029    -3.3905732757    -1.5459993861
   46      H      -4.5489245347    -2.4311869532    -2.4579041791
   47      H      -4.0565486521    -2.9195899201     0.2643195691
   48      H      -4.2334621225     3.9247681823     1.5651543631
   49      H      -2.5775667908     4.1065545179     0.8626436432
   50      H       3.7608237537    -2.3619350952     2.7878572158
   51      H       2.6943678989    -0.9380568090     3.1122743682
   52      H       4.4454415818    -0.8629602147     3.5424375585
   53      H       0.8376004014     0.8135587389    -1.2263591557
   54      H       1.4867736191     1.5119225603     0.3050531617
   55      H      -0.4854333940     0.7705798614     1.5832550808
   56      H      -1.1057392241     1.5382900451     0.0730290198
 ----------------------------------------------------------------

    9   -1510.2536405442      5.90E-09 Convergence criterion met
 Total energy in the final basis set = -1510.25364054
 Final energy is   -1510.25364054416
 **  OPTIMIZATION CONVERGED  **

                    Orbital Energies (a.u.)
 --------------------------------------------------------------

 Alpha MOs
 -- Occupied --
-18.941 -18.935 -18.922 -18.911 -18.895 -18.890 -18.890 -18.881
-18.877 -18.874 -10.103 -10.102 -10.100 -10.099 -10.081 -10.076
-10.067 -10.064 -10.063 -10.062 -10.061 -10.059 -10.042 -10.041
-10.039 -10.038 -10.024 -10.022 -10.022 -10.021  -1.016  -1.015
 -1.007  -0.998  -0.972  -0.972  -0.942  -0.939  -0.938  -0.929
 -0.765  -0.765  -0.726  -0.725  -0.716  -0.707  -0.703  -0.666
 -0.660  -0.608  -0.603  -0.583  -0.551  -0.549  -0.541  -0.539
 -0.515  -0.513  -0.488  -0.477  -0.469  -0.464  -0.454  -0.450
 -0.438  -0.433  -0.426  -0.417  -0.416  -0.413  -0.411  -0.403
 -0.394  -0.387  -0.379  -0.371  -0.370  -0.358  -0.354  -0.349
 -0.346  -0.343  -0.338  -0.334  -0.331  -0.329  -0.318  -0.311
 -0.311  -0.308  -0.305  -0.302  -0.301  -0.295  -0.285  -0.278
 -0.276  -0.260  -0.256  -0.245  -0.236  -0.236  -0.234  -0.181
 -0.179  -0.168  -0.163  -0.161  -0.157  -0.150  -0.146  -0.145
 -0.144

          Ground-State Mulliken Net Atomic Charges

     Atom                 Charge (a.u.)
  ----------------------------------------
      1 O                    -0.198076
      2 C                     0.206267
      3 C                    -0.079456
      4 C                    -0.080836
      5 C                     0.211822
      6 O                    -0.183241
      7 C                    -0.045863
      8 C                    -0.045044
      9 O                    -0.174552
     10 C                     0.219412
     11 C                    -0.085797
     12 C                    -0.082586
     13 C                     0.205815
     14 O                    -0.214815
     15 O                    -0.177685
     16 O                    -0.161265
     17 O                    -0.195410
     18 C                    -0.125552
     19 C                     0.025774
     20 C                    -0.144681
     21 C                    -0.143720
     22 C                     0.026734
     23 O                    -0.184337
     24 H                     0.076046
     25 H                     0.081059
     26 H                     0.092012
     27 H                     0.078922
     28 H                     0.071526
     29 H                     0.079110
     30 H                     0.073051
     31 H                     0.083681
     32 O                    -0.185667
     33 C                    -0.131194
     34 C                     0.026414
     35 C                    -0.144399
     36 C                    -0.143436
     37 C                     0.026651
     38 O                    -0.182930
     39 H                     0.084790
     40 H                     0.086372
     41 H                     0.092154
     42 H                     0.086446
     43 H                     0.078779
     44 H                     0.072922
     45 H                     0.079154
     46 H                     0.074285
     47 H                     0.086275
     48 H                     0.089605
     49 H                     0.087221
     50 H                     0.097743
     51 H                     0.091988
     52 H                     0.090283
     53 H                     0.079500
     54 H                     0.079954
     55 H                     0.087192
     56 H                     0.081586
  ----------------------------------------
  Sum of atomic charges =    -0.000000

                    Cartesian Multipole Moments
 -----------------------------------------------------------------
    Charge (ESU x 10^10)
                -0.0000
    Dipole Moment (Debye)
         X       0.1335      Y       3.7808      Z      -3.8061
       Tot       5.3664
    Quadrupole Moments (Debye-Ang)
        XX    -163.3370     XY       6.5312     YY    -158.8571
        XZ      11.9069     YZ      -3.1491     ZZ    -159.7779

 Total job time:  55.81s(wall), 2650.80s(cpu)
        *  Thank you very much for using Q-Chem.  Have a nice day.  *
