 Q-Chem 5.0, Q-Chem, Inc., Pleasanton, CA (2017)
 Q-Chem 5.0.1 for Intel X86 EM64T Linux

User input:
--------------------------------------------------------------
$molecule
0  1
O -4.0233608201 0.5191943569 1.7049055656
C -4.507084137 0.2827134844 0.5776093157
C -4.0578566541 -0.8277175453 -0.4490070899
C -2.6018019808 -0.6029411672 -1.0436873086
C -2.1599654049 0.9121033848 -0.8743537424
O -0.8874608859 1.3968283814 -1.3243733826
C 0.2438124493 0.4533043956 -1.363954417
C 1.107004082 0.7732289949 -2.6490942257
O 2.1129330306 1.8366979357 -2.4655234804
C 2.9310900483 1.7285448455 -1.278901083
C 3.6397351456 0.3666053616 -0.8378785442
C 4.0683803113 0.358033896 0.6978338363
C 3.043101995 1.0858923352 1.667166048
O 2.4995484892 2.2027784562 1.537462389
O -5.6790162005 0.9181253459 0.0440936877
O 2.8353899595 0.2643331405 2.8244755148
O 3.3332422251 2.8134430828 -0.8042691776
C 1.881002563 0.92446751 3.7442840884
C 3.0815442977 -1.128399105 -0.9888810104
C 4.3388338023 -2.0357625332 -1.2822294976
C 5.0715890559 -1.9700743363 0.108490371
C 4.0095937962 -1.1963631807 0.986754244
O 2.6986822237 -1.5423384741 0.377226934
H 4.575374055 0.4063126825 -1.4301374964
H 5.0713707904 0.8003290348 0.8403171699
H 2.2400444324 -1.2898906439 -1.6799842227
H 4.0159859828 -3.0632122522 -1.5161100596
H 4.9528387345 -1.6579843453 -2.1152085221
H 5.2601147388 -2.97418967 0.519175518
H 6.0280876342 -1.4255610433 0.0549157887
H 4.0087284533 -1.4482316445 2.0632128429
O -2.9716885976 1.7971426926 -0.511010901
C -6.1161065806 1.9993312447 0.95473974
C -3.8667603108 -2.1881094624 0.332856521
C -3.5688559813 -3.3611101099 -0.6844944228
C -2.0538192769 -3.1008301014 -1.0212502252
C -1.8085452693 -1.752633285 -0.2351399207
O -2.5718372346 -1.955067592 1.0096236273
H -4.8165492778 -0.8917814868 -1.2489382546
H -2.5830282454 -0.8271762441 -2.1264750427
H -5.3457542819 2.7938096822 1.0315263339
H -4.6597677838 -2.3996793971 1.0756734112
H -3.7167477045 -4.3409915635 -0.203935127
H -4.2154047704 -3.3032397942 -1.5748994894
H -1.4101703801 -3.8980747545 -0.6160245995
H -1.8636560946 -3.0066048744 -2.1023647368
H -0.7562937532 -1.5458247102 0.0285397178
H -6.3316841785 1.616954111 1.9735151671
H -7.0385468681 2.419494856 0.5132305603
H 1.7834084259 0.2500407614 4.6146745098
H 0.8881132424 1.0631736276 3.2695968454
H 2.2518124772 1.9150148161 4.0782240478
H 1.567230617 -0.1617028309 -3.0345238836
H 0.4256384498 1.160459986 -3.4359561827
H -0.0904285785 -0.5954105593 -1.4556765751
H 0.8504418551 0.5552858365 -0.437099015
$end

$rem
JOBTYPE                   OPT
METHOD                    B3LYP
DFT_D                     d3_op
BASIS                     STO-3G
GEOM_OPT_MAX_CYCLES       100
GEOM_OPT_TOL_GRADIENT     300
GEOM_OPT_TOL_DISPLACEMENT 1200
GEOM_OPT_TOL_ENERGY       100
SYMMETRY                  False
THRESH                    12
SCF_CONVERGENCE           8
MAX_SUB_FILE_NUM          128
MEM_STATIC                400
MEM_TOTAL                 4000
$end
--------------------------------------------------------------

   16   -1510.2260940602      6.45E-09 Convergence criterion met
 Total energy in the final basis set = -1510.22609406
   14   -1510.2312501333      6.01E-09 Convergence criterion met
 Total energy in the final basis set = -1510.23125013
   14   -1510.2368998067      5.59E-09 Convergence criterion met
 Total energy in the final basis set = -1510.23689981
   14   -1510.2026956727      9.97E-09 Convergence criterion met
 Total energy in the final basis set = -1510.20269567
   15   -1510.2385246663      8.08E-09 Convergence criterion met
 Total energy in the final basis set = -1510.23852467
   14   -1510.2362796814      9.02E-09 Convergence criterion met
 Total energy in the final basis set = -1510.23627968
   13   -1510.2426740199      8.86E-09 Convergence criterion met
 Total energy in the final basis set = -1510.24267402
   14   -1510.2378710993      4.60E-09 Convergence criterion met
   11   -1510.2689492712      3.26E-09 Convergence criterion met
 Total energy in the final basis set = -1510.26894927
    9   -1510.2689495238      7.13E-09 Convergence criterion met
 Total energy in the final basis set = -1510.26894952
    9   -1510.2689503744      7.71E-09 Convergence criterion met
 Total energy in the final basis set = -1510.26895037
    9   -1510.2689508854      2.96E-09 Convergence criterion met
 Total energy in the final basis set = -1510.26895089
    9   -1510.2689521144      2.92E-09 Convergence criterion met
 Total energy in the final basis set = -1510.26895211
    9   -1510.2689550175      6.76E-09 Convergence criterion met
 Total energy in the final basis set = -1510.26895502

             Standard Nuclear Orientation (Angstroms)
    I     Atom           X                Y                Z
 ----------------------------------------------------------------
    1      O      -3.9103154066     1.1758664673     2.0239288541
    2      C      -3.9204469763     0.6887343883     0.8732132297
    3      C      -3.3515747199    -0.7196403628     0.4384763833
    4      C      -1.9840715772    -0.6744112161    -0.3637176748
    5      C      -1.5051861594     0.8104835053    -0.5983541923
    6      O      -0.4671139869     1.0941198082    -1.5316074744
    7      C       0.2865523737    -0.0692592297    -2.0521162440
    8      C       1.3039427530     0.5242490530    -3.0897458968
    9      O       2.0876201707     1.6809717327    -2.6215329792
   10      C       3.0958292878     1.5535922557    -1.6030024224
   11      C       3.5826285111     0.2194702846    -0.8509544684
   12      C       3.0907077896     0.1479241109     0.6572106229
   13      C       1.8230712034     1.0345917997     0.9319471473
   14      O       1.3498055988     1.9040324961     0.1640477226
   15      O      -4.6645910347     1.2163925714    -0.2376973525
   16      O       1.2851739305     0.6629828149     2.1927022092
   17      O       3.7321547734     2.6077848204    -1.3705068838
   18      C      -0.0195568115     1.3328279169     2.4492240134
   19      C       3.2729888636    -1.2673785400    -1.3269930656
   20      C       4.4137565980    -2.1993224796    -0.7598187512
   21      C       4.0455615526    -2.2453255163     0.7689263437
   22      C       2.7277259885    -1.3834275503     0.7955945127
   23      O       2.0939896241    -1.6801645360    -0.5184783657
   24      H       4.6798298486     0.3486562429    -0.8470434922
   25      H       3.8910307264     0.4400853467     1.3610680665
   26      H       3.0742714455    -1.4095573344    -2.4036274538
   27      H       4.3491851710    -3.1988892118    -1.2187580226
   28      H       5.4183983040    -1.7883793419    -0.9470298233
   29      H       3.8451252643    -3.2739723917     1.1080259465
   30      H       4.8291671558    -1.8080690685     1.4079037900
   31      H       2.0276357661    -1.6007224425     1.6253354427
   32      O      -2.0317493450     1.7962876847    -0.0256779920
   33      C      -5.1898225275     2.5547626908     0.1082158416
   34      C      -2.9351577580    -1.5574400273     1.7133754208
   35      C      -2.7714409859    -3.0710544453     1.3032144390
   36      C      -1.4162079333    -3.0261098319     0.5033063690
   37      C      -1.0409210514    -1.4978329106     0.6194613351
   38      O      -1.5374954736    -1.1249715388     1.9627598776
   39      H      -4.1293934152    -1.2326728401    -0.1546938139
   40      H      -2.0793978038    -1.1864267131    -1.3368486383
   41      H      -4.3642709674     3.2775276229     0.2716746618
   42      H      -3.5586238517    -1.3614272055     2.6070449466
   43      H      -2.6899031278    -3.7071432562     2.1990039896
   44      H      -3.6155000949    -3.4282932704     0.6919866889
   45      H      -0.6415925860    -3.6467027771     0.9811219526
   46      H      -1.5268528628    -3.3464411719    -0.5449886791
   47      H       0.0379532994    -1.2792926580     0.5324254942
   48      H      -5.8196955883     2.5247053786     1.0208646313
   49      H      -5.8006039812     2.8794007945    -0.7542665774
   50      H      -0.8149800358     0.5501313445     2.3806773264
   51      H      -0.1949083568     2.1273326885     1.6980685680
   52      H       0.0156172755     1.7641435451     3.4668902033
   53      H       1.9452936936    -0.2924405872    -3.4838569849
   54      H       0.7325008375     0.9419657261    -3.9450942410
   55      H      -0.3766941810    -0.7786640259    -2.5940278492
   56      H       0.8419188581    -0.6307301547    -1.2561946695
 ----------------------------------------------------------------

    9   -1510.2689552222      3.05E-09 Convergence criterion met
 Total energy in the final basis set = -1510.26895522
 Final energy is   -1510.26895522220
 **  OPTIMIZATION CONVERGED  **

                    Orbital Energies (a.u.)
 --------------------------------------------------------------

 Alpha MOs
 -- Occupied --
-18.940 -18.930 -18.925 -18.920 -18.913 -18.905 -18.881 -18.881
-18.855 -18.852 -10.105 -10.100 -10.095 -10.087 -10.079 -10.077
-10.077 -10.069 -10.065 -10.063 -10.048 -10.046 -10.044 -10.042
-10.036 -10.035 -10.034 -10.032 -10.029 -10.026  -1.014  -1.008
 -0.996  -0.993  -0.990  -0.982  -0.940  -0.935  -0.922  -0.918
 -0.776  -0.768  -0.733  -0.726  -0.721  -0.712  -0.711  -0.651
 -0.650  -0.605  -0.601  -0.595  -0.561  -0.556  -0.550  -0.544
 -0.526  -0.511  -0.489  -0.472  -0.471  -0.460  -0.459  -0.455
 -0.447  -0.440  -0.432  -0.414  -0.411  -0.407  -0.400  -0.399
 -0.391  -0.390  -0.376  -0.371  -0.361  -0.359  -0.352  -0.350
 -0.348  -0.343  -0.337  -0.336  -0.329  -0.326  -0.324  -0.321
 -0.316  -0.310  -0.308  -0.304  -0.301  -0.282  -0.281  -0.279
 -0.271  -0.261  -0.248  -0.245  -0.242  -0.239  -0.224  -0.184
 -0.174  -0.164  -0.162  -0.157  -0.154  -0.154  -0.148  -0.136
 -0.135

          Ground-State Mulliken Net Atomic Charges

     Atom                 Charge (a.u.)
  ----------------------------------------
      1 O                    -0.223748
      2 C                     0.217259
      3 C                    -0.081626
      4 C                    -0.084470
      5 C                     0.215358
      6 O                    -0.157654
      7 C                    -0.068606
      8 C                    -0.042803
      9 O                    -0.162748
     10 C                     0.213286
     11 C                    -0.087231
     12 C                    -0.079317
     13 C                     0.204485
     14 O                    -0.197216
     15 O                    -0.178359
     16 O                    -0.175910
     17 O                    -0.207901
     18 C                    -0.152996
     19 C                     0.020064
     20 C                    -0.141818
     21 C                    -0.143449
     22 C                     0.021941
     23 O                    -0.195558
     24 H                     0.088160
     25 H                     0.091739
     26 H                     0.082204
     27 H                     0.079934
     28 H                     0.079097
     29 H                     0.081051
     30 H                     0.079973
     31 H                     0.095762
     32 O                    -0.194156
     33 C                    -0.128599
     34 C                     0.026296
     35 C                    -0.143869
     36 C                    -0.142507
     37 C                     0.021479
     38 O                    -0.187025
     39 H                     0.083931
     40 H                     0.080804
     41 H                     0.093334
     42 H                     0.092452
     43 H                     0.079407
     44 H                     0.075454
     45 H                     0.078930
     46 H                     0.073875
     47 H                     0.087489
     48 H                     0.085530
     49 H                     0.085289
     50 H                     0.111917
     51 H                     0.101544
     52 H                     0.082675
     53 H                     0.074755
     54 H                     0.093570
     55 H                     0.073004
     56 H                     0.105519
  ----------------------------------------
  Sum of atomic charges =    -0.000000

                    Cartesian Multipole Moments
 -----------------------------------------------------------------
    Charge (ESU x 10^10)
                 0.0000
    Dipole Moment (Debye)
         X       0.7542      Y      -6.7465      Z      -1.2362
       Tot       6.9001
    Quadrupole Moments (Debye-Ang)
        XX    -150.4261     XY      -9.0124     YY    -167.4037
        XZ       5.1630     YZ       6.0343     ZZ    -159.8125

 Total job time:  139.94s(wall), 6660.44s(cpu)
        *  Thank you very much for using Q-Chem.  Have a nice day.  *
