 Q-Chem 5.0, Q-Chem, Inc., Pleasanton, CA (2017)
 Q-Chem 5.0.1 for Intel X86 EM64T Linux

User input:
--------------------------------------------------------------
$molecule
0  1
O -3.94934 -3.66094 2.70899
C -3.26408 -4.56952 2.26188
C -3.36658 -6.02376 2.66595
C -2.97353 -6.38153 4.10864
C -2.69204 -5.22192 5.03825
O -2.35789 -5.69066 6.27681
C -2.95032 -6.95861 6.57775
C -1.96786 -7.82593 7.35792
O -2.05519 -7.5247 8.75953
C -3.31163 -7.4699 9.26699
C -4.16466 -8.64577 8.85427
C -5.67817 -8.4301 8.9994
C -6.1263 -6.99421 9.1841
O -5.63475 -6.19329 9.96607
O -2.34854 -4.27754 1.29946
O -7.08402 -6.53721 8.33235
O -3.41189 -7.01433 10.39527
C -7.56464 -5.24457 8.31556
C -4.33256 -9.48936 7.49216
C -4.83658 -10.91509 7.79589
C -6.29147 -10.65949 8.06722
C -6.33797 -9.15619 7.83397
O -5.42502 -8.92911 6.81025
H -3.8079 -9.42183 9.56867
H -6.00397 -8.8756 9.9668
H -3.51055 -9.72909 6.82133
H -4.7801 -11.525 6.86305
H -4.28032 -11.44854 8.59632
H -6.90121 -11.17367 7.2902
H -6.64568 -10.95401 9.0789
H -7.38657 -8.84261 7.64247
O -2.41902 -4.07699 4.72138
C -2.12268 -3.01239 0.79896
C -4.75654 -6.52577 2.36097
C -4.77087 -8.05217 2.30728
C -4.65951 -8.35436 3.77307
C -4.50821 -6.93453 4.33093
O -5.38721 -6.18898 3.53369
H -2.65162 -6.54373 1.98611
H -2.15399 -7.14039 4.09864
H -1.79197 -2.33248 1.61307
H -5.18242 -6.09091 1.42895
H -5.7521 -8.42044 1.93252
H -3.9485 -8.45627 1.67775
H -5.64758 -8.74611 4.10841
H -3.86459 -9.07327 4.06427
H -4.94823 -6.95037 5.32968
H -3.04841 -2.61532 0.33018
H -1.3256 -3.0626 0.02915
H -8.33611 -5.154 7.52369
H -6.74033 -4.53317 8.09451
H -8.02536 -4.99482 9.29515
H -1.82634 -8.91232 7.26233
H -0.94891 -7.55286 7.00354
H -2.96408 -7.77343 5.8529
H -3.93036 -6.81138 7.06138
$end

$opt
CONSTRAINT
tors           1           2           3           4     -66.316
tors           3           4           5           6    -180.000
tors           4           5           6           7     -28.421
tors           5           6           7           8    +142.105
tors           6           7           8           9     +85.263
tors           7           8           9          10     +47.368
tors           8           9          10          11     +47.368
tors           9          10          11          12    -161.053
tors          11          12          13          14     -47.368
ENDCONSTRAINT
$end

$rem
JOBTYPE                   OPT
METHOD                    B3LYP
DFT_D                     d3_op
BASIS                     STO-3G
GEOM_OPT_MAX_CYCLES       100
GEOM_OPT_TOL_GRADIENT     300
GEOM_OPT_TOL_DISPLACEMENT 1200
GEOM_OPT_TOL_ENERGY       100
SYMMETRY                  False
THRESH                    12
SCF_CONVERGENCE           8
MAX_SUB_FILE_NUM          128
MEM_STATIC                400
MEM_TOTAL                 4000
$end
--------------------------------------------------------------

   16   -1509.9873355357      3.69E-09 Convergence criterion met
 Total energy in the final basis set = -1509.98733554
   15   -1510.0810630645      2.39E-09 Convergence criterion met
 Total energy in the final basis set = -1510.08106306
   14   -1510.1402324314      9.08E-09 Convergence criterion met
 Total energy in the final basis set = -1510.14023243
   14   -1510.1793878328      9.61E-09 Convergence criterion met
 Total energy in the final basis set = -1510.17938783
   14   -1510.2016043819      6.87E-09 Convergence criterion met
 Total energy in the final basis set = -1510.20160438
   14   -1510.2129817171      6.45E-09 Convergence criterion met
 Total energy in the final basis set = -1510.21298172
   14   -1510.2195845766      7.73E-09 Convergence criterion met
 Total energy in the final basis set = -1510.21958458
   13   -1510.2225104945      6.53E-09 Convergence criterion met
   11   -1510.2260647593      5.17E-09 Convergence criterion met
 Total energy in the final basis set = -1510.22606476
   11   -1510.2260811418      5.71E-09 Convergence criterion met
 Total energy in the final basis set = -1510.22608114
   11   -1510.2260964653      4.85E-09 Convergence criterion met
 Total energy in the final basis set = -1510.22609647
   11   -1510.2261042568      2.81E-09 Convergence criterion met
 Total energy in the final basis set = -1510.22610426
    9   -1510.2261078192      8.81E-09 Convergence criterion met
 Total energy in the final basis set = -1510.22610782
    9   -1510.2261092860      5.04E-09 Convergence criterion met
 Total energy in the final basis set = -1510.22610929

             Standard Nuclear Orientation (Angstroms)
    I     Atom           X                Y                Z
 ----------------------------------------------------------------
    1      O      -4.0233608201     0.5191943569     1.7049055656
    2      C      -4.5070841370     0.2827134844     0.5776093157
    3      C      -4.0578566541    -0.8277175453    -0.4490070899
    4      C      -2.6018019808    -0.6029411672    -1.0436873086
    5      C      -2.1599654049     0.9121033848    -0.8743537424
    6      O      -0.8874608859     1.3968283814    -1.3243733826
    7      C       0.2438124493     0.4533043956    -1.3639544170
    8      C       1.1070040820     0.7732289949    -2.6490942257
    9      O       2.1129330306     1.8366979357    -2.4655234804
   10      C       2.9310900483     1.7285448455    -1.2789010830
   11      C       3.6397351456     0.3666053616    -0.8378785442
   12      C       4.0683803113     0.3580338960     0.6978338363
   13      C       3.0431019950     1.0858923352     1.6671660480
   14      O       2.4995484892     2.2027784562     1.5374623890
   15      O      -5.6790162005     0.9181253459     0.0440936877
   16      O       2.8353899595     0.2643331405     2.8244755148
   17      O       3.3332422251     2.8134430828    -0.8042691776
   18      C       1.8810025630     0.9244675100     3.7442840884
   19      C       3.0815442977    -1.1283991050    -0.9888810104
   20      C       4.3388338023    -2.0357625332    -1.2822294976
   21      C       5.0715890559    -1.9700743363     0.1084903710
   22      C       4.0095937962    -1.1963631807     0.9867542440
   23      O       2.6986822237    -1.5423384741     0.3772269340
   24      H       4.5753740550     0.4063126825    -1.4301374964
   25      H       5.0713707904     0.8003290348     0.8403171699
   26      H       2.2400444324    -1.2898906439    -1.6799842227
   27      H       4.0159859828    -3.0632122522    -1.5161100596
   28      H       4.9528387345    -1.6579843453    -2.1152085221
   29      H       5.2601147388    -2.9741896700     0.5191755180
   30      H       6.0280876342    -1.4255610433     0.0549157887
   31      H       4.0087284533    -1.4482316445     2.0632128429
   32      O      -2.9716885976     1.7971426926    -0.5110109010
   33      C      -6.1161065806     1.9993312447     0.9547397400
   34      C      -3.8667603108    -2.1881094624     0.3328565210
   35      C      -3.5688559813    -3.3611101099    -0.6844944228
   36      C      -2.0538192769    -3.1008301014    -1.0212502252
   37      C      -1.8085452693    -1.7526332850    -0.2351399207
   38      O      -2.5718372346    -1.9550675920     1.0096236273
   39      H      -4.8165492778    -0.8917814868    -1.2489382546
   40      H      -2.5830282454    -0.8271762441    -2.1264750427
   41      H      -5.3457542819     2.7938096822     1.0315263339
   42      H      -4.6597677838    -2.3996793971     1.0756734112
   43      H      -3.7167477045    -4.3409915635    -0.2039351270
   44      H      -4.2154047704    -3.3032397942    -1.5748994894
   45      H      -1.4101703801    -3.8980747545    -0.6160245995
   46      H      -1.8636560946    -3.0066048744    -2.1023647368
   47      H      -0.7562937532    -1.5458247102     0.0285397178
   48      H      -6.3316841785     1.6169541110     1.9735151671
   49      H      -7.0385468681     2.4194948560     0.5132305603
   50      H       1.7834084259     0.2500407614     4.6146745098
   51      H       0.8881132424     1.0631736276     3.2695968454
   52      H       2.2518124772     1.9150148161     4.0782240478
   53      H       1.5672306170    -0.1617028309    -3.0345238836
   54      H       0.4256384498     1.1604599860    -3.4359561827
   55      H      -0.0904285785    -0.5954105593    -1.4556765751
   56      H       0.8504418551     0.5552858365    -0.4370990150
 ----------------------------------------------------------------

    9   -1510.2261100935      2.99E-09 Convergence criterion met
 Total energy in the final basis set = -1510.22611009
 Final energy is   -1510.22611009348
 **  OPTIMIZATION CONVERGED  **

                    Orbital Energies (a.u.)
 --------------------------------------------------------------

 Alpha MOs
 -- Occupied --
-18.940 -18.932 -18.929 -18.916 -18.895 -18.894 -18.888 -18.883
-18.876 -18.852 -10.110 -10.103 -10.098 -10.088 -10.086 -10.085
-10.070 -10.067 -10.063 -10.062 -10.061 -10.050 -10.045 -10.044
-10.042 -10.034 -10.029 -10.027 -10.027 -10.025  -1.016  -1.012
 -1.004  -0.993  -0.979  -0.976  -0.946  -0.938  -0.931  -0.918
 -0.768  -0.765  -0.728  -0.725  -0.721  -0.710  -0.708  -0.660
 -0.652  -0.619  -0.601  -0.597  -0.555  -0.551  -0.545  -0.543
 -0.527  -0.516  -0.486  -0.478  -0.468  -0.459  -0.454  -0.452
 -0.442  -0.441  -0.432  -0.418  -0.414  -0.407  -0.406  -0.401
 -0.399  -0.396  -0.384  -0.375  -0.362  -0.357  -0.354  -0.342
 -0.340  -0.337  -0.336  -0.333  -0.330  -0.324  -0.322  -0.319
 -0.317  -0.314  -0.313  -0.304  -0.301  -0.295  -0.279  -0.276
 -0.273  -0.255  -0.247  -0.242  -0.240  -0.239  -0.234  -0.184
 -0.177  -0.173  -0.163  -0.159  -0.156  -0.150  -0.147  -0.138
 -0.134

          Ground-State Mulliken Net Atomic Charges

     Atom                 Charge (a.u.)
  ----------------------------------------
      1 O                    -0.219799
      2 C                     0.215658
      3 C                    -0.078318
      4 C                    -0.085991
      5 C                     0.213817
      6 O                    -0.168423
      7 C                    -0.049794
      8 C                    -0.046125
      9 O                    -0.170802
     10 C                     0.205591
     11 C                    -0.089075
     12 C                    -0.074725
     13 C                     0.205339
     14 O                    -0.203103
     15 O                    -0.173492
     16 O                    -0.172305
     17 O                    -0.178809
     18 C                    -0.128096
     19 C                     0.017292
     20 C                    -0.141881
     21 C                    -0.146375
     22 C                     0.021674
     23 O                    -0.195644
     24 H                     0.084112
     25 H                     0.088991
     26 H                     0.075491
     27 H                     0.077303
     28 H                     0.074041
     29 H                     0.079390
     30 H                     0.075171
     31 H                     0.097195
     32 O                    -0.188061
     33 C                    -0.128375
     34 C                     0.025564
     35 C                    -0.145176
     36 C                    -0.143901
     37 C                     0.020602
     38 O                    -0.183318
     39 H                     0.084890
     40 H                     0.081150
     41 H                     0.092606
     42 H                     0.085489
     43 H                     0.079158
     44 H                     0.074487
     45 H                     0.079395
     46 H                     0.069790
     47 H                     0.084799
     48 H                     0.085737
     49 H                     0.085934
     50 H                     0.090879
     51 H                     0.092804
     52 H                     0.090814
     53 H                     0.076892
     54 H                     0.098640
     55 H                     0.086245
     56 H                     0.094648
  ----------------------------------------
  Sum of atomic charges =     0.000000

                    Cartesian Multipole Moments
 -----------------------------------------------------------------
    Charge (ESU x 10^10)
                 0.0000
    Dipole Moment (Debye)
         X       1.3231      Y      -5.3214      Z      -2.1816
       Tot       5.9014
    Quadrupole Moments (Debye-Ang)
        XX    -146.4574     XY      -4.9085     YY    -171.7446
        XZ       3.6226     YZ       9.2552     ZZ    -153.8369

 Total job time:  77.54s(wall), 3695.23s(cpu)
        *  Thank you very much for using Q-Chem.  Have a nice day.  *
