 Q-Chem 5.0, Q-Chem, Inc., Pleasanton, CA (2017)
 Q-Chem 5.0.1 for Intel X86 EM64T Linux

User input:
--------------------------------------------------------------
$molecule
0  1
O -3.94934 -3.66094 2.70899
C -3.26408 -4.56952 2.26188
C -3.36658 -6.02376 2.66595
C -4.25419 -6.35572 3.87665
C -5.08044 -5.22016 4.4387
O -4.51746 -4.76583 5.59718
C -3.49042 -3.7925 5.38026
C -2.30026 -4.43281 4.67339
O -1.42869 -5.04338 5.63798
C -0.51487 -4.21649 6.20394
C 0.74231 -4.07628 5.37903
C 1.09959 -2.63614 4.98325
C 0.37875 -1.54301 5.74624
O 0.91775 -0.64937 6.383
O -2.40548 -4.29863 1.24402
O -0.96758 -1.47836 5.57365
O -0.64915 -3.76984 7.33344
C -1.7833 -0.52276 6.14261
C 2.02848 -4.4968 6.11665
C 3.09066 -4.90292 5.0969
C 3.41452 -3.55792 4.47604
C 2.58926 -2.63158 5.37969
O 2.56122 -3.29564 6.6209
H 0.63459 -4.71619 4.47219
H 0.92102 -2.44406 3.9023
H 1.86656 -5.31156 6.85579
H 3.97451 -5.24837 5.68019
H 2.79795 -5.69773 4.37754
H 4.50526 -3.37259 4.59264
H 3.11709 -3.44267 3.4111
H 3.02629 -1.60898 5.38093
O -6.02787 -4.67183 3.89214
C -2.19042 -3.039 0.72599
C -4.10612 -6.83313 1.57461
C -3.74832 -8.3166 1.67616
C -4.48202 -8.69744 2.94456
C -5.20949 -7.38276 3.24757
O -5.45358 -6.8274 1.97861
H -2.35296 -6.48264 2.73243
H -3.65577 -6.80462 4.70286
H -1.79994 -2.36311 1.51699
H -3.90659 -6.46725 0.54318
H -4.23973 -8.82789 0.81726
H -2.6624 -8.55197 1.66532
H -5.21006 -9.50283 2.70089
H -3.83482 -9.01327 3.7913
H -6.10421 -7.56995 3.88201
H -3.13625 -2.62789 0.31285
H -1.44219 -3.10421 -0.09025
H -2.83201 -0.70814 5.83323
H -1.48405 0.49051 5.79937
H -1.72169 -0.57931 7.25038
H -1.78399 -4.89799 3.85908
H -1.83611 -3.46894 4.35843
H -3.16567 -3.39245 6.36409
H -3.92 -2.90983 4.85889
$end

$opt
CONSTRAINT
tors           1           2           3           4      -9.474
tors           3           4           5           6    -104.211
tors           4           5           6           7     +85.263
tors           5           6           7           8     -66.316
tors           6           7           8           9     -85.263
tors           7           8           9          10     -85.263
tors           8           9          10          11     -85.263
tors           9          10          11          12    +123.158
tors          11          12          13          14    +123.158
ENDCONSTRAINT
$end

$rem
JOBTYPE                   OPT
METHOD                    B3LYP
DFT_D                     d3_op
BASIS                     STO-3G
GEOM_OPT_MAX_CYCLES       100
GEOM_OPT_TOL_GRADIENT     300
GEOM_OPT_TOL_DISPLACEMENT 1200
GEOM_OPT_TOL_ENERGY       100
SYMMETRY                  False
THRESH                    12
SCF_CONVERGENCE           8
MAX_SUB_FILE_NUM          128
MEM_STATIC                400
MEM_TOTAL                 4000
$end
--------------------------------------------------------------

   15   -1510.0163894277      7.50E-09 Convergence criterion met
 Total energy in the final basis set = -1510.01638943
   14   -1510.1000081374      4.18E-09 Convergence criterion met
 Total energy in the final basis set = -1510.10000814
   14   -1510.1558053177      5.84E-09 Convergence criterion met
 Total energy in the final basis set = -1510.15580532
   14   -1510.1899247866      3.36E-09 Convergence criterion met
 Total energy in the final basis set = -1510.18992479
   13   -1510.2109109164      8.27E-09 Convergence criterion met
 Total energy in the final basis set = -1510.21091092
   13   -1510.2235631270      6.07E-09 Convergence criterion met
 Total energy in the final basis set = -1510.22356313
   13   -1510.2311718816      5.75E-09 Convergence criterion met
 Total energy in the final basis set = -1510.23117188
   13   -1510.2362322301      4.53E-09 Convergence criterion met
   11   -1510.2417903405      3.63E-09 Convergence criterion met
 Total energy in the final basis set = -1510.24179034
   10   -1510.2417993313      6.81E-09 Convergence criterion met
 Total energy in the final basis set = -1510.24179933
    9   -1510.2418041467      9.22E-09 Convergence criterion met
 Total energy in the final basis set = -1510.24180415
    9   -1510.2418085933      7.97E-09 Convergence criterion met
 Total energy in the final basis set = -1510.24180859
    9   -1510.2418116844      5.02E-09 Convergence criterion met
 Total energy in the final basis set = -1510.24181168
    9   -1510.2418135569      5.34E-09 Convergence criterion met
 Total energy in the final basis set = -1510.24181356

             Standard Nuclear Orientation (Angstroms)
    I     Atom           X                Y                Z
 ----------------------------------------------------------------
    1      O       2.2649116580    -1.2445499222    -1.4878016677
    2      C       2.4823776591    -0.0115684301    -1.5241924941
    3      C       3.1819773608     0.8538770509    -0.4256956512
    4      C       3.4158661567     0.0590187871     0.9238763244
    5      C       2.9625149766    -1.4671971505     0.9138182427
    6      O       1.7230552931    -1.7912234442     1.6109329134
    7      C       0.4656382920    -1.6335140421     0.8713103266
    8      C       0.0178339841    -0.1689169562     0.4467144843
    9      O      -0.7207089301     0.5152651147     1.5274500388
   10      C      -2.1325882229     0.1547363297     1.4717843273
   11      C      -2.9483847318     1.0618742589     0.4671024440
   12      C      -3.7251268065     0.2916128108    -0.6835025321
   13      C      -3.7066824054    -1.2742046321    -0.5666521188
   14      O      -4.6975070105    -2.0324633363    -0.5114620427
   15      O       2.1277054025     0.8301110665    -2.6214185018
   16      O      -2.3506057272    -1.7350612868    -0.6051313734
   17      O      -2.6294413386    -0.6772002281     2.2582044517
   18      C      -2.3195828586    -3.2121121397    -0.4873585550
   19      C      -4.1582370999     1.8097034968     1.1864234849
   20      C      -4.5678605154     3.0456903180     0.2915967176
   21      C      -5.2935118739     2.3239653258    -0.9040900736
   22      C      -5.2025956158     0.8146884133    -0.4524271441
   23      O      -5.2957826553     0.8787134221     1.0253284958
   24      H      -2.2405412225     1.7885788516     0.0319855875
   25      H      -3.3275570595     0.5713373828    -1.6768280736
   26      H      -3.9888496524     2.0343437334     2.2573827356
   27      H      -5.2581732869     3.7032704177     0.8435995224
   28      H      -3.6958356212     3.6370909269    -0.0299952030
   29      H      -6.3457245003     2.6387772771    -0.9876986341
   30      H      -4.7957383896     2.4981195797    -1.8715032039
   31      H      -5.9797353621     0.1377068253    -0.8573867052
   32      O       3.7621146745    -2.3976796512     0.6724585759
   33      C       1.4818197304     0.0269981292    -3.6873994967
   34      C       4.6802006017     1.2152103584    -0.8322978319
   35      C       5.1669424062     2.3871926549     0.1081086599
   36      C       5.3965345920     1.6135916075     1.4589530165
   37      C       4.9970493516     0.1435351714     1.0418384068
   38      O       5.4508966909     0.0443720134    -0.3658590734
   39      H       2.5930886574     1.7761558531    -0.2726168954
   40      H       2.9096769883     0.5615591363     1.7676790999
   41      H       0.5695818079    -0.4828685175    -3.3155735114
   42      H       4.8300113819     1.3818514417    -1.9169745723
   43      H       6.1037668017     2.8225472307    -0.2746713454
   44      H       4.4149486930     3.1875057574     0.1955837532
   45      H       6.4522054955     1.6509121191     1.7713822174
   46      H       4.7700515638     1.9957221795     2.2806678729
   47      H       5.4482313227    -0.6658219309     1.6471671887
   48      H       2.1727497802    -0.7390608449    -4.0944802812
   49      H       1.2087893508     0.7423655470    -4.4846991491
   50      H      -1.2924392957    -3.5252626219    -0.7478181392
   51      H      -3.0459121561    -3.6876618215    -1.1761355382
   52      H      -2.5523986730    -3.5326146428     0.5488548792
   53      H       0.8931731388     0.4692475756     0.2401567259
   54      H      -0.5924096768    -0.2610025518    -0.4787416799
   55      H      -0.3150765574    -2.0465744479     1.5444814527
   56      H       0.4935132683    -2.2516109641    -0.0547902268
 ----------------------------------------------------------------

    9   -1510.2418136550      4.91E-09 Convergence criterion met
 Total energy in the final basis set = -1510.24181365
 Final energy is   -1510.24181365497
 **  OPTIMIZATION CONVERGED  **

                    Orbital Energies (a.u.)
 --------------------------------------------------------------

 Alpha MOs
 -- Occupied --
-18.953 -18.943 -18.904 -18.899 -18.895 -18.893 -18.893 -18.892
-18.886 -18.878 -10.116 -10.109 -10.108 -10.094 -10.079 -10.069
-10.067 -10.067 -10.065 -10.063 -10.063 -10.060 -10.047 -10.046
-10.041 -10.035 -10.026 -10.025 -10.024 -10.022  -1.029  -1.021
 -1.006  -0.990  -0.975  -0.974  -0.953  -0.945  -0.939  -0.920
 -0.768  -0.767  -0.728  -0.727  -0.711  -0.709  -0.695  -0.675
 -0.669  -0.611  -0.604  -0.591  -0.553  -0.548  -0.543  -0.539
 -0.518  -0.514  -0.488  -0.478  -0.466  -0.459  -0.457  -0.448
 -0.440  -0.435  -0.426  -0.424  -0.423  -0.418  -0.414  -0.405
 -0.396  -0.390  -0.383  -0.379  -0.368  -0.363  -0.359  -0.354
 -0.348  -0.346  -0.340  -0.337  -0.331  -0.328  -0.325  -0.317
 -0.313  -0.311  -0.308  -0.305  -0.301  -0.296  -0.288  -0.278
 -0.276  -0.267  -0.265  -0.239  -0.239  -0.238  -0.220  -0.195
 -0.187  -0.174  -0.168  -0.165  -0.156  -0.150  -0.149  -0.141
 -0.136

          Ground-State Mulliken Net Atomic Charges

     Atom                 Charge (a.u.)
  ----------------------------------------
      1 O                    -0.206641
      2 C                     0.210514
      3 C                    -0.082702
      4 C                    -0.085807
      5 C                     0.219155
      6 O                    -0.196566
      7 C                    -0.044902
      8 C                    -0.056333
      9 O                    -0.199953
     10 C                     0.219825
     11 C                    -0.084858
     12 C                    -0.080245
     13 C                     0.211985
     14 O                    -0.204329
     15 O                    -0.167935
     16 O                    -0.179650
     17 O                    -0.179142
     18 C                    -0.130337
     19 C                     0.026053
     20 C                    -0.143252
     21 C                    -0.144779
     22 C                     0.024989
     23 O                    -0.184906
     24 H                     0.080507
     25 H                     0.082509
     26 H                     0.085908
     27 H                     0.079614
     28 H                     0.073407
     29 H                     0.079628
     30 H                     0.072506
     31 H                     0.091825
     32 O                    -0.185511
     33 C                    -0.128592
     34 C                     0.026204
     35 C                    -0.143427
     36 C                    -0.144526
     37 C                     0.026802
     38 O                    -0.185889
     39 H                     0.085672
     40 H                     0.084987
     41 H                     0.089137
     42 H                     0.084909
     43 H                     0.079095
     44 H                     0.073576
     45 H                     0.079498
     46 H                     0.075018
     47 H                     0.090722
     48 H                     0.094022
     49 H                     0.093319
     50 H                     0.092011
     51 H                     0.094440
     52 H                     0.093813
     53 H                     0.081018
     54 H                     0.083899
     55 H                     0.093188
     56 H                     0.080526
  ----------------------------------------
  Sum of atomic charges =     0.000000

                    Cartesian Multipole Moments
 -----------------------------------------------------------------
    Charge (ESU x 10^10)
                 0.0000
    Dipole Moment (Debye)
         X      -0.2708      Y       4.5269      Z      -3.7158
       Tot       5.8629
    Quadrupole Moments (Debye-Ang)
        XX    -177.7274     XY       5.6848     YY    -159.8302
        XZ      10.1417     YZ       3.8842     ZZ    -157.2474

 Total job time:  67.84s(wall), 3234.25s(cpu)
        *  Thank you very much for using Q-Chem.  Have a nice day.  *
