 Q-Chem 5.0, Q-Chem, Inc., Pleasanton, CA (2017)
 Q-Chem 5.0.1 for Intel X86 EM64T Linux

User input:
--------------------------------------------------------------
$molecule
0  1
O 2.264911658 -1.2445499222 -1.4878016677
C 2.4823776591 -0.0115684301 -1.5241924941
C 3.1819773608 0.8538770509 -0.4256956512
C 3.4158661567 0.0590187871 0.9238763244
C 2.9625149766 -1.4671971505 0.9138182427
O 1.7230552931 -1.7912234442 1.6109329134
C 0.465638292 -1.6335140421 0.8713103266
C 0.0178339841 -0.1689169562 0.4467144843
O -0.7207089301 0.5152651147 1.5274500388
C -2.1325882229 0.1547363297 1.4717843273
C -2.9483847318 1.0618742589 0.467102444
C -3.7251268065 0.2916128108 -0.6835025321
C -3.7066824054 -1.2742046321 -0.5666521188
O -4.6975070105 -2.0324633363 -0.5114620427
O 2.1277054025 0.8301110665 -2.6214185018
O -2.3506057272 -1.7350612868 -0.6051313734
O -2.6294413386 -0.6772002281 2.2582044517
C -2.3195828586 -3.2121121397 -0.487358555
C -4.1582370999 1.8097034968 1.1864234849
C -4.5678605154 3.045690318 0.2915967176
C -5.2935118739 2.3239653258 -0.9040900736
C -5.2025956158 0.8146884133 -0.4524271441
O -5.2957826553 0.8787134221 1.0253284958
H -2.2405412225 1.7885788516 0.0319855875
H -3.3275570595 0.5713373828 -1.6768280736
H -3.9888496524 2.0343437334 2.2573827356
H -5.2581732869 3.7032704177 0.8435995224
H -3.6958356212 3.6370909269 -0.029995203
H -6.3457245003 2.6387772771 -0.9876986341
H -4.7957383896 2.4981195797 -1.8715032039
H -5.9797353621 0.1377068253 -0.8573867052
O 3.7621146745 -2.3976796512 0.6724585759
C 1.4818197304 0.0269981292 -3.6873994967
C 4.6802006017 1.2152103584 -0.8322978319
C 5.1669424062 2.3871926549 0.1081086599
C 5.396534592 1.6135916075 1.4589530165
C 4.9970493516 0.1435351714 1.0418384068
O 5.4508966909 0.0443720134 -0.3658590734
H 2.5930886574 1.7761558531 -0.2726168954
H 2.9096769883 0.5615591363 1.7676790999
H 0.5695818079 -0.4828685175 -3.3155735114
H 4.8300113819 1.3818514417 -1.9169745723
H 6.1037668017 2.8225472307 -0.2746713454
H 4.414948693 3.1875057574 0.1955837532
H 6.4522054955 1.6509121191 1.7713822174
H 4.7700515638 1.9957221795 2.2806678729
H 5.4482313227 -0.6658219309 1.6471671887
H 2.1727497802 -0.7390608449 -4.0944802812
H 1.2087893508 0.742365547 -4.4846991491
H -1.2924392957 -3.5252626219 -0.7478181392
H -3.0459121561 -3.6876618215 -1.1761355382
H -2.552398673 -3.5326146428 0.5488548792
H 0.8931731388 0.4692475756 0.2401567259
H -0.5924096768 -0.2610025518 -0.4787416799
H -0.3150765574 -2.0465744479 1.5444814527
H 0.4935132683 -2.2516109641 -0.0547902268
$end

$rem
JOBTYPE                   OPT
METHOD                    B3LYP
DFT_D                     d3_op
BASIS                     STO-3G
GEOM_OPT_MAX_CYCLES       100
GEOM_OPT_TOL_GRADIENT     300
GEOM_OPT_TOL_DISPLACEMENT 1200
GEOM_OPT_TOL_ENERGY       100
SYMMETRY                  False
THRESH                    12
SCF_CONVERGENCE           8
MAX_SUB_FILE_NUM          128
MEM_STATIC                400
MEM_TOTAL                 4000
$end
--------------------------------------------------------------

   16   -1510.2418339943      4.15E-09 Convergence criterion met
 Total energy in the final basis set = -1510.24183399
   14   -1510.2437789856      6.05E-09 Convergence criterion met
 Total energy in the final basis set = -1510.24377899
   14   -1510.2462811123      4.24E-09 Convergence criterion met
 Total energy in the final basis set = -1510.24628111
   13   -1510.2464250622      7.86E-09 Convergence criterion met
 Total energy in the final basis set = -1510.24642506
   13   -1510.2475516653      7.52E-09 Convergence criterion met
 Total energy in the final basis set = -1510.24755167
   14   -1510.2487501899      8.61E-09 Convergence criterion met
 Total energy in the final basis set = -1510.24875019
   14   -1510.2504081453      7.82E-09 Convergence criterion met
 Total energy in the final basis set = -1510.25040815
   14   -1510.2520353097      6.98E-09 Convergence criterion met
   12   -1510.2666704645      2.65E-09 Convergence criterion met
 Total energy in the final basis set = -1510.26667046
   12   -1510.2666875995      2.54E-09 Convergence criterion met
 Total energy in the final basis set = -1510.26668760
   11   -1510.2666964597      4.92E-09 Convergence criterion met
 Total energy in the final basis set = -1510.26669646
   11   -1510.2667101765      6.56E-09 Convergence criterion met
 Total energy in the final basis set = -1510.26671018
   11   -1510.2667169289      3.32E-09 Convergence criterion met
 Total energy in the final basis set = -1510.26671693
   11   -1510.2667219204      3.50E-09 Convergence criterion met
 Total energy in the final basis set = -1510.26672192

             Standard Nuclear Orientation (Angstroms)
    I     Atom           X                Y                Z
 ----------------------------------------------------------------
    1      O       2.3616479662    -1.6060633789    -1.5539451727
    2      C       2.7491834337    -0.4439094367    -1.8090824640
    3      C       3.3143166064     0.6042698892    -0.7940403385
    4      C       3.0769103639     0.1833856181     0.7138173005
    5      C       2.2726684655    -1.1708811022     0.9319164048
    6      O       0.8477099469    -1.1920447383     0.7190344359
    7      C       0.2042899259     0.0924880232     0.3707837386
    8      C      -0.2895855285     0.8548369456     1.6589239799
    9      O      -1.2934789055     0.0722739441     2.4081907037
   10      C      -2.5150760073    -0.1979931873     1.6891211061
   11      C      -3.1466485377     0.9110651672     0.7507551036
   12      C      -3.7084382583     0.3125112268    -0.6089582408
   13      C      -3.3603998310    -1.2063427147    -0.8012018785
   14      O      -4.1310905260    -2.1844424504    -0.8520203939
   15      O       2.7647382922     0.1287111660    -3.1182796765
   16      O      -1.9326646828    -1.2870409818    -0.9298953571
   17      O      -3.1117687337    -1.2663468198     1.9499328414
   18      C      -1.4302367032    -2.6787994694    -0.8614696406
   19      C      -4.5002716421     1.4266499349     1.4135364055
   20      C      -4.9830747084     2.7164634042     0.6375049378
   21      C      -5.5568186981     2.0820634583    -0.6836368016
   22      C      -5.2650175831     0.5507784275    -0.4346137025
   23      O      -5.4807166109     0.3911813143     1.0227316526
   24      H      -2.4499763164     1.7418125336     0.5622948932
   25      H      -3.3042917241     0.8711498456    -1.4729585093
   26      H      -4.4608475966     1.5277642148     2.5155680375
   27      H      -5.7668466182     3.2375472599     1.2099085054
   28      H      -4.1577989693     3.4215665085     0.4479602057
   29      H      -6.6402145996     2.2575862997    -0.7783229666
   30      H      -5.0563755799     2.4590740924    -1.5897895315
   31      H      -5.8974026918    -0.1621381334    -0.9984745767
   32      O       2.7993030163    -2.2202923504     1.3580517842
   33      C       2.2692639918    -0.8588877069    -4.1065337245
   34      C       4.9053626121     0.6294160730    -0.8521788885
   35      C       5.4172972395     1.8942704851    -0.0553551834
   36      C       5.2049713969     1.4231038771     1.4313826572
   37      C       4.5735975274    -0.0060943491     1.2087555615
   38      O       5.2822733882    -0.5109501614     0.0091836924
   39      H       2.8909619080     1.5973744634    -1.0290909862
   40      H       2.5840940968     0.9977867112     1.2719869706
   41      H       1.2124329173    -1.1334222358    -3.9109296431
   42      H       5.3222560956     0.5105199788    -1.8712917116
   43      H       6.4807661767     2.0803800995    -0.2740354512
   44      H       4.8419494922     2.8007875357    -0.3031884277
   45      H       6.1636788449     1.3403268705     1.9676404602
   46      H       4.5387372020     2.0908703139     2.0006494138
   47      H       4.6786251829    -0.7233750694     2.0453761002
   48      H       2.8804379149    -1.7841857119    -4.0993064005
   49      H       2.3478984192    -0.3681012535    -5.0939313240
   50      H      -0.4244066082    -2.6095460435    -0.3966354492
   51      H      -1.3534176693    -3.1150637593    -1.8782449395
   52      H      -2.0999341368    -3.3104667215    -0.2458564950
   53      H       0.5462927010     0.9883466310     2.3764497465
   54      H      -0.6555494644     1.8653167225     1.3708641223
   55      H      -0.6861385784    -0.2129348452    -0.2351820200
   56      H       0.8501778743     0.7605000643    -0.2305567793
 ----------------------------------------------------------------

   10   -1510.2667221329      8.73E-09 Convergence criterion met
 Total energy in the final basis set = -1510.26672213
 Final energy is   -1510.26672213289
 **  OPTIMIZATION CONVERGED  **

                    Orbital Energies (a.u.)
 --------------------------------------------------------------

 Alpha MOs
 -- Occupied --
-18.947 -18.939 -18.929 -18.923 -18.893 -18.893 -18.891 -18.887
-18.881 -18.864 -10.110 -10.107 -10.102 -10.095 -10.081 -10.074
-10.067 -10.066 -10.063 -10.061 -10.061 -10.055 -10.048 -10.044
-10.043 -10.039 -10.026 -10.026 -10.025 -10.024  -1.024  -1.017
 -1.005  -0.996  -0.975  -0.974  -0.948  -0.943  -0.940  -0.926
 -0.769  -0.768  -0.728  -0.728  -0.711  -0.710  -0.709  -0.671
 -0.659  -0.614  -0.605  -0.596  -0.554  -0.552  -0.544  -0.542
 -0.517  -0.514  -0.489  -0.476  -0.473  -0.465  -0.461  -0.453
 -0.443  -0.436  -0.430  -0.422  -0.421  -0.417  -0.410  -0.407
 -0.402  -0.397  -0.382  -0.377  -0.365  -0.362  -0.354  -0.353
 -0.350  -0.346  -0.340  -0.335  -0.333  -0.321  -0.319  -0.314
 -0.312  -0.311  -0.308  -0.304  -0.300  -0.291  -0.286  -0.284
 -0.276  -0.266  -0.255  -0.244  -0.239  -0.238  -0.232  -0.190
 -0.184  -0.178  -0.165  -0.164  -0.154  -0.152  -0.149  -0.145
 -0.139

          Ground-State Mulliken Net Atomic Charges

     Atom                 Charge (a.u.)
  ----------------------------------------
      1 O                    -0.200900
      2 C                     0.208232
      3 C                    -0.082108
      4 C                    -0.087430
      5 C                     0.215506
      6 O                    -0.173001
      7 C                    -0.073804
      8 C                    -0.049052
      9 O                    -0.171555
     10 C                     0.207437
     11 C                    -0.083928
     12 C                    -0.079308
     13 C                     0.219524
     14 O                    -0.196926
     15 O                    -0.170268
     16 O                    -0.181796
     17 O                    -0.189841
     18 C                    -0.135519
     19 C                     0.025915
     20 C                    -0.144343
     21 C                    -0.143852
     22 C                     0.025415
     23 O                    -0.182208
     24 H                     0.074545
     25 H                     0.082162
     26 H                     0.084963
     27 H                     0.079721
     28 H                     0.071049
     29 H                     0.079705
     30 H                     0.072289
     31 H                     0.091474
     32 O                    -0.202077
     33 C                    -0.128716
     34 C                     0.026137
     35 C                    -0.143975
     36 C                    -0.144301
     37 C                     0.026026
     38 O                    -0.186368
     39 H                     0.081861
     40 H                     0.074402
     41 H                     0.090011
     42 H                     0.085243
     43 H                     0.079576
     44 H                     0.072348
     45 H                     0.079802
     46 H                     0.071773
     47 H                     0.094300
     48 H                     0.093740
     49 H                     0.092234
     50 H                     0.113467
     51 H                     0.083349
     52 H                     0.100443
     53 H                     0.086813
     54 H                     0.073927
     55 H                     0.114813
     56 H                     0.073078
  ----------------------------------------
  Sum of atomic charges =     0.000000

                    Cartesian Multipole Moments
 -----------------------------------------------------------------
    Charge (ESU x 10^10)
                 0.0000
    Dipole Moment (Debye)
         X       1.2235      Y       7.0973      Z      -3.4600
       Tot       7.9900
    Quadrupole Moments (Debye-Ang)
        XX    -172.2815     XY      -1.9389     YY    -164.4561
        XZ       4.8483     YZ       9.7058     ZZ    -155.6960

 Total job time:  132.04s(wall), 6299.19s(cpu)
        *  Thank you very much for using Q-Chem.  Have a nice day.  *
