 Q-Chem 5.0, Q-Chem, Inc., Pleasanton, CA (2017)
 Q-Chem 5.0.1 for Intel X86 EM64T Linux

User input:
--------------------------------------------------------------
$molecule
0  1
O -3.94934 -3.66094 2.70899
C -3.26408 -4.56952 2.26188
C -3.36658 -6.02376 2.66595
C -4.73745 -6.52338 3.15068
C -5.89497 -5.55994 3.00924
O -6.88685 -6.13239 2.265
C -6.50937 -6.35914 0.90289
C -5.77905 -7.69193 0.77474
O -6.65076 -8.67364 0.19229
C -6.41056 -8.96758 -1.10965
C -5.716 -10.29576 -1.2945
C -4.22034 -10.20293 -1.63018
C -3.57011 -8.85643 -1.38352
O -3.27113 -8.04479 -2.24747
O -2.33832 -4.28962 1.30907
O -2.70646 -8.88113 -0.33166
O -6.50726 -8.13512 -1.99948
C -1.38705 -8.47184 -0.44021
C -5.66582 -11.23321 -0.06052
C -5.56131 -12.68296 -0.52832
C -4.15593 -12.69547 -1.09067
C -3.68269 -11.29615 -0.67495
O -4.39609 -11.02408 0.50624
H -6.29746 -10.82112 -2.08564
H -4.02689 -10.45152 -2.69719
H -6.53416 -11.12659 0.62508
H -5.58347 -13.31412 0.38948
H -6.35312 -13.03141 -1.22573
H -3.57877 -13.4925 -0.5716
H -4.08635 -12.82717 -2.19223
H -2.57369 -11.28831 -0.59538
O -6.13921 -4.64178 3.78411
C -2.11135 -3.03122 0.79304
C -2.54681 -7.28936 2.43119
C -1.93321 -7.81134 3.73374
C -3.20141 -8.2299 4.47719
C -4.28495 -8.02575 3.37908
O -3.52417 -8.28178 2.21471
H -2.91371 -5.68431 3.62977
H -4.78074 -6.36194 4.25274
H -1.7937 -2.33753 1.6006
H -1.80202 -7.1183 1.64494
H -1.34561 -8.7201 3.47039
H -1.27649 -7.10392 4.28494
H -3.09995 -9.30687 4.73736
H -3.41802 -7.65327 5.40181
H -5.13451 -8.70767 3.60794
H -3.03299 -2.64556 0.30683
H -1.30485 -3.08967 0.03366
H -0.84395 -8.70664 0.49719
H -1.32866 -7.38397 -0.6601
H -0.88263 -9.03921 -1.25182
H -4.82399 -7.55103 0.24899
H -5.78156 -8.17092 1.71129
H -5.8794 -5.5241 0.51488
H -7.42218 -6.36267 0.26964
$end

$opt
CONSTRAINT
tors           1           2           3           4     +28.421
tors           3           4           5           6    +123.158
tors           4           5           6           7     -66.316
tors           5           6           7           8     +85.263
tors           6           7           8           9    +104.211
tors           7           8           9          10    +104.211
tors           8           9          10          11    +104.211
tors           9          10          11          12    -104.211
tors          11          12          13          14    -104.211
ENDCONSTRAINT
$end

$rem
JOBTYPE                   OPT
METHOD                    B3LYP
DFT_D                     d3_op
BASIS                     STO-3G
GEOM_OPT_MAX_CYCLES       100
GEOM_OPT_TOL_GRADIENT     300
GEOM_OPT_TOL_DISPLACEMENT 1200
GEOM_OPT_TOL_ENERGY       100
SYMMETRY                  False
THRESH                    12
SCF_CONVERGENCE           8
MAX_SUB_FILE_NUM          128
MEM_STATIC                400
MEM_TOTAL                 4000
$end
--------------------------------------------------------------

   16   -1509.9460574999      5.97E-09 Convergence criterion met
 Total energy in the final basis set = -1509.94605750
   15   -1510.0273171689      3.07E-09 Convergence criterion met
 Total energy in the final basis set = -1510.02731717
   15   -1510.0819810849      2.66E-09 Convergence criterion met
 Total energy in the final basis set = -1510.08198108
   14   -1510.1161100859      6.42E-09 Convergence criterion met
 Total energy in the final basis set = -1510.11611009
   14   -1510.1403204458      4.85E-09 Convergence criterion met
 Total energy in the final basis set = -1510.14032045
   14   -1510.1579796120      5.75E-09 Convergence criterion met
 Total energy in the final basis set = -1510.15797961
   14   -1510.1722716972      5.21E-09 Convergence criterion met
 Total energy in the final basis set = -1510.17227170
   14   -1510.1837192499      4.16E-09 Convergence criterion met
   12   -1510.2336774309      3.69E-09 Convergence criterion met
 Total energy in the final basis set = -1510.23367743
   12   -1510.2338297123      2.64E-09 Convergence criterion met
 Total energy in the final basis set = -1510.23382971
   11   -1510.2339586523      9.84E-09 Convergence criterion met
 Total energy in the final basis set = -1510.23395865
   11   -1510.2339923141      6.44E-09 Convergence criterion met
 Total energy in the final basis set = -1510.23399231
   11   -1510.2340049605      4.31E-09 Convergence criterion met
 Total energy in the final basis set = -1510.23400496
   10   -1510.2340074850      8.19E-09 Convergence criterion met
 Total energy in the final basis set = -1510.23400749

             Standard Nuclear Orientation (Angstroms)
    I     Atom           X                Y                Z
 ----------------------------------------------------------------
    1      O       3.3419930582    -0.2377015413     1.2581120955
    2      C       3.2344793287     0.7646661523     0.5141973771
    3      C       3.2364870197     0.7757341109    -1.0577932324
    4      C       2.6794078766    -0.5861780548    -1.6536993169
    5      C       2.9524215907    -1.8192907568    -0.6556291430
    6      O       1.9624953691    -2.7169492531    -0.0961022939
    7      C       1.0034652360    -2.0929091504     0.8522616418
    8      C      -0.2769400405    -1.3960318800     0.2342041659
    9      O      -1.4855977507    -2.2410346585     0.4240255016
   10      C      -2.3041188725    -1.6929501688     1.4878123942
   11      C      -3.5896411025    -0.9358062772     0.9511662324
   12      C      -3.4803459551     0.6544199778     1.0104446495
   13      C      -2.3113346434     1.2600137121     1.8573930424
   14      O      -2.4084884835     1.7848275672     2.9873042825
   15      O       3.1444106848     2.1028436246     1.0127128744
   16      O      -1.0819963014     1.2366201016     1.1102488589
   17      O      -2.0241816544    -1.8128847529     2.7002887508
   18      C      -0.0041255776     1.9017772859     1.8780482866
   19      C      -3.7524260387    -1.1457281108    -0.6102647509
   20      C      -5.1577439499    -0.5919686552    -1.0778339607
   21      C      -4.8904421917     0.9590781427    -1.0988873584
   22      C      -3.4149863606     1.0104953110    -0.5418170539
   23      O      -2.7805459959    -0.1715744638    -1.1633754282
   24      H      -4.4697687291    -1.2772837609     1.5259157959
   25      H      -4.4051172077     1.0577836230     1.4606719154
   26      H      -3.5064296546    -2.1682165649    -0.9538690127
   27      H      -5.4108536805    -0.9744115301    -2.0791562517
   28      H      -5.9623036587    -0.8728064882    -0.3794119018
   29      H      -4.9249546448     1.3592323028    -2.1249420122
   30      H      -5.5978267987     1.5258995153    -0.4728213997
   31      H      -2.8431463873     1.9277980609    -0.7806676457
   32      O       4.1354998659    -2.2369848564    -0.6284653645
   33      C       3.3601333449     2.1155900358     2.4807516780
   34      C       2.1473299581     1.7962188784    -1.5934115857
   35      C       2.2949310887     1.9414572183    -3.1576834459
   36      C       1.6292893348     0.6049295309    -3.6491131171
   37      C       1.3028299227    -0.1017408499    -2.2735311895
   38      O       0.8855504291     1.0321371743    -1.4131438384
   39      H       4.2587836780     1.0068085690    -1.4083128761
   40      H       3.3343731718    -0.8629392316    -2.5002111186
   41      H       4.4138174873     1.8750148031     2.7288686387
   42      H       2.1078186399     2.7463774891    -1.0273471339
   43      H       1.7484555953     2.8266257682    -3.5192401091
   44      H       3.3499152247     2.0280806831    -3.4635981094
   45      H       0.6937540262     0.8006823678    -4.1973580431
   46      H       2.2939524585     0.0005739511    -4.2868603091
   47      H       0.5102735372    -0.8659028072    -2.3573074361
   48      H       2.7019494806     1.3909771685     2.9993516095
   49      H       3.1256998605     3.1428003109     2.8147612994
   50      H       0.8742579336     1.9402976841     1.2063590904
   51      H       0.2468535773     1.3282461068     2.7934555565
   52      H      -0.2976341588     2.9281223029     2.1746963551
   53      H      -0.4378971802    -0.3592866869     0.6123540063
   54      H      -0.1639782590    -1.3455333570    -0.8600918215
   55      H       1.5559974143    -1.3719123116     1.4940719300
   56      H       0.6572233585    -2.9344691069     1.4882756288
 ----------------------------------------------------------------

    9   -1510.2340078985      6.53E-09 Convergence criterion met
 Total energy in the final basis set = -1510.23400790
 Final energy is   -1510.23400789847
 **  OPTIMIZATION CONVERGED  **

                    Orbital Energies (a.u.)
 --------------------------------------------------------------

 Alpha MOs
 -- Occupied --
-18.956 -18.952 -18.903 -18.900 -18.893 -18.892 -18.889 -18.889
-18.887 -18.860 -10.117 -10.110 -10.101 -10.088 -10.079 -10.070
-10.065 -10.063 -10.063 -10.058 -10.048 -10.046 -10.043 -10.037
-10.037 -10.032 -10.025 -10.023 -10.022 -10.021  -1.032  -1.023
 -0.999  -0.985  -0.975  -0.971  -0.955  -0.947  -0.926  -0.914
 -0.766  -0.764  -0.728  -0.724  -0.709  -0.708  -0.681  -0.676
 -0.668  -0.604  -0.600  -0.579  -0.552  -0.548  -0.543  -0.538
 -0.518  -0.510  -0.490  -0.484  -0.472  -0.462  -0.452  -0.440
 -0.437  -0.433  -0.426  -0.424  -0.418  -0.412  -0.405  -0.399
 -0.393  -0.385  -0.383  -0.376  -0.363  -0.357  -0.354  -0.347
 -0.344  -0.340  -0.337  -0.333  -0.329  -0.328  -0.319  -0.314
 -0.313  -0.311  -0.308  -0.302  -0.297  -0.290  -0.285  -0.279
 -0.273  -0.269  -0.262  -0.240  -0.236  -0.228  -0.217  -0.197
 -0.189  -0.173  -0.168  -0.161  -0.152  -0.148  -0.145  -0.137
 -0.129

          Ground-State Mulliken Net Atomic Charges

     Atom                 Charge (a.u.)
  ----------------------------------------
      1 O                    -0.203176
      2 C                     0.214368
      3 C                    -0.077850
      4 C                    -0.086894
      5 C                     0.209320
      6 O                    -0.178628
      7 C                    -0.058445
      8 C                    -0.073083
      9 O                    -0.201194
     10 C                     0.216172
     11 C                    -0.080459
     12 C                    -0.081607
     13 C                     0.208568
     14 O                    -0.203627
     15 O                    -0.169021
     16 O                    -0.163843
     17 O                    -0.188819
     18 C                    -0.131861
     19 C                     0.024901
     20 C                    -0.145629
     21 C                    -0.143023
     22 C                     0.025431
     23 O                    -0.188149
     24 H                     0.084384
     25 H                     0.086935
     26 H                     0.091829
     27 H                     0.078058
     28 H                     0.073565
     29 H                     0.077866
     30 H                     0.073529
     31 H                     0.086536
     32 O                    -0.201918
     33 C                    -0.129635
     34 C                     0.020608
     35 C                    -0.144795
     36 C                    -0.141810
     37 C                     0.021238
     38 O                    -0.192139
     39 H                     0.091333
     40 H                     0.085614
     41 H                     0.092794
     42 H                     0.087558
     43 H                     0.078491
     44 H                     0.074661
     45 H                     0.079703
     46 H                     0.075428
     47 H                     0.089020
     48 H                     0.094730
     49 H                     0.094079
     50 H                     0.099344
     51 H                     0.087349
     52 H                     0.091003
     53 H                     0.108436
     54 H                     0.085476
     55 H                     0.084120
     56 H                     0.093160
  ----------------------------------------
  Sum of atomic charges =    -0.000000

                    Cartesian Multipole Moments
 -----------------------------------------------------------------
    Charge (ESU x 10^10)
                -0.0000
    Dipole Moment (Debye)
         X      -1.2850      Y       4.6635      Z      -1.7898
       Tot       5.1578
    Quadrupole Moments (Debye-Ang)
        XX    -152.6199     XY      14.7882     YY    -166.5198
        XZ       3.9757     YZ       2.6625     ZZ    -159.9049

 Total job time:  91.76s(wall), 4373.29s(cpu)
        *  Thank you very much for using Q-Chem.  Have a nice day.  *
