 Q-Chem 5.0, Q-Chem, Inc., Pleasanton, CA (2017)
 Q-Chem 5.0.1 for Intel X86 EM64T Linux

User input:
--------------------------------------------------------------
$molecule
0  1
O 3.3419930582 -0.2377015413 1.2581120955
C 3.2344793287 0.7646661523 0.5141973771
C 3.2364870197 0.7757341109 -1.0577932324
C 2.6794078766 -0.5861780548 -1.6536993169
C 2.9524215907 -1.8192907568 -0.655629143
O 1.9624953691 -2.7169492531 -0.0961022939
C 1.003465236 -2.0929091504 0.8522616418
C -0.2769400405 -1.39603188 0.2342041659
O -1.4855977507 -2.2410346585 0.4240255016
C -2.3041188725 -1.6929501688 1.4878123942
C -3.5896411025 -0.9358062772 0.9511662324
C -3.4803459551 0.6544199778 1.0104446495
C -2.3113346434 1.2600137121 1.8573930424
O -2.4084884835 1.7848275672 2.9873042825
O 3.1444106848 2.1028436246 1.0127128744
O -1.0819963014 1.2366201016 1.1102488589
O -2.0241816544 -1.8128847529 2.7002887508
C -0.0041255776 1.9017772859 1.8780482866
C -3.7524260387 -1.1457281108 -0.6102647509
C -5.1577439499 -0.5919686552 -1.0778339607
C -4.8904421917 0.9590781427 -1.0988873584
C -3.4149863606 1.010495311 -0.5418170539
O -2.7805459959 -0.1715744638 -1.1633754282
H -4.4697687291 -1.2772837609 1.5259157959
H -4.4051172077 1.057783623 1.4606719154
H -3.5064296546 -2.1682165649 -0.9538690127
H -5.4108536805 -0.9744115301 -2.0791562517
H -5.9623036587 -0.8728064882 -0.3794119018
H -4.9249546448 1.3592323028 -2.1249420122
H -5.5978267987 1.5258995153 -0.4728213997
H -2.8431463873 1.9277980609 -0.7806676457
O 4.1354998659 -2.2369848564 -0.6284653645
C 3.3601333449 2.1155900358 2.480751678
C 2.1473299581 1.7962188784 -1.5934115857
C 2.2949310887 1.9414572183 -3.1576834459
C 1.6292893348 0.6049295309 -3.6491131171
C 1.3028299227 -0.1017408499 -2.2735311895
O 0.8855504291 1.0321371743 -1.4131438384
H 4.258783678 1.006808569 -1.4083128761
H 3.3343731718 -0.8629392316 -2.5002111186
H 4.4138174873 1.8750148031 2.7288686387
H 2.1078186399 2.7463774891 -1.0273471339
H 1.7484555953 2.8266257682 -3.5192401091
H 3.3499152247 2.0280806831 -3.4635981094
H 0.6937540262 0.8006823678 -4.1973580431
H 2.2939524585 0.0005739511 -4.2868603091
H 0.5102735372 -0.8659028072 -2.3573074361
H 2.7019494806 1.3909771685 2.9993516095
H 3.1256998605 3.1428003109 2.8147612994
H 0.8742579336 1.9402976841 1.2063590904
H 0.2468535773 1.3282461068 2.7934555565
H -0.2976341588 2.9281223029 2.1746963551
H -0.4378971802 -0.3592866869 0.6123540063
H -0.163978259 -1.345533357 -0.8600918215
H 1.5559974143 -1.3719123116 1.49407193
H 0.6572233585 -2.9344691069 1.4882756288
$end

$rem
JOBTYPE                   OPT
METHOD                    B3LYP
DFT_D                     d3_op
BASIS                     STO-3G
GEOM_OPT_MAX_CYCLES       100
GEOM_OPT_TOL_GRADIENT     300
GEOM_OPT_TOL_DISPLACEMENT 1200
GEOM_OPT_TOL_ENERGY       100
SYMMETRY                  False
THRESH                    12
SCF_CONVERGENCE           8
MAX_SUB_FILE_NUM          128
MEM_STATIC                400
MEM_TOTAL                 4000
$end
--------------------------------------------------------------

   16   -1510.2336325069      6.68E-09 Convergence criterion met
 Total energy in the final basis set = -1510.23363251
   15   -1510.2361757199      2.63E-09 Convergence criterion met
 Total energy in the final basis set = -1510.23617572
   14   -1510.2384617949      3.33E-09 Convergence criterion met
 Total energy in the final basis set = -1510.23846179
   14   -1510.2438295474      4.51E-09 Convergence criterion met
 Total energy in the final basis set = -1510.24382955
   15   -1510.2406066715      4.40E-09 Convergence criterion met
 Total energy in the final basis set = -1510.24060667
   14   -1510.2450200450      7.01E-09 Convergence criterion met
 Total energy in the final basis set = -1510.24502005
   14   -1510.2513712942      8.67E-09 Convergence criterion met
 Total energy in the final basis set = -1510.25137129
   15   -1510.2320071652      7.21E-09 Convergence criterion met
   12   -1510.2834842721      9.03E-09 Convergence criterion met
 Total energy in the final basis set = -1510.28348427
   12   -1510.2835566621      4.00E-09 Convergence criterion met
 Total energy in the final basis set = -1510.28355666
   11   -1510.2835745941      9.13E-09 Convergence criterion met
 Total energy in the final basis set = -1510.28357459
   11   -1510.2835868685      5.30E-09 Convergence criterion met
 Total energy in the final basis set = -1510.28358687
   11   -1510.2835930246      3.10E-09 Convergence criterion met
 Total energy in the final basis set = -1510.28359302
    9   -1510.2835955457      7.40E-09 Convergence criterion met
 Total energy in the final basis set = -1510.28359555

             Standard Nuclear Orientation (Angstroms)
    I     Atom           X                Y                Z
 ----------------------------------------------------------------
    1      O      -2.7352269102    -1.7142695244     1.2350538741
    2      C      -2.6849157400    -1.2648205284     0.0691830793
    3      C      -3.6201369684    -0.1422132461    -0.5107779642
    4      C      -3.8760030152     1.0419991243     0.5175741570
    5      C      -3.3187711269     0.8821921398     2.0012694966
    6      O      -1.9578136139     1.1722864879     2.3374866695
    7      C      -0.9340988177     0.8641541238     1.3048865746
    8      C       0.3838621754     1.5010865958     1.8785221521
    9      O       1.6473032818     1.1222784233     1.1884762871
   10      C       1.8722466559    -0.2858320702     1.1629337373
   11      C       3.3528239226    -0.5990208973     0.7238058941
   12      C       3.4702722545    -1.2662364581    -0.7138029408
   13      C       2.1209021867    -1.2977884461    -1.5042835653
   14      O       1.6176521362    -2.2663645854    -2.1179516857
   15      O      -1.7607998987    -1.7227536909    -0.9239931027
   16      O       1.5458124347     0.0033255708    -1.4259785312
   17      O       1.0353883931    -1.1628817278     1.4889521919
   18      C       0.2711609208     0.0660288319    -2.1782125046
   19      C       4.2849165617     0.6722286694     0.5494585979
   20      C       5.7863527304     0.1842507143     0.6185235901
   21      C       5.9360337778    -0.5280421563    -0.7773066313
   22      C       4.5076027778    -0.2754897813    -1.4043257575
   23      O       4.1152244828     1.0476204882    -0.8731382257
   24      H       3.7609133605    -1.2869408619     1.4871269828
   25      H       3.8605738206    -2.2972718741    -0.6558657414
   26      H       4.0235492850     1.5220580356     1.2078923866
   27      H       6.4671081039     1.0457600784     0.7064959012
   28      H       5.9651264251    -0.4967157273     1.4659241317
   29      H       6.7168158406    -0.0543834800    -1.3932376417
   30      H       6.1617978181    -1.6022551063    -0.6841085886
   31      H       4.4721505947    -0.2761252317    -2.5111621953
   32      O      -4.1072012720     0.6845144685     2.9546945736
   33      C      -0.8581722470    -2.7604469094    -0.3563582828
   34      C      -3.0476084242     0.6572285607    -1.7498818436
   35      C      -4.2252099656     1.4704847439    -2.4158503023
   36      C      -4.4028474302     2.6588462457    -1.4001686445
   37      C      -3.3303234848     2.2869436763    -0.3084261153
   38      O      -2.2195373930     1.7215957971    -1.1218684795
   39      H      -4.5785520197    -0.6270521649    -0.7746413779
   40      H      -4.9642624907     1.1527552876     0.6695017801
   41      H      -1.4301338750    -3.6437309325    -0.0116217753
   42      H      -2.4463958863     0.0497339194    -2.4500922121
   43      H      -3.9254820992     1.8320741011    -3.4123135120
   44      H      -5.1364924907     0.8603385515    -2.5215647899
   45      H      -4.1572683734     3.6268312034    -1.8654325209
   46      H      -5.4196992540     2.7144858052    -0.9801466601
   47      H      -2.9632990125     3.1299375706     0.3084758821
   48      H      -0.2591391957    -2.3450010567     0.4851247041
   49      H      -0.1713212273    -3.0316348484    -1.1821459770
   50      H      -0.0675461376     1.1156675166    -2.1049395576
   51      H      -0.4990455821    -0.6039860602    -1.7297105277
   52      H       0.4205404470    -0.2054730854    -3.2423498399
   53      H       0.3510617035     2.6070934948     1.8085691811
   54      H       0.4515961691     1.2181315375     2.9526651478
   55      H      -1.2155017368     1.2387778708     0.2875888491
   56      H      -0.7564289386    -0.2291785222     1.2753115525
 ----------------------------------------------------------------

   10   -1510.2835961796      7.72E-09 Convergence criterion met
 Total energy in the final basis set = -1510.28359618
 Final energy is   -1510.28359617956
 **  OPTIMIZATION CONVERGED  **

                    Orbital Energies (a.u.)
 --------------------------------------------------------------

 Alpha MOs
 -- Occupied --
-18.948 -18.941 -18.934 -18.915 -18.915 -18.889 -18.887 -18.877
-18.873 -18.864 -10.110 -10.109 -10.099 -10.093 -10.074 -10.074
-10.069 -10.062 -10.059 -10.051 -10.049 -10.044 -10.041 -10.040
-10.039 -10.038 -10.033 -10.032 -10.021 -10.020  -1.021  -1.016
 -1.008  -0.995  -0.988  -0.970  -0.945  -0.941  -0.935  -0.924
 -0.774  -0.764  -0.731  -0.725  -0.717  -0.711  -0.693  -0.660
 -0.654  -0.609  -0.602  -0.585  -0.559  -0.550  -0.546  -0.538
 -0.523  -0.513  -0.488  -0.478  -0.472  -0.463  -0.453  -0.446
 -0.440  -0.434  -0.428  -0.420  -0.415  -0.409  -0.404  -0.395
 -0.388  -0.379  -0.378  -0.370  -0.363  -0.361  -0.359  -0.350
 -0.348  -0.342  -0.337  -0.332  -0.331  -0.324  -0.323  -0.321
 -0.314  -0.309  -0.305  -0.303  -0.299  -0.291  -0.288  -0.281
 -0.276  -0.263  -0.255  -0.251  -0.244  -0.234  -0.232  -0.189
 -0.182  -0.172  -0.169  -0.165  -0.159  -0.152  -0.146  -0.142
 -0.137

          Ground-State Mulliken Net Atomic Charges

     Atom                 Charge (a.u.)
  ----------------------------------------
      1 O                    -0.201514
      2 C                     0.210794
      3 C                    -0.081165
      4 C                    -0.086058
      5 C                     0.209276
      6 O                    -0.179632
      7 C                    -0.082902
      8 C                    -0.047026
      9 O                    -0.161703
     10 C                     0.219494
     11 C                    -0.077749
     12 C                    -0.079357
     13 C                     0.208215
     14 O                    -0.219882
     15 O                    -0.172199
     16 O                    -0.166163
     17 O                    -0.223870
     18 C                    -0.147932
     19 C                     0.025317
     20 C                    -0.143925
     21 C                    -0.144257
     22 C                     0.026359
     23 O                    -0.184264
     24 H                     0.084614
     25 H                     0.084801
     26 H                     0.090852
     27 H                     0.078033
     28 H                     0.073018
     29 H                     0.078133
     30 H                     0.073910
     31 H                     0.082481
     32 O                    -0.200821
     33 C                    -0.144598
     34 C                     0.022773
     35 C                    -0.143175
     36 C                    -0.142291
     37 C                     0.021754
     38 O                    -0.189115
     39 H                     0.089493
     40 H                     0.088660
     41 H                     0.087643
     42 H                     0.095062
     43 H                     0.080860
     44 H                     0.077249
     45 H                     0.081101
     46 H                     0.078763
     47 H                     0.088204
     48 H                     0.106379
     49 H                     0.103612
     50 H                     0.092733
     51 H                     0.103642
     52 H                     0.080063
     53 H                     0.089005
     54 H                     0.089271
     55 H                     0.103801
     56 H                     0.094235
  ----------------------------------------
  Sum of atomic charges =     0.000000

                    Cartesian Multipole Moments
 -----------------------------------------------------------------
    Charge (ESU x 10^10)
                 0.0000
    Dipole Moment (Debye)
         X       0.9672      Y       0.8371      Z      -2.9158
       Tot       3.1841
    Quadrupole Moments (Debye-Ang)
        XX    -144.5185     XY      -8.8348     YY    -160.4007
        XZ      19.8473     YZ       0.0926     ZZ    -169.3377

 Total job time:  205.20s(wall), 9797.55s(cpu)
        *  Thank you very much for using Q-Chem.  Have a nice day.  *
