 Q-Chem 5.0, Q-Chem, Inc., Pleasanton, CA (2017)
 Q-Chem 5.0.1 for Intel X86 EM64T Linux

User input:
--------------------------------------------------------------
$molecule
0  1
O -3.94934 -3.66094 2.70899
C -3.26408 -4.56952 2.26188
C -3.36658 -6.02376 2.66595
C -4.41631 -6.88207 1.94122
C -5.12384 -6.23632 0.77054
O -6.27965 -6.91085 0.49747
C -7.06673 -7.17455 1.66376
C -7.31972 -8.67245 1.7995
O -8.14868 -9.12867 0.71895
C -8.99598 -8.20378 0.2034
C -9.41033 -7.15863 1.21168
C -10.37102 -6.08712 0.67574
C -11.04657 -6.40538 -0.64299
O -11.8605 -7.29924 -0.82487
O -2.26778 -4.23585 1.39453
O -10.78249 -5.55076 -1.66696
O -9.34964 -8.29639 -0.96024
C -11.32945 -5.65609 -2.92862
C -10.37835 -7.8208 2.2697
C -10.36897 -7.04453 3.59372
C -11.05319 -5.75441 3.15054
C -11.50608 -6.15802 1.73499
O -11.68606 -7.54539 1.83114
H -9.03135 -6.34998 1.80349
H -9.91663 -5.0671 0.54018
H -10.18074 -8.89979 2.44957
H -11.0479 -7.59325 4.2859
H -9.37873 -6.9137 4.08084
H -11.91464 -5.56696 3.82846
H -10.39818 -4.85754 3.10164
H -12.4021 -5.57629 1.42291
O -4.55092 -5.59256 -0.09605
C -2.0197 -2.95713 0.94085
C -2.06557 -6.77887 2.30513
C -1.96956 -8.10096 3.07406
C -2.91677 -8.95086 2.2653
C -3.44392 -7.90913 1.27278
O -2.28827 -7.1683 0.97836
H -3.48021 -6.02427 3.77303
H -4.87555 -7.55566 2.67448
H -1.7772 -2.28807 1.79391
H -1.15074 -6.17529 2.49588
H -0.94756 -8.53282 2.98703
H -2.23764 -7.97883 4.14576
H -2.31797 -9.68457 1.67867
H -3.68668 -9.49974 2.84912
H -3.90091 -8.44487 0.40928
H -2.9058 -2.56678 0.39601
H -1.1547 -2.97917 0.24678
H -10.94203 -4.83272 -3.563
H -12.43621 -5.57554 -2.87431
H -11.04511 -6.62671 -3.38853
H -6.35937 -9.2304 1.789
H -7.82643 -8.9099 2.76109
H -7.21243 -6.18305 2.1646
H -6.68645 -7.01563 2.67995
$end

$opt
CONSTRAINT
tors           1           2           3           4     +85.263
tors           3           4           5           6    -161.053
tors           4           5           6           7     +47.368
tors           5           6           7           8    -123.158
tors           6           7           8           9     -66.316
tors           7           8           9          10     -28.421
tors           8           9          10          11     -28.421
tors           9          10          11          12    -180.000
tors          11          12          13          14     +66.316
ENDCONSTRAINT
$end

$rem
JOBTYPE                   OPT
METHOD                    B3LYP
DFT_D                     d3_op
BASIS                     STO-3G
GEOM_OPT_MAX_CYCLES       100
GEOM_OPT_TOL_GRADIENT     300
GEOM_OPT_TOL_DISPLACEMENT 1200
GEOM_OPT_TOL_ENERGY       100
SYMMETRY                  False
THRESH                    12
SCF_CONVERGENCE           8
MAX_SUB_FILE_NUM          128
MEM_STATIC                400
MEM_TOTAL                 4000
$end
--------------------------------------------------------------

   16   -1509.8807569526      3.55E-09 Convergence criterion met
 Total energy in the final basis set = -1509.88075695
   14   -1509.9780189198      5.59E-09 Convergence criterion met
 Total energy in the final basis set = -1509.97801892
   13   -1510.0464588847      9.67E-09 Convergence criterion met
 Total energy in the final basis set = -1510.04645888
   13   -1510.0954829108      9.27E-09 Convergence criterion met
 Total energy in the final basis set = -1510.09548291
   13   -1510.1334709339      9.36E-09 Convergence criterion met
 Total energy in the final basis set = -1510.13347093
   13   -1510.1628077126      7.71E-09 Convergence criterion met
 Total energy in the final basis set = -1510.16280771
   13   -1510.1855465610      6.21E-09 Convergence criterion met
 Total energy in the final basis set = -1510.18554656
   13   -1510.2027901197      4.88E-09 Convergence criterion met
   10   -1510.2371811408      8.50E-09 Convergence criterion met
 Total energy in the final basis set = -1510.23718114
   10   -1510.2372134049      6.89E-09 Convergence criterion met
 Total energy in the final basis set = -1510.23721340
   10   -1510.2372280617      3.42E-09 Convergence criterion met
 Total energy in the final basis set = -1510.23722806
   10   -1510.2372331032      3.01E-09 Convergence criterion met
 Total energy in the final basis set = -1510.23723310
    9   -1510.2372365156      4.19E-09 Convergence criterion met
 Total energy in the final basis set = -1510.23723652
    9   -1510.2372378618      2.39E-09 Convergence criterion met
 Total energy in the final basis set = -1510.23723786

             Standard Nuclear Orientation (Angstroms)
    I     Atom           X                Y                Z
 ----------------------------------------------------------------
    1      O      -4.2554409632    -1.0810000368     2.6122736176
    2      C      -4.6860843805    -0.8197982663     1.4670663779
    3      C      -4.5674003963     0.5683900952     0.7298196675
    4      C      -3.1941067791     0.7584082236    -0.0410751762
    5      C      -2.2398346499    -0.4902382316     0.0664021082
    6      O      -0.8387839571    -0.3000381268    -0.2183849934
    7      C      -0.2142894361     0.8666408306     0.4385183669
    8      C       0.4358636318     1.8314501118    -0.6254528083
    9      O       1.6004361577     1.4592005404    -1.4584104122
   10      C       2.6151732120     0.5214788037    -1.0695261945
   11      C       2.9853234134     0.2839893466     0.4412594389
   12      C       4.1282739780    -0.7898240605     0.6487402423
   13      C       5.0303260462    -1.0345176619    -0.6195427448
   14      O       5.8191792932    -0.2323036973    -1.1617816600
   15      O      -5.4575903289    -1.7204102781     0.6689011951
   16      O       4.8312893304    -2.3907945249    -1.0426851846
   17      O       3.2134183267    -0.0349927177    -2.0193802174
   18      C       5.6083069213    -2.6478279571    -2.2760115021
   19      C       3.5621517185     1.5354783667     1.2389113526
   20      C       3.2342874657     1.2986851586     2.7655207520
   21      C       4.2099462145     0.1053251116     3.0891198479
   22      C       5.0086212998    -0.0261361748     1.7301213443
   23      O       5.0288723405     1.3553323609     1.1891980537
   24      H       2.0897343942    -0.0963563925     0.9532992554
   25      H       3.7262959844    -1.7538455172     1.0044738888
   26      H       3.2760133878     2.5250823381     0.8323037452
   27      H       3.4884691911     2.1957249534     3.3528134801
   28      H       2.1759000470     1.0488783314     2.9430583371
   29      H       4.8917777120     0.3519874692     3.9181428554
   30      H       3.6726865218    -0.8235897194     3.3400085486
   31      H       6.0415404471    -0.4118351006     1.8294437756
   32      O      -2.6503166741    -1.6639092746     0.2050708827
   33      C      -5.5014703676    -3.0508184189     1.3157003660
   34      C      -5.5974728857     0.7266182523    -0.4664920171
   35      C      -5.6444871420     2.2478113727    -0.8962212376
   36      C      -4.2928257104     2.3857460975    -1.6910199731
   37      C      -3.7083869871     0.9269560862    -1.5428356449
   38      O      -4.9060819255     0.0647097034    -1.5988484189
   39      H      -4.6925526291     1.3611327317     1.4889115313
   40      H      -2.6898805626     1.6789705149     0.2910251203
   41      H      -5.9065825407    -2.9928630987     2.3467490251
   42      H      -6.5814468222     0.2531999130    -0.2874746019
   43      H      -6.5149519137     2.4386156243    -1.5436437502
   44      H      -5.6963007858     2.9220570390    -0.0265746706
   45      H      -4.4698167279     2.6195259714    -2.7529612095
   46      H      -3.6222113326     3.1505392081    -1.2675630685
   47      H      -2.9737932109     0.6286602969    -2.3164972800
   48      H      -4.4907892381    -3.5062354280     1.3550286582
   49      H      -6.1644054573    -3.6741618346     0.6879004038
   50      H       5.4066426422    -3.6991731776    -2.5523758655
   51      H       6.6968046005    -2.5093983962    -2.1120573152
   52      H       5.2877218670    -1.9777879981    -3.0997713581
   53      H      -0.3491168785     2.0839146625    -1.3703316403
   54      H       0.6859822977     2.7706123644    -0.0763689638
   55      H       0.5227406093     0.4947942856     1.1750288698
   56      H      -0.9448085090     1.4825244898     1.0015792235
 ----------------------------------------------------------------

    9   -1510.2372383940      2.13E-09 Convergence criterion met
 Total energy in the final basis set = -1510.23723839
 Final energy is   -1510.23723839402
 **  OPTIMIZATION CONVERGED  **

                    Orbital Energies (a.u.)
 --------------------------------------------------------------

 Alpha MOs
 -- Occupied --
-18.937 -18.934 -18.929 -18.918 -18.901 -18.896 -18.893 -18.888
-18.864 -18.855 -10.116 -10.111 -10.097 -10.096 -10.094 -10.086
-10.070 -10.069 -10.064 -10.062 -10.057 -10.050 -10.049 -10.043
-10.042 -10.035 -10.029 -10.028 -10.026 -10.025  -1.020  -1.011
 -1.004  -0.994  -0.977  -0.974  -0.954  -0.940  -0.929  -0.919
 -0.770  -0.767  -0.733  -0.729  -0.726  -0.713  -0.709  -0.656
 -0.653  -0.627  -0.607  -0.595  -0.555  -0.551  -0.545  -0.541
 -0.524  -0.515  -0.495  -0.485  -0.472  -0.463  -0.459  -0.453
 -0.443  -0.440  -0.437  -0.419  -0.413  -0.409  -0.404  -0.401
 -0.401  -0.399  -0.388  -0.370  -0.361  -0.360  -0.353  -0.346
 -0.343  -0.340  -0.338  -0.336  -0.334  -0.330  -0.325  -0.322
 -0.318  -0.316  -0.312  -0.309  -0.300  -0.287  -0.283  -0.279
 -0.271  -0.253  -0.249  -0.243  -0.240  -0.239  -0.234  -0.187
 -0.175  -0.170  -0.164  -0.163  -0.154  -0.152  -0.148  -0.145
 -0.135

          Ground-State Mulliken Net Atomic Charges

     Atom                 Charge (a.u.)
  ----------------------------------------
      1 O                    -0.223206
      2 C                     0.212402
      3 C                    -0.080079
      4 C                    -0.084684
      5 C                     0.214993
      6 O                    -0.178994
      7 C                    -0.049360
      8 C                    -0.046479
      9 O                    -0.175617
     10 C                     0.218006
     11 C                    -0.085540
     12 C                    -0.078702
     13 C                     0.215119
     14 O                    -0.214213
     15 O                    -0.165160
     16 O                    -0.172841
     17 O                    -0.186328
     18 C                    -0.128302
     19 C                     0.022663
     20 C                    -0.142647
     21 C                    -0.145533
     22 C                     0.026046
     23 O                    -0.181860
     24 H                     0.080607
     25 H                     0.086647
     26 H                     0.082051
     27 H                     0.079053
     28 H                     0.067867
     29 H                     0.079494
     30 H                     0.074756
     31 H                     0.085420
     32 O                    -0.182659
     33 C                    -0.126689
     34 C                     0.026776
     35 C                    -0.144831
     36 C                    -0.143628
     37 C                     0.024779
     38 O                    -0.182448
     39 H                     0.081727
     40 H                     0.073956
     41 H                     0.087007
     42 H                     0.091331
     43 H                     0.079748
     44 H                     0.073158
     45 H                     0.080723
     46 H                     0.070622
     47 H                     0.085544
     48 H                     0.094265
     49 H                     0.089654
     50 H                     0.086764
     51 H                     0.085369
     52 H                     0.093668
     53 H                     0.093841
     54 H                     0.080028
     55 H                     0.087848
     56 H                     0.087872
  ----------------------------------------
  Sum of atomic charges =    -0.000000

                    Cartesian Multipole Moments
 -----------------------------------------------------------------
    Charge (ESU x 10^10)
                -0.0000
    Dipole Moment (Debye)
         X      -2.7322      Y       2.5008      Z       2.9054
       Tot       4.7075
    Quadrupole Moments (Debye-Ang)
        XX    -169.5934     XY     -16.6442     YY    -153.2808
        XZ       8.6607     YZ       2.1407     ZZ    -164.4331

 Total job time:  69.41s(wall), 3304.24s(cpu)
        *  Thank you very much for using Q-Chem.  Have a nice day.  *
