 Q-Chem 5.0, Q-Chem, Inc., Pleasanton, CA (2017)
 Q-Chem 5.0.1 for Intel X86 EM64T Linux

User input:
--------------------------------------------------------------
$molecule
0  1
O -4.2554409632 -1.0810000368 2.6122736176
C -4.6860843805 -0.8197982663 1.4670663779
C -4.5674003963 0.5683900952 0.7298196675
C -3.1941067791 0.7584082236 -0.0410751762
C -2.2398346499 -0.4902382316 0.0664021082
O -0.8387839571 -0.3000381268 -0.2183849934
C -0.2142894361 0.8666408306 0.4385183669
C 0.4358636318 1.8314501118 -0.6254528083
O 1.6004361577 1.4592005404 -1.4584104122
C 2.615173212 0.5214788037 -1.0695261945
C 2.9853234134 0.2839893466 0.4412594389
C 4.128273978 -0.7898240605 0.6487402423
C 5.0303260462 -1.0345176619 -0.6195427448
O 5.8191792932 -0.2323036973 -1.16178166
O -5.4575903289 -1.7204102781 0.6689011951
O 4.8312893304 -2.3907945249 -1.0426851846
O 3.2134183267 -0.0349927177 -2.0193802174
C 5.6083069213 -2.6478279571 -2.2760115021
C 3.5621517185 1.5354783667 1.2389113526
C 3.2342874657 1.2986851586 2.765520752
C 4.2099462145 0.1053251116 3.0891198479
C 5.0086212998 -0.0261361748 1.7301213443
O 5.0288723405 1.3553323609 1.1891980537
H 2.0897343942 -0.0963563925 0.9532992554
H 3.7262959844 -1.7538455172 1.0044738888
H 3.2760133878 2.5250823381 0.8323037452
H 3.4884691911 2.1957249534 3.3528134801
H 2.175900047 1.0488783314 2.9430583371
H 4.891777712 0.3519874692 3.9181428554
H 3.6726865218 -0.8235897194 3.3400085486
H 6.0415404471 -0.4118351006 1.8294437756
O -2.6503166741 -1.6639092746 0.2050708827
C -5.5014703676 -3.0508184189 1.315700366
C -5.5974728857 0.7266182523 -0.4664920171
C -5.644487142 2.2478113727 -0.8962212376
C -4.2928257104 2.3857460975 -1.6910199731
C -3.7083869871 0.9269560862 -1.5428356449
O -4.9060819255 0.0647097034 -1.5988484189
H -4.6925526291 1.3611327317 1.4889115313
H -2.6898805626 1.6789705149 0.2910251203
H -5.9065825407 -2.9928630987 2.3467490251
H -6.5814468222 0.253199913 -0.2874746019
H -6.5149519137 2.4386156243 -1.5436437502
H -5.6963007858 2.922057039 -0.0265746706
H -4.4698167279 2.6195259714 -2.7529612095
H -3.6222113326 3.1505392081 -1.2675630685
H -2.9737932109 0.6286602969 -2.31649728
H -4.4907892381 -3.506235428 1.3550286582
H -6.1644054573 -3.6741618346 0.6879004038
H 5.4066426422 -3.6991731776 -2.5523758655
H 6.6968046005 -2.5093983962 -2.1120573152
H 5.287721867 -1.9777879981 -3.0997713581
H -0.3491168785 2.0839146625 -1.3703316403
H 0.6859822977 2.7706123644 -0.0763689638
H 0.5227406093 0.4947942856 1.1750288698
H -0.944808509 1.4825244898 1.0015792235
$end

$rem
JOBTYPE                   OPT
METHOD                    B3LYP
DFT_D                     d3_op
BASIS                     STO-3G
GEOM_OPT_MAX_CYCLES       100
GEOM_OPT_TOL_GRADIENT     300
GEOM_OPT_TOL_DISPLACEMENT 1200
GEOM_OPT_TOL_ENERGY       100
SYMMETRY                  False
THRESH                    12
SCF_CONVERGENCE           8
MAX_SUB_FILE_NUM          128
MEM_STATIC                400
MEM_TOTAL                 4000
$end
--------------------------------------------------------------

   15   -1510.2372467175      9.72E-09 Convergence criterion met
 Total energy in the final basis set = -1510.23724672
   14   -1510.2405218839      1.85E-09 Convergence criterion met
 Total energy in the final basis set = -1510.24052188
   14   -1510.2441768889      1.88E-09 Convergence criterion met
 Total energy in the final basis set = -1510.24417689
   14   -1510.2475159513      4.34E-09 Convergence criterion met
 Total energy in the final basis set = -1510.24751595
   14   -1510.2507070851      4.11E-09 Convergence criterion met
 Total energy in the final basis set = -1510.25070709
   14   -1510.2531555671      4.14E-09 Convergence criterion met
 Total energy in the final basis set = -1510.25315557
   13   -1510.2550267490      7.05E-09 Convergence criterion met
 Total energy in the final basis set = -1510.25502675
   13   -1510.2563559285      4.77E-09 Convergence criterion met
   12   -1510.2804194000      5.82E-09 Convergence criterion met
 Total energy in the final basis set = -1510.28041940
   12   -1510.2804660458      3.24E-09 Convergence criterion met
 Total energy in the final basis set = -1510.28046605
   12   -1510.2804854252      2.47E-09 Convergence criterion met
 Total energy in the final basis set = -1510.28048543
   11   -1510.2804904205      4.87E-09 Convergence criterion met
 Total energy in the final basis set = -1510.28049042
   11   -1510.2804969170      3.86E-09 Convergence criterion met
 Total energy in the final basis set = -1510.28049692
   10   -1510.2804992218      9.34E-09 Convergence criterion met
 Total energy in the final basis set = -1510.28049922

             Standard Nuclear Orientation (Angstroms)
    I     Atom           X                Y                Z
 ----------------------------------------------------------------
    1      O       2.8157174499    -3.0610829564     1.4855537308
    2      C       2.7151514571    -1.8145128371     1.4650265455
    3      C       3.4020794335    -0.8530711634     0.4216810701
    4      C       2.4827096440    -0.4503795852    -0.8061623264
    5      C       1.0867647007    -1.1697501834    -0.8033387547
    6      O       0.3045313786    -1.2064278690    -2.0234058250
    7      C       0.6855101283    -0.2680561963    -3.0996162340
    8      C      -0.2596376127     0.9980918366    -3.1370567722
    9      O      -0.2373881860     1.7876086291    -1.8870305306
   10      C      -1.3218431198     1.5066292285    -0.9540731175
   11      C      -2.0937728179     0.1406357127    -1.0808340917
   12      C      -2.5904144190    -0.3968371799     0.3261789085
   13      C      -2.0472309527     0.4309420504     1.5469309525
   14      O      -2.7027391379     1.0331574619     2.4229163679
   15      O       2.0541434105    -1.0353071699     2.4653097947
   16      O      -0.6250561105     0.3320728321     1.4953219051
   17      O      -1.5354841995     2.3819704089    -0.0902707154
   18      C       0.0149694940     1.2595120276     2.4550009927
   19      C      -3.4910608260     0.3472997081    -1.8122737139
   20      C      -4.0989300268    -1.0754521487    -2.1410222345
   21      C      -4.6344781939    -1.5148763697    -0.7271943241
   22      C      -4.1612277775    -0.3008991465     0.1630172100
   23      O      -4.3557807119     0.8670261269    -0.7307496334
   24      H      -1.4322208144    -0.6029093579    -1.5680947452
   25      H      -2.2587718528    -1.4438178496     0.4527556052
   26      H      -3.4748381475     1.0568025137    -2.6629981505
   27      H      -4.9146725168    -0.9877775594    -2.8761875038
   28      H      -3.3362704904    -1.7651628141    -2.5370778747
   29      H      -5.7333462014    -1.5944261153    -0.7208528777
   30      H      -4.2071272232    -2.4723606682    -0.3888732803
   31      H      -4.7070770566    -0.1512128875     1.1148822198
   32      O       0.5984843630    -1.7872598891     0.1680088006
   33      C       1.3084406452    -1.9291313124     3.3781681949
   34      C       3.7404883911     0.5779158459     1.0119290185
   35      C       4.7216998829     1.3193558817     0.0179276130
   36      C       3.7326316609     1.7579043708    -1.1264648370
   37      C       2.3768798757     1.1337003047    -0.6138797518
   38      O       2.4709286174     1.3210611509     0.8495728382
   39      H       4.3087856956    -1.3682276379     0.0576578420
   40      H       3.0062120084    -0.6942660165    -1.7464422407
   41      H       1.9598820690    -2.7234448593     3.7958433669
   42      H       4.0525548213     0.5743265079     2.0737557215
   43      H       5.1843842679     2.1902152571     0.5087889974
   44      H       5.5207906551     0.6530263729    -0.3447311582
   45      H       3.6469798797     2.8547175643    -1.1859651900
   46      H       4.0274100303     1.3729542355    -2.1160065243
   47      H       1.4365541378     1.5796161615    -1.0203115879
   48      H       0.4571070551    -2.4054703475     2.8502139665
   49      H       0.9264471613    -1.2886543743     4.1935969471
   50      H       1.0684309680     1.3206570510     2.1017180409
   51      H      -0.0374036900     0.8691300647     3.4910757299
   52      H      -0.4684512494     2.2560975264     2.4233125380
   53      H       0.1252405141     1.6763107880    -3.9288060820
   54      H      -1.2853902393     0.6912274697    -3.4188040016
   55      H       0.5506913749    -0.8205821569    -4.0543834333
   56      H       1.7390205598     0.0590037458    -3.0372752484
 ----------------------------------------------------------------

    9   -1510.2804995473      5.78E-09 Convergence criterion met
 Total energy in the final basis set = -1510.28049955
 Final energy is   -1510.28049954731
 **  OPTIMIZATION CONVERGED  **

                    Orbital Energies (a.u.)
 --------------------------------------------------------------

 Alpha MOs
 -- Occupied --
-18.954 -18.942 -18.923 -18.905 -18.902 -18.901 -18.890 -18.883
-18.858 -18.853 -10.119 -10.106 -10.097 -10.093 -10.092 -10.079
-10.066 -10.060 -10.059 -10.052 -10.051 -10.049 -10.039 -10.026
-10.026 -10.025 -10.023 -10.022 -10.019 -10.015  -1.027  -1.013
 -0.999  -0.987  -0.979  -0.966  -0.958  -0.944  -0.924  -0.913
 -0.770  -0.756  -0.732  -0.726  -0.717  -0.711  -0.700  -0.652
 -0.635  -0.619  -0.605  -0.593  -0.552  -0.545  -0.543  -0.533
 -0.524  -0.509  -0.494  -0.481  -0.469  -0.455  -0.452  -0.448
 -0.441  -0.433  -0.427  -0.419  -0.413  -0.408  -0.401  -0.398
 -0.395  -0.388  -0.385  -0.369  -0.356  -0.353  -0.352  -0.344
 -0.339  -0.338  -0.335  -0.328  -0.327  -0.323  -0.320  -0.316
 -0.315  -0.308  -0.304  -0.298  -0.295  -0.289  -0.281  -0.276
 -0.267  -0.260  -0.251  -0.245  -0.238  -0.231  -0.223  -0.199
 -0.175  -0.167  -0.164  -0.156  -0.155  -0.151  -0.141  -0.140
 -0.132

          Ground-State Mulliken Net Atomic Charges

     Atom                 Charge (a.u.)
  ----------------------------------------
      1 O                    -0.221537
      2 C                     0.214659
      3 C                    -0.079606
      4 C                    -0.085832
      5 C                     0.218003
      6 O                    -0.174055
      7 C                    -0.052838
      8 C                    -0.051625
      9 O                    -0.177908
     10 C                     0.214568
     11 C                    -0.098024
     12 C                    -0.080153
     13 C                     0.213278
     14 O                    -0.215746
     15 O                    -0.167921
     16 O                    -0.179971
     17 O                    -0.185747
     18 C                    -0.143537
     19 C                     0.021410
     20 C                    -0.144525
     21 C                    -0.143009
     22 C                     0.023791
     23 O                    -0.187658
     24 H                     0.100853
     25 H                     0.088156
     26 H                     0.074558
     27 H                     0.076168
     28 H                     0.073003
     29 H                     0.077080
     30 H                     0.074727
     31 H                     0.090875
     32 O                    -0.180703
     33 C                    -0.126204
     34 C                     0.028623
     35 C                    -0.144514
     36 C                    -0.144254
     37 C                     0.011462
     38 O                    -0.183577
     39 H                     0.083214
     40 H                     0.079096
     41 H                     0.087514
     42 H                     0.089721
     43 H                     0.079674
     44 H                     0.073500
     45 H                     0.080887
     46 H                     0.068192
     47 H                     0.105741
     48 H                     0.094214
     49 H                     0.087569
     50 H                     0.115971
     51 H                     0.071786
     52 H                     0.085249
     53 H                     0.092620
     54 H                     0.090205
     55 H                     0.092569
     56 H                     0.090007
  ----------------------------------------
  Sum of atomic charges =    -0.000000

                    Cartesian Multipole Moments
 -----------------------------------------------------------------
    Charge (ESU x 10^10)
                -0.0000
    Dipole Moment (Debye)
         X       3.1715      Y      -1.1667      Z      -4.9314
       Tot       5.9782
    Quadrupole Moments (Debye-Ang)
        XX    -156.1784     XY      13.8920     YY    -174.5078
        XZ       2.2976     YZ      -3.2591     ZZ    -144.5604

 Total job time:  216.90s(wall), 10341.62s(cpu)
        *  Thank you very much for using Q-Chem.  Have a nice day.  *
