 Q-Chem 5.0, Q-Chem, Inc., Pleasanton, CA (2017)
 Q-Chem 5.0.1 for Intel X86 EM64T Linux

User input:
--------------------------------------------------------------
$molecule
0  1
O -5.4319947195 -1.5026879165 1.3303513293
C -4.7337783715 -0.8743529966 0.5061787106
C -4.5269785242 0.6782319568 0.4329030336
C -3.1199691193 1.1726376314 0.9779932473
C -2.144871962 -0.0277918247 1.3175639466
O -0.7592050074 0.2394285821 0.9730996039
C -0.4475406357 -0.5160811042 -0.2678011309
C 1.107344912 -0.628796479 -0.3616410362
O 1.539735127 -1.4835262761 0.7698563272
C 2.7550102354 -1.1454144506 1.4393657174
C 3.8046792227 -0.0474243446 0.9393796618
C 4.2951317176 -0.0049888237 -0.5669256104
C 3.8821314382 -1.192421738 -1.5027306534
O 3.8787196643 -1.1882913242 -2.7538594096
O -3.9846878013 -1.4868239614 -0.5525553484
O 3.6792639797 -2.3532570111 -0.694099024
O 3.0000368895 -1.7857752105 2.4888947614
C 3.3005153445 -3.5203230966 -1.523230762
C 3.268579157 1.4444299705 1.0938422111
C 4.49044467 2.4439864216 1.0730405239
C 4.8395484812 2.4878850863 -0.463788415
C 3.8170151029 1.4348606572 -1.0343221447
O 2.6093320799 1.7107903286 -0.2134827376
H 4.6671366456 -0.2061395165 1.6098339258
H 5.402157524 -0.0199703225 -0.567443206
H 2.5475760376 1.5936950249 1.9209603153
H 4.1859841338 3.4345510254 1.4467093287
H 5.3281836156 2.0764510392 1.6869584989
H 4.6412147884 3.4837119702 -0.8914101213
H 5.8852489729 2.2121840775 -0.673227031
H 3.5830306192 1.5165005945 -2.1139432411
O -2.5089314858 -1.0983592774 1.8483017729
C -4.0711412713 -2.959753819 -0.4407972381
C -4.4782276898 1.2508771757 -1.0523922542
C -4.8016629273 2.794532572 -0.9812361334
C -3.470358707 3.3497714792 -0.3517168406
C -2.6054613784 2.0324428264 -0.2441720055
O -3.0402437551 1.2240161103 -1.4090469327
H -5.3466389407 1.1421265294 1.009226371
H -3.2425213337 1.787990909 1.8893152549
H -5.1208754207 -3.3148950226 -0.4869522751
H -5.0701596087 0.6741914123 -1.7890015669
H -4.9675847073 3.1992714577 -1.9924961753
H -5.6890152573 3.0078402738 -0.3640338234
H -2.9812747282 4.0801194835 -1.0155711676
H -3.6295821356 3.8184339081 0.6325935762
H -1.5084753025 2.1790731946 -0.2510989016
H -3.6187363644 -3.316255125 0.507542611
H -3.5039538616 -3.3659866723 -1.2984298833
H 2.2736960825 -3.8337697366 -1.2490128769
H 4.0055276059 -4.346949596 -1.3102496142
H 3.3447194692 -3.2448768841 -2.5964709305
H 1.3484193626 -1.1416661949 -1.3187721681
H 1.5953065879 0.3845304099 -0.3482536175
H -0.8544589058 0.0092493266 -1.1632706286
H -0.8933598312 -1.5353463551 -0.2335229483
$end

$rem
JOBTYPE                   OPT
METHOD                    B3LYP
DFT_D                     d3_op
BASIS                     STO-3G
GEOM_OPT_MAX_CYCLES       100
GEOM_OPT_TOL_GRADIENT     300
GEOM_OPT_TOL_DISPLACEMENT 1200
GEOM_OPT_TOL_ENERGY       100
SYMMETRY                  False
THRESH                    12
SCF_CONVERGENCE           8
MAX_SUB_FILE_NUM          128
MEM_STATIC                400
MEM_TOTAL                 4000
$end
--------------------------------------------------------------

   16   -1510.2551602921      6.65E-09 Convergence criterion met
 Total energy in the final basis set = -1510.25516029
   14   -1510.2581967210      5.79E-09 Convergence criterion met
 Total energy in the final basis set = -1510.25819672
   14   -1510.2607148164      4.93E-09 Convergence criterion met
 Total energy in the final basis set = -1510.26071482
   14   -1510.2641939724      4.79E-09 Convergence criterion met
 Total energy in the final basis set = -1510.26419397
   14   -1510.2681258506      9.42E-09 Convergence criterion met
 Total energy in the final basis set = -1510.26812585
   14   -1510.2713174751      5.75E-09 Convergence criterion met
 Total energy in the final basis set = -1510.27131748
   14   -1510.2743067144      4.60E-09 Convergence criterion met
 Total energy in the final basis set = -1510.27430671
   13   -1510.2770658742      6.72E-09 Convergence criterion met
   12   -1510.2859047892      5.84E-09 Convergence criterion met
 Total energy in the final basis set = -1510.28590479
   11   -1510.2859199571      8.28E-09 Convergence criterion met
 Total energy in the final basis set = -1510.28591996
   10   -1510.2859174562      8.12E-09 Convergence criterion met
 Total energy in the final basis set = -1510.28591746
   10   -1510.2859249598      6.32E-09 Convergence criterion met
 Total energy in the final basis set = -1510.28592496
   10   -1510.2859268206      9.01E-09 Convergence criterion met
 Total energy in the final basis set = -1510.28592682
   11   -1510.2859314227      7.90E-09 Convergence criterion met
 Total energy in the final basis set = -1510.28593142

             Standard Nuclear Orientation (Angstroms)
    I     Atom           X                Y                Z
 ----------------------------------------------------------------
    1      O      -4.9539013692    -1.6053036668     1.3112661973
    2      C      -4.6351697374    -0.7024626983     0.5072991505
    3      C      -3.8533813696     0.6201337639     0.8535369688
    4      C      -2.3032579175     0.5602987017     0.5343779895
    5      C      -1.8353819839    -0.8029296191    -0.0766195406
    6      O      -0.4208568069    -0.7346987229    -0.2627787051
    7      C       0.1023785399    -1.9563993108    -0.9264169469
    8      C       1.6673602735    -1.8522290121    -0.9417279651
    9      O       2.2119432812    -2.0757917254     0.4172892302
   10      C       2.2124227020    -0.9185394287     1.2748058121
   11      C       2.6512492948     0.5077343128     0.7274397259
   12      C       4.0419818349     0.5308501825    -0.0450612767
   13      C       4.6125098063    -0.9043077942    -0.3307257512
   14      O       4.7346890285    -1.4711320200    -1.4374219277
   15      O      -5.0342602645    -0.6638202212    -0.8682314511
   16      O       4.9858868672    -1.4752342625     0.9261463014
   17      O       2.0158247604    -1.1078237324     2.4965554578
   18      C       5.3645127586    -2.8954445857     0.7447305582
   19      C       1.7011580070     1.2131609608    -0.3317975503
   20      C       1.9942963815     2.7576624316    -0.3160731201
   21      C       3.3971366458     2.8108209609    -1.0363445661
   22      C       3.6386102869     1.2881477264    -1.3712588625
   23      O       2.2638360386     0.7936973638    -1.6430281533
   24      H       2.7181554967     1.1295973927     1.6374324366
   25      H       4.7946511405     1.0934332617     0.5360563788
   26      H       0.6469507808     0.8719396081    -0.2646061721
   27      H       1.2267390268     3.3012804088    -0.8901244801
   28      H       2.0251026261     3.1651157767     0.7069314613
   29      H       3.3521051794     3.4071680687    -1.9614622278
   30      H       4.1901316279     3.2205173924    -0.3904590624
   31      H       4.2974820697     1.0800644109    -2.2366838805
   32      O      -2.5328895820    -1.7973811499    -0.3723744216
   33      C      -5.7038921534    -1.9321330971    -1.2295322240
   34      C      -4.2912541099     1.8503523355    -0.0502459016
   35      C      -3.7673454327     3.1818725039     0.6229134792
   36      C      -2.2316453064     3.1127366785     0.2856283680
   37      C      -2.1611844563     1.7524415924    -0.5134154105
   38      O      -3.4391199444     1.7145388227    -1.2547733176
   39      H      -4.0158736316     0.8231716633     1.9268647417
   40      H      -1.6966441261     0.7564078531     1.4374008077
   41      H      -6.5775479661    -2.1376226448    -0.5774949438
   42      H      -5.3611280087     1.8532409419    -0.3333261925
   43      H      -4.2432761558     4.0600473670     0.1581174037
   44      H      -3.9652753285     3.2053395134     1.7063529671
   45      H      -1.9188198823     3.9521471660    -0.3555594089
   46      H      -1.5956442365     3.0983310243     1.1850766665
   47      H      -1.3050683924     1.6522453199    -1.2081847651
   48      H      -5.0008826009    -2.7874423632    -1.1596894922
   49      H      -6.0402157250    -1.8137100169    -2.2760261706
   50      H       4.4875118797    -3.4942679834     0.4232945357
   51      H       5.7124194212    -3.2486357639     1.7326155845
   52      H       6.1744151367    -3.0119310804    -0.0037242857
   53      H       2.0647676088    -2.6845530350    -1.5574885658
   54      H       1.9879627806    -0.8670035427    -1.3839349626
   55      H      -0.2817817146    -2.0185987969    -1.9687919007
   56      H      -0.2313381662    -2.8628106841    -0.3760901973
 ----------------------------------------------------------------

   11   -1510.2859323552      8.92E-09 Convergence criterion met
 Total energy in the final basis set = -1510.28593236
 Final energy is   -1510.28593235524
 **  OPTIMIZATION CONVERGED  **

                    Orbital Energies (a.u.)
 --------------------------------------------------------------

 Alpha MOs
 -- Occupied --
-18.945 -18.936 -18.920 -18.918 -18.915 -18.891 -18.891 -18.878
-18.874 -18.858 -10.111 -10.103 -10.097 -10.089 -10.073 -10.073
-10.065 -10.062 -10.062 -10.060 -10.052 -10.051 -10.045 -10.043
-10.039 -10.034 -10.032 -10.031 -10.024 -10.022  -1.024  -1.015
 -0.999  -0.996  -0.989  -0.973  -0.949  -0.939  -0.930  -0.922
 -0.772  -0.765  -0.731  -0.727  -0.715  -0.713  -0.699  -0.663
 -0.651  -0.612  -0.603  -0.580  -0.558  -0.551  -0.545  -0.539
 -0.521  -0.515  -0.488  -0.479  -0.468  -0.463  -0.447  -0.445
 -0.442  -0.436  -0.426  -0.414  -0.411  -0.408  -0.404  -0.402
 -0.395  -0.388  -0.374  -0.372  -0.366  -0.360  -0.356  -0.351
 -0.346  -0.339  -0.337  -0.334  -0.332  -0.328  -0.324  -0.321
 -0.316  -0.311  -0.309  -0.303  -0.301  -0.288  -0.281  -0.279
 -0.275  -0.259  -0.256  -0.255  -0.242  -0.236  -0.230  -0.190
 -0.178  -0.176  -0.163  -0.162  -0.158  -0.154  -0.147  -0.144
 -0.138

          Ground-State Mulliken Net Atomic Charges

     Atom                 Charge (a.u.)
  ----------------------------------------
      1 O                    -0.219244
      2 C                     0.213405
      3 C                    -0.081261
      4 C                    -0.079822
      5 C                     0.217730
      6 O                    -0.180999
      7 C                    -0.050333
      8 C                    -0.074454
      9 O                    -0.184110
     10 C                     0.209533
     11 C                    -0.086156
     12 C                    -0.082675
     13 C                     0.209074
     14 O                    -0.214216
     15 O                    -0.169544
     16 O                    -0.169493
     17 O                    -0.198217
     18 C                    -0.128096
     19 C                     0.009983
     20 C                    -0.143539
     21 C                    -0.142809
     22 C                     0.025242
     23 O                    -0.187306
     24 H                     0.087463
     25 H                     0.088445
     26 H                     0.105126
     27 H                     0.079186
     28 H                     0.076721
     29 H                     0.080714
     30 H                     0.076627
     31 H                     0.092596
     32 O                    -0.201712
     33 C                    -0.127423
     34 C                     0.026900
     35 C                    -0.144388
     36 C                    -0.143971
     37 C                     0.023920
     38 O                    -0.186054
     39 H                     0.083957
     40 H                     0.087231
     41 H                     0.086320
     42 H                     0.087767
     43 H                     0.078083
     44 H                     0.074375
     45 H                     0.077125
     46 H                     0.073078
     47 H                     0.083074
     48 H                     0.092394
     49 H                     0.087185
     50 H                     0.094872
     51 H                     0.092315
     52 H                     0.088988
     53 H                     0.085390
     54 H                     0.118392
     55 H                     0.088316
     56 H                     0.094296
  ----------------------------------------
  Sum of atomic charges =    -0.000000

                    Cartesian Multipole Moments
 -----------------------------------------------------------------
    Charge (ESU x 10^10)
                 0.0000
    Dipole Moment (Debye)
         X       1.7097      Y       3.2733      Z      -0.7585
       Tot       3.7700
    Quadrupole Moments (Debye-Ang)
        XX    -155.1348     XY      -1.3177     YY    -153.0339
        XZ       0.7634     YZ       7.8540     ZZ    -169.7686

 Total job time:  119.53s(wall), 5692.15s(cpu)
        *  Thank you very much for using Q-Chem.  Have a nice day.  *
