 Q-Chem 5.0, Q-Chem, Inc., Pleasanton, CA (2017)
 Q-Chem 5.0.1 for Intel X86 EM64T Linux

User input:
--------------------------------------------------------------
$molecule
0  1
O -3.94934 -3.66094 2.70899
C -3.26408 -4.56952 2.26188
C -3.36658 -6.02376 2.66595
C -4.06137 -6.97914 1.68189
C -4.41791 -6.40938 0.32677
O -4.21685 -7.35239 -0.64056
C -3.03115 -7.12587 -1.41002
C -3.10319 -7.89472 -2.72524
O -4.151 -7.35893 -3.5486
C -4.85794 -8.27169 -4.2601
C -4.24924 -9.65301 -4.2143
C -2.73712 -9.7031 -4.4775
C -2.00714 -8.37781 -4.3913
O -0.80159 -8.24107 -4.24126
O -2.42923 -4.30267 1.22221
O -2.50894 -7.4655 -5.29352
O -5.75574 -7.94166 -5.01981
C -1.98547 -6.21825 -5.59076
C -4.37162 -10.75297 -3.10254
C -4.34141 -12.13993 -3.75796
C -2.87636 -12.21744 -4.18794
C -2.3321 -10.91014 -3.58371
O -3.12461 -10.79656 -2.43419
H -4.77677 -10.12021 -5.07799
H -2.53658 -9.99359 -5.5343
H -5.2734 -10.62709 -2.46629
H -4.51127 -12.88559 -2.94807
H -5.08473 -12.31728 -4.56468
H -2.41474 -13.09954 -3.69111
H -2.70655 -12.27782 -5.28454
H -1.23362 -10.96328 -3.42784
O -5.19261 -5.4782 0.17058
C -2.25144 -3.05374 0.66596
C -2.01229 -6.71488 2.88043
C -2.17446 -7.87208 3.86174
C -2.95581 -8.85167 3.01163
C -2.98777 -8.10201 1.67189
O -1.77693 -7.3823 1.66655
H -3.93332 -6.01007 3.62541
H -5.02129 -7.35905 2.09768
H -1.86315 -2.34666 1.42985
H -1.21498 -6.02001 3.22395
H -1.15869 -8.29037 4.04503
H -2.64333 -7.60865 4.83422
H -2.35889 -9.78673 2.92215
H -3.97812 -9.08965 3.37708
H -3.12615 -8.84844 0.86153
H -3.21331 -2.67652 0.2576
H -1.51634 -3.12621 -0.16159
H -2.75923 -5.44746 -5.39512
H -1.70928 -6.18349 -6.66442
H -1.09254 -5.97171 -4.97754
H -2.16758 -7.21319 -2.70273
H -3.33857 -8.7512 -2.13703
H -2.15956 -7.42616 -0.75522
H -2.97848 -5.97991 -1.53189
$end

$opt
CONSTRAINT
tors           1           2           3           4    +104.211
tors           3           4           5           6    +142.105
tors           4           5           6           7    -104.211
tors           5           6           7           8    -161.053
tors           6           7           8           9     +66.316
tors           7           8           9          10    -142.105
tors           8           9          10          11      -9.474
tors           9          10          11          12     -47.368
tors          11          12          13          14    +161.053
ENDCONSTRAINT
$end

$rem
JOBTYPE                   OPT
METHOD                    B3LYP
DFT_D                     d3_op
BASIS                     STO-3G
GEOM_OPT_MAX_CYCLES       100
GEOM_OPT_TOL_GRADIENT     300
GEOM_OPT_TOL_DISPLACEMENT 1200
GEOM_OPT_TOL_ENERGY       100
SYMMETRY                  False
THRESH                    12
SCF_CONVERGENCE           8
MAX_SUB_FILE_NUM          128
MEM_STATIC                400
MEM_TOTAL                 4000
$end
--------------------------------------------------------------

   16   -1509.9301683203      3.06E-09 Convergence criterion met
 Total energy in the final basis set = -1509.93016832
   14   -1510.0343712292      7.19E-09 Convergence criterion met
 Total energy in the final basis set = -1510.03437123
   14   -1510.1096211905      5.58E-09 Convergence criterion met
 Total energy in the final basis set = -1510.10962119
   14   -1510.1649227961      6.15E-09 Convergence criterion met
 Total energy in the final basis set = -1510.16492280
    2   -1510.1649227960      2.29E-09 Convergence criterion met
 Total energy in the final basis set = -1510.16492280
   14   -1510.2027923788      6.15E-09 Convergence criterion met
 Total energy in the final basis set = -1510.20279238
   13   -1510.2261302357      8.45E-09 Convergence criterion met
 Total energy in the final basis set = -1510.22613024
   13   -1510.2386071070      8.82E-09 Convergence criterion met
   11   -1510.2551612453      8.96E-09 Convergence criterion met
 Total energy in the final basis set = -1510.25516125
   11   -1510.2552058916      6.50E-09 Convergence criterion met
 Total energy in the final basis set = -1510.25520589
   11   -1510.2552346208      8.49E-09 Convergence criterion met
 Total energy in the final basis set = -1510.25523462
   11   -1510.2552497915      5.62E-09 Convergence criterion met
 Total energy in the final basis set = -1510.25524979
   11   -1510.2552511529      2.83E-09 Convergence criterion met
 Total energy in the final basis set = -1510.25525115
    9   -1510.2552531803      8.89E-09 Convergence criterion met
 Total energy in the final basis set = -1510.25525318

             Standard Nuclear Orientation (Angstroms)
    I     Atom           X                Y                Z
 ----------------------------------------------------------------
    1      O      -5.4319947195    -1.5026879165     1.3303513293
    2      C      -4.7337783715    -0.8743529966     0.5061787106
    3      C      -4.5269785242     0.6782319568     0.4329030336
    4      C      -3.1199691193     1.1726376314     0.9779932473
    5      C      -2.1448719620    -0.0277918247     1.3175639466
    6      O      -0.7592050074     0.2394285821     0.9730996039
    7      C      -0.4475406357    -0.5160811042    -0.2678011309
    8      C       1.1073449120    -0.6287964790    -0.3616410362
    9      O       1.5397351270    -1.4835262761     0.7698563272
   10      C       2.7550102354    -1.1454144506     1.4393657174
   11      C       3.8046792227    -0.0474243446     0.9393796618
   12      C       4.2951317176    -0.0049888237    -0.5669256104
   13      C       3.8821314382    -1.1924217380    -1.5027306534
   14      O       3.8787196643    -1.1882913242    -2.7538594096
   15      O      -3.9846878013    -1.4868239614    -0.5525553484
   16      O       3.6792639797    -2.3532570111    -0.6940990240
   17      O       3.0000368895    -1.7857752105     2.4888947614
   18      C       3.3005153445    -3.5203230966    -1.5232307620
   19      C       3.2685791570     1.4444299705     1.0938422111
   20      C       4.4904446700     2.4439864216     1.0730405239
   21      C       4.8395484812     2.4878850863    -0.4637884150
   22      C       3.8170151029     1.4348606572    -1.0343221447
   23      O       2.6093320799     1.7107903286    -0.2134827376
   24      H       4.6671366456    -0.2061395165     1.6098339258
   25      H       5.4021575240    -0.0199703225    -0.5674432060
   26      H       2.5475760376     1.5936950249     1.9209603153
   27      H       4.1859841338     3.4345510254     1.4467093287
   28      H       5.3281836156     2.0764510392     1.6869584989
   29      H       4.6412147884     3.4837119702    -0.8914101213
   30      H       5.8852489729     2.2121840775    -0.6732270310
   31      H       3.5830306192     1.5165005945    -2.1139432411
   32      O      -2.5089314858    -1.0983592774     1.8483017729
   33      C      -4.0711412713    -2.9597538190    -0.4407972381
   34      C      -4.4782276898     1.2508771757    -1.0523922542
   35      C      -4.8016629273     2.7945325720    -0.9812361334
   36      C      -3.4703587070     3.3497714792    -0.3517168406
   37      C      -2.6054613784     2.0324428264    -0.2441720055
   38      O      -3.0402437551     1.2240161103    -1.4090469327
   39      H      -5.3466389407     1.1421265294     1.0092263710
   40      H      -3.2425213337     1.7879909090     1.8893152549
   41      H      -5.1208754207    -3.3148950226    -0.4869522751
   42      H      -5.0701596087     0.6741914123    -1.7890015669
   43      H      -4.9675847073     3.1992714577    -1.9924961753
   44      H      -5.6890152573     3.0078402738    -0.3640338234
   45      H      -2.9812747282     4.0801194835    -1.0155711676
   46      H      -3.6295821356     3.8184339081     0.6325935762
   47      H      -1.5084753025     2.1790731946    -0.2510989016
   48      H      -3.6187363644    -3.3162551250     0.5075426110
   49      H      -3.5039538616    -3.3659866723    -1.2984298833
   50      H       2.2736960825    -3.8337697366    -1.2490128769
   51      H       4.0055276059    -4.3469495960    -1.3102496142
   52      H       3.3447194692    -3.2448768841    -2.5964709305
   53      H       1.3484193626    -1.1416661949    -1.3187721681
   54      H       1.5953065879     0.3845304099    -0.3482536175
   55      H      -0.8544589058     0.0092493266    -1.1632706286
   56      H      -0.8933598312    -1.5353463551    -0.2335229483
 ----------------------------------------------------------------

    9   -1510.2552537239      7.57E-09 Convergence criterion met
 Total energy in the final basis set = -1510.25525372
 Final energy is   -1510.25525372389
 **  OPTIMIZATION CONVERGED  **

                    Orbital Energies (a.u.)
 --------------------------------------------------------------

 Alpha MOs
 -- Occupied --
-18.944 -18.924 -18.924 -18.916 -18.900 -18.895 -18.887 -18.885
-18.866 -18.853 -10.111 -10.105 -10.092 -10.090 -10.078 -10.075
-10.064 -10.060 -10.060 -10.058 -10.056 -10.050 -10.041 -10.041
-10.036 -10.035 -10.034 -10.033 -10.021 -10.020  -1.021  -1.008
 -0.999  -0.997  -0.988  -0.970  -0.946  -0.933  -0.928  -0.917
 -0.776  -0.762  -0.732  -0.722  -0.718  -0.707  -0.693  -0.667
 -0.654  -0.607  -0.599  -0.572  -0.559  -0.551  -0.545  -0.536
 -0.522  -0.512  -0.488  -0.478  -0.474  -0.465  -0.449  -0.442
 -0.437  -0.433  -0.421  -0.418  -0.417  -0.409  -0.406  -0.401
 -0.385  -0.383  -0.377  -0.371  -0.364  -0.360  -0.355  -0.349
 -0.346  -0.337  -0.336  -0.333  -0.330  -0.328  -0.326  -0.320
 -0.312  -0.309  -0.307  -0.306  -0.299  -0.288  -0.280  -0.278
 -0.275  -0.260  -0.253  -0.247  -0.239  -0.234  -0.227  -0.183
 -0.169  -0.168  -0.167  -0.159  -0.155  -0.150  -0.145  -0.141
 -0.133

          Ground-State Mulliken Net Atomic Charges

     Atom                 Charge (a.u.)
  ----------------------------------------
      1 O                    -0.211152
      2 C                     0.210225
      3 C                    -0.082094
      4 C                    -0.080189
      5 C                     0.225648
      6 O                    -0.198287
      7 C                    -0.047374
      8 C                    -0.075977
      9 O                    -0.171685
     10 C                     0.212918
     11 C                    -0.083374
     12 C                    -0.083416
     13 C                     0.209686
     14 O                    -0.215786
     15 O                    -0.174529
     16 O                    -0.165443
     17 O                    -0.211055
     18 C                    -0.134514
     19 C                     0.023629
     20 C                    -0.143316
     21 C                    -0.141297
     22 C                     0.024983
     23 O                    -0.182904
     24 H                     0.090934
     25 H                     0.089197
     26 H                     0.092402
     27 H                     0.081901
     28 H                     0.078870
     29 H                     0.081816
     30 H                     0.077881
     31 H                     0.094040
     32 O                    -0.181223
     33 C                    -0.129510
     34 C                     0.025982
     35 C                    -0.143395
     36 C                    -0.144558
     37 C                     0.020646
     38 O                    -0.192902
     39 H                     0.083902
     40 H                     0.085616
     41 H                     0.087679
     42 H                     0.085067
     43 H                     0.077369
     44 H                     0.074014
     45 H                     0.077514
     46 H                     0.073616
     47 H                     0.090242
     48 H                     0.093876
     49 H                     0.087313
     50 H                     0.092427
     51 H                     0.090324
     52 H                     0.100968
     53 H                     0.067892
     54 H                     0.115766
     55 H                     0.085614
     56 H                     0.084021
  ----------------------------------------
  Sum of atomic charges =     0.000000

                    Cartesian Multipole Moments
 -----------------------------------------------------------------
    Charge (ESU x 10^10)
                 0.0000
    Dipole Moment (Debye)
         X       1.8140      Y       3.3433      Z      -2.5389
       Tot       4.5732
    Quadrupole Moments (Debye-Ang)
        XX    -147.3738     XY      -0.6102     YY    -151.1528
        XZ       3.7684     YZ      13.1086     ZZ    -172.3274

 Total job time:  79.09s(wall), 3767.03s(cpu)
        *  Thank you very much for using Q-Chem.  Have a nice day.  *
