 Q-Chem 5.0, Q-Chem, Inc., Pleasanton, CA (2017)
 Q-Chem 5.0.1 for Intel X86 EM64T Linux

User input:
--------------------------------------------------------------
$molecule
0  1
O -3.94934 -3.66094 2.70899
C -3.26408 -4.56952 2.26188
C -3.36658 -6.02376 2.66595
C -3.63629 -7.04588 1.54953
C -3.59671 -6.52161 0.1312
O -4.56774 -7.12694 -0.61451
C -5.69657 -6.28205 -0.86182
C -6.86632 -6.69454 0.02569
O -7.99575 -5.84386 -0.2265
C -8.48574 -5.18918 0.85538
C -8.67155 -6.08948 2.05355
C -8.77783 -5.36029 3.40086
C -9.04047 -3.86959 3.32651
O -9.8898 -3.3334 2.62958
O -2.24861 -4.23625 1.42198
O -8.21008 -3.08505 4.06241
O -8.45637 -3.97305 0.8178
C -8.26897 -1.70764 4.0956
C -10.04381 -6.80589 2.01934
C -9.99843 -8.07778 2.86822
C -9.89198 -7.48178 4.25833
C -10.07899 -5.99391 3.93109
O -10.89593 -5.99242 2.78542
H -7.93834 -6.89646 2.20506
H -7.90523 -5.53532 4.07015
H -10.3924 -7.04423 0.99041
H -10.99576 -8.56282 2.76285
H -9.20956 -8.81595 2.60786
H -10.73191 -7.87513 4.87255
H -8.92329 -7.65375 4.77595
H -10.47952 -5.44666 4.81362
O -2.63711 -5.97682 -0.39224
C -1.97775 -2.95438 0.99037
C -2.03316 -6.54767 3.22576
C -2.27501 -7.78662 4.0885
C -2.57916 -8.81607 3.02094
C -2.41455 -7.96613 1.75753
O -1.38161 -7.0725 2.09645
H -4.1559 -6.07442 3.4499
H -4.56758 -7.62996 1.71809
H -1.74578 -2.29932 1.85719
H -1.47482 -5.77765 3.80255
H -1.31351 -8.05958 4.57903
H -3.06228 -7.65591 4.86195
H -1.78268 -9.59319 3.04636
H -3.57751 -9.29895 3.09362
H -2.22329 -8.62177 0.8789
H -2.84801 -2.54731 0.43248
H -1.0986 -2.97696 0.31438
H -7.47888 -1.32601 4.77428
H -9.25882 -1.37585 4.47565
H -8.09812 -1.29302 3.07902
H -7.13838 -7.75465 -0.1643
H -6.40686 -6.5629 1.02165
H -5.97799 -6.36385 -1.93283
H -5.47302 -5.2052 -0.66212
$end

$opt
CONSTRAINT
tors           1           2           3           4    +123.158
tors           3           4           5           6    -142.105
tors           4           5           6           7    +104.211
tors           5           6           7           8    -104.211
tors           6           7           8           9    -180.000
tors           7           8           9          10    -123.158
tors           8           9          10          11     -47.368
tors           9          10          11          12    +161.053
tors          11          12          13          14     +47.368
ENDCONSTRAINT
$end

$rem
JOBTYPE                   OPT
METHOD                    B3LYP
DFT_D                     d3_op
BASIS                     STO-3G
GEOM_OPT_MAX_CYCLES       100
GEOM_OPT_TOL_GRADIENT     300
GEOM_OPT_TOL_DISPLACEMENT 1200
GEOM_OPT_TOL_ENERGY       100
SYMMETRY                  False
THRESH                    12
SCF_CONVERGENCE           8
MAX_SUB_FILE_NUM          128
MEM_STATIC                400
MEM_TOTAL                 4000
$end
--------------------------------------------------------------

   15   -1510.0837125228      7.36E-09 Convergence criterion met
 Total energy in the final basis set = -1510.08371252
   14   -1510.1590795849      4.97E-09 Convergence criterion met
 Total energy in the final basis set = -1510.15907958
   14   -1510.1993896626      5.32E-09 Convergence criterion met
 Total energy in the final basis set = -1510.19938966
   14   -1510.2182135130      5.65E-09 Convergence criterion met
 Total energy in the final basis set = -1510.21821351
   14   -1510.2261093464      4.88E-09 Convergence criterion met
 Total energy in the final basis set = -1510.22610935
   13   -1510.2291272779      5.85E-09 Convergence criterion met
 Total energy in the final basis set = -1510.22912728
   13   -1510.2305465012      6.48E-09 Convergence criterion met
 Total energy in the final basis set = -1510.23054650
   13   -1510.2310109398      5.33E-09 Convergence criterion met
   12   -1510.2325148586      4.68E-09 Convergence criterion met
 Total energy in the final basis set = -1510.23251486
   12   -1510.2325596782      4.80E-09 Convergence criterion met
 Total energy in the final basis set = -1510.23255968
   11   -1510.2326118461      8.13E-09 Convergence criterion met
 Total energy in the final basis set = -1510.23261185
   11   -1510.2326837016      9.05E-09 Convergence criterion met
 Total energy in the final basis set = -1510.23268370
   10   -1510.2327044344      7.08E-09 Convergence criterion met
 Total energy in the final basis set = -1510.23270443
   11   -1510.2327118135      3.42E-09 Convergence criterion met
 Total energy in the final basis set = -1510.23271181

             Standard Nuclear Orientation (Angstroms)
    I     Atom           X                Y                Z
 ----------------------------------------------------------------
    1      O      -2.0180582427    -2.8407219919     0.0869209484
    2      C      -2.8170409290    -1.8795759270     0.1562584800
    3      C      -2.5269907654    -0.4865168552     0.8210259611
    4      C      -2.7078869585     0.7896319690    -0.1052395000
    5      C      -2.8423325684     0.5311788052    -1.6536331881
    6      O      -2.1395791350     1.5734873659    -2.4070693266
    7      C      -0.8669462886     1.0167642231    -2.9225651745
    8      C       0.3436834600     1.5540196489    -2.0601565384
    9      O       1.5865286491     0.9720707356    -2.6120975067
   10      C       2.3896466627     0.2159487521    -1.6671792937
   11      C       2.6469590111     0.9111132073    -0.2732579092
   12      C       3.1017361523     0.0140597225     0.9552896433
   13      C       3.3847800964    -1.5084891014     0.7041535850
   14      O       4.0553595816    -2.0593918985    -0.1920447973
   15      O      -4.1930892515    -1.9495447139    -0.2152576281
   16      O       2.6940113855    -2.2307585893     1.7386099645
   17      O       2.9728315978    -0.7915734342    -2.1157371458
   18      C       2.9072565508    -3.6860509777     1.5669061427
   19      C       3.8829528001     1.9210204797    -0.3887279306
   20      C       3.7327110128     2.9976101564     0.7569737615
   21      C       4.1083441633     2.1398527125     2.0215230226
   22      C       4.4580905051     0.7490421163     1.3568273059
   23      O       5.0408523764     1.1149895863     0.0473919616
   24      H       1.7496912536     1.4758981630     0.0221994535
   25      H       2.3602913534     0.0739982439     1.7712974036
   26      H       4.0494428352     2.3291073084    -1.4047159339
   27      H       4.4458489788     3.8230017651     0.6024015715
   28      H       2.7144283942     3.4152797407     0.8079997765
   29      H       4.9865143730     2.5514461406     2.5436750311
   30      H       3.2773428666     2.0533890717     2.7396349375
   31      H       5.1643454392     0.1187567453     1.9312255212
   32      O      -3.4471021349    -0.3970109953    -2.2246286831
   33      C      -4.4859696558    -3.2618505028    -0.8350131503
   34      C      -3.6198466952    -0.1775469817     1.9346640937
   35      C      -3.1453161549     1.0592446818     2.7995639189
   36      C      -3.4831180453     2.2584632803     1.8376126390
   37      C      -3.9885065699     1.4777746827     0.5619507411
   38      O      -4.7514076690     0.3535244692     1.1407637770
   39      H      -1.5049874246    -0.5275010344     1.2377575748
   40      H      -1.8389842498     1.4593943507     0.0133789071
   41      H      -4.1904393883    -4.1023045550    -0.1742976970
   42      H      -3.9391429499    -1.0631584095     2.5172757877
   43      H      -3.7186738587     1.1176641185     3.7381103412
   44      H      -2.0728449563     1.0009311765     3.0451067132
   45      H      -4.2920000747     2.8853317832     2.2459500193
   46      H      -2.6124350751     2.8987272776     1.6231374527
   47      H      -4.6198138402     2.0617538486    -0.1356720659
   48      H      -3.9634863863    -3.3726206131    -1.8071462887
   49      H      -5.5786469234    -3.2812689350    -1.0005990155
   50      H       2.2980156969    -4.1792103028     2.3465124449
   51      H       3.9734285884    -3.9621436226     1.7007312779
   52      H       2.5796955184    -4.0305909994     0.5648800071
   53      H       0.3856468404     2.6629816452    -2.1306920619
   54      H       0.1686519376     1.2805381217    -1.0012875772
   55      H      -0.7416733780     1.3670703645    -3.9697020601
   56      H      -0.8526604810    -0.0939510496    -2.9311085550
 ----------------------------------------------------------------

   10   -1510.2327119364      5.44E-09 Convergence criterion met
 Total energy in the final basis set = -1510.23271194
 Final energy is   -1510.23271193637
 **  OPTIMIZATION CONVERGED  **

                    Orbital Energies (a.u.)
 --------------------------------------------------------------

 Alpha MOs
 -- Occupied --
-18.935 -18.928 -18.922 -18.914 -18.904 -18.899 -18.897 -18.890
-18.876 -18.872 -10.115 -10.104 -10.099 -10.094 -10.079 -10.075
-10.070 -10.068 -10.068 -10.066 -10.060 -10.059 -10.046 -10.045
-10.045 -10.042 -10.029 -10.028 -10.028 -10.027  -1.016  -1.009
 -1.008  -1.003  -0.979  -0.978  -0.945  -0.937  -0.933  -0.930
 -0.771  -0.768  -0.730  -0.727  -0.717  -0.713  -0.704  -0.661
 -0.659  -0.615  -0.605  -0.590  -0.553  -0.551  -0.546  -0.545
 -0.523  -0.519  -0.486  -0.478  -0.469  -0.464  -0.456  -0.447
 -0.441  -0.440  -0.429  -0.417  -0.414  -0.409  -0.408  -0.407
 -0.397  -0.390  -0.383  -0.372  -0.367  -0.357  -0.354  -0.348
 -0.345  -0.342  -0.339  -0.338  -0.337  -0.332  -0.329  -0.320
 -0.317  -0.315  -0.314  -0.306  -0.302  -0.291  -0.288  -0.282
 -0.273  -0.254  -0.252  -0.248  -0.244  -0.242  -0.239  -0.182
 -0.179  -0.174  -0.163  -0.162  -0.155  -0.152  -0.151  -0.150
 -0.135

          Ground-State Mulliken Net Atomic Charges

     Atom                 Charge (a.u.)
  ----------------------------------------
      1 O                    -0.216594
      2 C                     0.205683
      3 C                    -0.080804
      4 C                    -0.082781
      5 C                     0.218577
      6 O                    -0.199715
      7 C                    -0.047892
      8 C                    -0.049679
      9 O                    -0.181521
     10 C                     0.206985
     11 C                    -0.084504
     12 C                    -0.079833
     13 C                     0.205455
     14 O                    -0.193802
     15 O                    -0.157608
     16 O                    -0.174680
     17 O                    -0.175208
     18 C                    -0.129678
     19 C                     0.026434
     20 C                    -0.143313
     21 C                    -0.144578
     22 C                     0.027099
     23 O                    -0.182730
     24 H                     0.075145
     25 H                     0.083410
     26 H                     0.086974
     27 H                     0.080045
     28 H                     0.071223
     29 H                     0.079682
     30 H                     0.073178
     31 H                     0.084874
     32 O                    -0.172788
     33 C                    -0.126078
     34 C                     0.027538
     35 C                    -0.145030
     36 C                    -0.142423
     37 C                     0.027605
     38 O                    -0.180637
     39 H                     0.082478
     40 H                     0.077850
     41 H                     0.088101
     42 H                     0.085430
     43 H                     0.079758
     44 H                     0.072710
     45 H                     0.079964
     46 H                     0.072799
     47 H                     0.086713
     48 H                     0.091081
     49 H                     0.092362
     50 H                     0.089019
     51 H                     0.086802
     52 H                     0.092771
     53 H                     0.082448
     54 H                     0.074109
     55 H                     0.090253
     56 H                     0.087322
  ----------------------------------------
  Sum of atomic charges =     0.000000

                    Cartesian Multipole Moments
 -----------------------------------------------------------------
    Charge (ESU x 10^10)
                -0.0000
    Dipole Moment (Debye)
         X      -1.2749      Y       2.6674      Z       4.1606
       Tot       5.1040
    Quadrupole Moments (Debye-Ang)
        XX    -180.0164     XY       6.9639     YY    -151.5999
        XZ       7.4984     YZ      -1.8897     ZZ    -162.1087

 Total job time:  66.19s(wall), 3153.79s(cpu)
        *  Thank you very much for using Q-Chem.  Have a nice day.  *
