 Q-Chem 5.0, Q-Chem, Inc., Pleasanton, CA (2017)
 Q-Chem 5.0.1 for Intel X86 EM64T Linux

User input:
--------------------------------------------------------------
$molecule
0  1
O -2.0180582427 -2.8407219919 0.0869209484
C -2.817040929 -1.879575927 0.15625848
C -2.5269907654 -0.4865168552 0.8210259611
C -2.7078869585 0.789631969 -0.1052395
C -2.8423325684 0.5311788052 -1.6536331881
O -2.139579135 1.5734873659 -2.4070693266
C -0.8669462886 1.0167642231 -2.9225651745
C 0.34368346 1.5540196489 -2.0601565384
O 1.5865286491 0.9720707356 -2.6120975067
C 2.3896466627 0.2159487521 -1.6671792937
C 2.6469590111 0.9111132073 -0.2732579092
C 3.1017361523 0.0140597225 0.9552896433
C 3.3847800964 -1.5084891014 0.704153585
O 4.0553595816 -2.0593918985 -0.1920447973
O -4.1930892515 -1.9495447139 -0.2152576281
O 2.6940113855 -2.2307585893 1.7386099645
O 2.9728315978 -0.7915734342 -2.1157371458
C 2.9072565508 -3.6860509777 1.5669061427
C 3.8829528001 1.9210204797 -0.3887279306
C 3.7327110128 2.9976101564 0.7569737615
C 4.1083441633 2.1398527125 2.0215230226
C 4.4580905051 0.7490421163 1.3568273059
O 5.0408523764 1.1149895863 0.0473919616
H 1.7496912536 1.475898163 0.0221994535
H 2.3602913534 0.0739982439 1.7712974036
H 4.0494428352 2.3291073084 -1.4047159339
H 4.4458489788 3.8230017651 0.6024015715
H 2.7144283942 3.4152797407 0.8079997765
H 4.986514373 2.5514461406 2.5436750311
H 3.2773428666 2.0533890717 2.7396349375
H 5.1643454392 0.1187567453 1.9312255212
O -3.4471021349 -0.3970109953 -2.2246286831
C -4.4859696558 -3.2618505028 -0.8350131503
C -3.6198466952 -0.1775469817 1.9346640937
C -3.1453161549 1.0592446818 2.7995639189
C -3.4831180453 2.2584632803 1.837612639
C -3.9885065699 1.4777746827 0.5619507411
O -4.751407669 0.3535244692 1.140763777
H -1.5049874246 -0.5275010344 1.2377575748
H -1.8389842498 1.4593943507 0.0133789071
H -4.1904393883 -4.102304555 -0.174297697
H -3.9391429499 -1.0631584095 2.5172757877
H -3.7186738587 1.1176641185 3.7381103412
H -2.0728449563 1.0009311765 3.0451067132
H -4.2920000747 2.8853317832 2.2459500193
H -2.6124350751 2.8987272776 1.6231374527
H -4.6198138402 2.0617538486 -0.1356720659
H -3.9634863863 -3.3726206131 -1.8071462887
H -5.5786469234 -3.281268935 -1.0005990155
H 2.2980156969 -4.1792103028 2.3465124449
H 3.9734285884 -3.9621436226 1.7007312779
H 2.5796955184 -4.0305909994 0.5648800071
H 0.3856468404 2.6629816452 -2.1306920619
H 0.1686519376 1.2805381217 -1.0012875772
H -0.741673378 1.3670703645 -3.9697020601
H -0.852660481 -0.0939510496 -2.931108555
$end

$rem
JOBTYPE                   OPT
METHOD                    B3LYP
DFT_D                     d3_op
BASIS                     STO-3G
GEOM_OPT_MAX_CYCLES       100
GEOM_OPT_TOL_GRADIENT     300
GEOM_OPT_TOL_DISPLACEMENT 1200
GEOM_OPT_TOL_ENERGY       100
SYMMETRY                  False
THRESH                    12
SCF_CONVERGENCE           8
MAX_SUB_FILE_NUM          128
MEM_STATIC                400
MEM_TOTAL                 4000
$end
--------------------------------------------------------------

   16   -1510.2325772191      6.85E-09 Convergence criterion met
 Total energy in the final basis set = -1510.23257722
   14   -1510.2357939068      7.61E-09 Convergence criterion met
 Total energy in the final basis set = -1510.23579391
   14   -1510.2398960304      9.14E-09 Convergence criterion met
 Total energy in the final basis set = -1510.23989603
   14   -1510.2422488514      2.96E-09 Convergence criterion met
 Total energy in the final basis set = -1510.24224885
   14   -1510.2471175736      4.20E-09 Convergence criterion met
 Total energy in the final basis set = -1510.24711757
   14   -1510.2521679528      9.46E-09 Convergence criterion met
 Total energy in the final basis set = -1510.25216795
   15   -1510.2562330801      3.40E-09 Convergence criterion met
 Total energy in the final basis set = -1510.25623308
   15   -1510.2597480194      3.15E-09 Convergence criterion met
   13   -1510.2885328994      3.62E-09 Convergence criterion met
 Total energy in the final basis set = -1510.28853290
   12   -1510.2886389173      5.52E-09 Convergence criterion met
 Total energy in the final basis set = -1510.28863892
   12   -1510.2887166386      3.82E-09 Convergence criterion met
 Total energy in the final basis set = -1510.28871664
   12   -1510.2887617508      4.44E-09 Convergence criterion met
 Total energy in the final basis set = -1510.28876175
   11   -1510.2887706022      7.88E-09 Convergence criterion met
 Total energy in the final basis set = -1510.28877060
   10   -1510.2887697439      7.91E-09 Convergence criterion met
 Total energy in the final basis set = -1510.28876974

             Standard Nuclear Orientation (Angstroms)
    I     Atom           X                Y                Z
 ----------------------------------------------------------------
    1      O      -0.2515085327     0.8945799743     2.8868304401
    2      C      -1.3557844995     0.4293554760     2.5212518065
    3      C      -2.6507070758     1.2687787526     2.2011830207
    4      C      -2.7296304424     1.7633503408     0.6970346610
    5      C      -1.5547874553     1.2277185455    -0.1802393640
    6      O      -1.5883603171     1.8730466488    -1.4493703905
    7      C      -0.4737512377     1.3982896175    -2.3080450661
    8      C       0.8629339033     2.1778803216    -1.9816390847
    9      O       2.0171292992     1.5548406429    -2.6553432620
   10      C       2.5005915985     0.3416563734    -2.0401567061
   11      C       2.1578865421     0.0313959332    -0.5346468608
   12      C       2.6798697029    -1.4038851935    -0.1217035176
   13      C       3.1460554452    -2.3207634054    -1.3122195185
   14      O       4.2816214833    -2.8069589349    -1.4952126598
   15      O      -1.6669443755    -0.9635326506     2.4486159351
   16      O       1.9771038860    -2.6721468995    -2.0753779838
   17      O       3.2714950613    -0.3561092503    -2.7389442998
   18      C       2.3713957312    -3.5017440298    -3.2340367651
   19      C       3.0714010463     0.9405932111     0.3999662364
   20      C       2.6326244598     0.7576731002     1.9080495304
   21      C       3.2772103330    -0.6373130020     2.2473950227
   22      C       3.8806652246    -1.0364891017     0.8470880947
   23      O       4.3819732053     0.2550125175     0.3203608986
   24      H       1.0737819372     0.1399514502    -0.3194443429
   25      H       1.8831249997    -1.9456702952     0.4199018691
   26      H       3.1698763217     1.9914834350     0.0644175929
   27      H       3.0715829892     1.5581781951     2.5241780507
   28      H       1.5351524981     0.7660122670     2.0558862169
   29      H       4.0787023845    -0.5404503017     2.9970926859
   30      H       2.5410786297    -1.3707068935     2.6115822231
   31      H       4.6930943302    -1.7891817764     0.8585205432
   32      O      -0.7199246135     0.3477011597     0.1461332400
   33      C      -0.4468850701    -1.7694527356     2.6689294370
   34      C      -3.9954151559     0.4302219840     2.3080287459
   35      C      -5.2032548383     1.4437167887     2.4024065569
   36      C      -5.2815289774     1.9616755067     0.9182691715
   37      C      -4.1202510258     1.1306252941     0.2440626755
   38      O      -4.1469595561    -0.1628372056     0.9584097897
   39      H      -2.6573560405     2.1351192304     2.8862244080
   40      H      -2.7492685470     2.8652913003     0.6207415473
   41      H       0.0907845515    -1.4577456217     3.5872695697
   42      H      -3.9782590442    -0.3649225719     3.0775752696
   43      H      -6.1252184966     0.9159641359     2.6937791149
   44      H      -5.0130731826     2.2505268431     3.1278709918
   45      H      -6.2488578925     1.7136211006     0.4534499478
   46      H      -5.1166231463     3.0478046083     0.8351643200
   47      H      -4.2167358388     0.9805198175    -0.8490801842
   48      H       0.2424117553    -1.6790837850     1.8048345986
   49      H      -0.7818453957    -2.8185055375     2.7652885120
   50      H       1.4317341651    -3.8092295158    -3.7291185073
   51      H       2.9396427899    -4.4014715190    -2.9212889450
   52      H       2.9937934843    -2.9232605099    -3.9476203560
   53      H       0.8002178380     3.2057907787    -2.3926687586
   54      H       0.9906850645     2.2531996794    -0.8823446243
   55      H      -0.7878293530     1.5965491394    -3.3515951618
   56      H      -0.3134405879     0.3072756985    -2.1730993770
 ----------------------------------------------------------------

   10   -1510.2887699736      5.61E-09 Convergence criterion met
 Total energy in the final basis set = -1510.28876997
 Final energy is   -1510.28876997358
 **  OPTIMIZATION CONVERGED  **

                    Orbital Energies (a.u.)
 --------------------------------------------------------------

 Alpha MOs
 -- Occupied --
-18.967 -18.939 -18.938 -18.912 -18.909 -18.899 -18.883 -18.876
-18.874 -18.852 -10.131 -10.107 -10.100 -10.090 -10.087 -10.082
-10.074 -10.068 -10.066 -10.056 -10.051 -10.048 -10.047 -10.046
-10.031 -10.028 -10.023 -10.021 -10.007 -10.000  -1.043  -1.014
 -1.010  -0.989  -0.981  -0.967  -0.960  -0.941  -0.939  -0.916
 -0.776  -0.751  -0.737  -0.725  -0.711  -0.709  -0.694  -0.665
 -0.647  -0.631  -0.600  -0.589  -0.557  -0.548  -0.535  -0.529
 -0.525  -0.507  -0.498  -0.480  -0.476  -0.470  -0.449  -0.447
 -0.444  -0.437  -0.427  -0.417  -0.413  -0.408  -0.403  -0.401
 -0.395  -0.394  -0.385  -0.379  -0.367  -0.357  -0.354  -0.351
 -0.344  -0.341  -0.338  -0.335  -0.328  -0.323  -0.319  -0.318
 -0.314  -0.313  -0.306  -0.300  -0.294  -0.289  -0.286  -0.276
 -0.266  -0.262  -0.254  -0.246  -0.244  -0.237  -0.224  -0.211
 -0.183  -0.178  -0.174  -0.159  -0.157  -0.153  -0.150  -0.135
 -0.132

          Ground-State Mulliken Net Atomic Charges

     Atom                 Charge (a.u.)
  ----------------------------------------
      1 O                    -0.224299
      2 C                     0.218764
      3 C                    -0.081195
      4 C                    -0.078094
      5 C                     0.220595
      6 O                    -0.164721
      7 C                    -0.053528
      8 C                    -0.049915
      9 O                    -0.169065
     10 C                     0.211290
     11 C                    -0.100520
     12 C                    -0.080273
     13 C                     0.216497
     14 O                    -0.218805
     15 O                    -0.165116
     16 O                    -0.181717
     17 O                    -0.190771
     18 C                    -0.129319
     19 C                     0.019807
     20 C                    -0.155637
     21 C                    -0.143722
     22 C                     0.023352
     23 O                    -0.191241
     24 H                     0.102410
     25 H                     0.077310
     26 H                     0.074964
     27 H                     0.072511
     28 H                     0.092872
     29 H                     0.074790
     30 H                     0.068415
     31 H                     0.088758
     32 O                    -0.207959
     33 C                    -0.127610
     34 C                     0.026528
     35 C                    -0.144233
     36 C                    -0.143492
     37 C                     0.026194
     38 O                    -0.186139
     39 H                     0.085564
     40 H                     0.089949
     41 H                     0.090685
     42 H                     0.091242
     43 H                     0.079926
     44 H                     0.074713
     45 H                     0.080469
     46 H                     0.074920
     47 H                     0.086247
     48 H                     0.088994
     49 H                     0.091855
     50 H                     0.083495
     51 H                     0.086398
     52 H                     0.090651
     53 H                     0.093933
     54 H                     0.087125
     55 H                     0.097770
     56 H                     0.098378
  ----------------------------------------
  Sum of atomic charges =    -0.000000

                    Cartesian Multipole Moments
 -----------------------------------------------------------------
    Charge (ESU x 10^10)
                -0.0000
    Dipole Moment (Debye)
         X      -5.9076      Y       2.2503      Z       1.7571
       Tot       6.5613
    Quadrupole Moments (Debye-Ang)
        XX    -178.1144     XY      -4.7613     YY    -152.8295
        XZ       6.1962     YZ      -1.8119     ZZ    -157.9051

 Total job time:  154.01s(wall), 7353.60s(cpu)
        *  Thank you very much for using Q-Chem.  Have a nice day.  *
