 Q-Chem 5.0, Q-Chem, Inc., Pleasanton, CA (2017)
 Q-Chem 5.0.1 for Intel X86 EM64T Linux

User input:
--------------------------------------------------------------
$molecule
0  1
O -3.94934 -3.66094 2.70899
C -3.26408 -4.56952 2.26188
C -3.36658 -6.02376 2.66595
C -3.18715 -7.07505 1.5585
C -2.74922 -6.56083 0.20502
O -3.50739 -5.48125 -0.1487
C -4.17947 -5.65118 -1.40117
C -5.33707 -4.66466 -1.51461
O -4.89772 -3.34945 -1.14034
C -5.88273 -2.47711 -0.81182
C -5.43644 -1.03565 -0.87248
C -5.93428 -0.25489 -2.09757
C -7.06683 -0.89593 -2.87417
O -8.25627 -0.78471 -2.61454
O -2.13205 -4.21494 1.59028
O -6.68822 -1.77052 -3.84237
O -7.05954 -2.79646 -0.68654
C -7.56446 -2.51362 -4.60479
C -5.96153 -0.17459 0.28607
C -5.04988 1.03584 0.47971
C -5.38284 1.83999 -0.76107
C -6.50373 0.97795 -1.35575
O -7.12962 0.41154 -0.22825
H -4.32181 -1.03514 -0.85229
H -5.14175 0.04642 -2.81784
H -6.07002 -0.73964 1.23771
H -5.42375 1.58682 1.37241
H -3.97219 0.80237 0.6184
H -5.77823 2.82939 -0.44035
H -4.54538 1.97784 -1.47875
H -7.15495 1.59647 -2.01274
O -1.7948 -6.95773 -0.44923
C -1.80762 -2.92328 1.22964
C -2.20231 -6.4324 3.59613
C -2.60874 -7.64075 4.43773
C -2.61212 -8.7289 3.38458
C -2.0824 -7.94695 2.17695
O -1.22921 -6.98177 2.73986
H -4.32 -6.14093 3.22936
H -4.13897 -7.62277 1.38132
H -1.70951 -2.28526 2.13373
H -1.86 -5.60543 4.2568
H -1.77184 -7.83687 5.14607
H -3.55386 -7.53129 5.01177
H -1.89098 -9.51819 3.69288
H -3.60512 -9.18131 3.17242
H -1.62205 -8.64294 1.44201
H -2.58907 -2.50698 0.55864
H -0.8388 -2.92935 0.68971
H -6.98708 -3.13947 -5.31569
H -8.23495 -1.84126 -5.18162
H -8.169 -3.17937 -3.95228
H -5.79888 -4.6709 -2.526
H -6.08472 -5.02827 -0.77212
H -4.58938 -6.68115 -1.52215
H -3.45102 -5.45596 -2.21821
$end

$opt
CONSTRAINT
tors           1           2           3           4    +142.105
tors           3           4           5           6     -47.368
tors           4           5           6           7    -123.158
tors           5           6           7           8    +161.053
tors           6           7           8           9     +47.368
tors           7           8           9          10    -161.053
tors           8           9          10          11    -161.053
tors           9          10          11          12    +104.211
tors          11          12          13          14     +85.263
ENDCONSTRAINT
$end

$rem
JOBTYPE                   OPT
METHOD                    B3LYP
DFT_D                     d3_op
BASIS                     STO-3G
GEOM_OPT_MAX_CYCLES       100
GEOM_OPT_TOL_GRADIENT     300
GEOM_OPT_TOL_DISPLACEMENT 1200
GEOM_OPT_TOL_ENERGY       100
SYMMETRY                  False
THRESH                    12
SCF_CONVERGENCE           8
MAX_SUB_FILE_NUM          128
MEM_STATIC                400
MEM_TOTAL                 4000
$end
--------------------------------------------------------------

   15   -1510.1350861715      5.48E-09 Convergence criterion met
 Total energy in the final basis set = -1510.13508617
   13   -1510.2050287585      9.66E-09 Convergence criterion met
 Total energy in the final basis set = -1510.20502876
   14   -1510.2424679862      5.55E-09 Convergence criterion met
 Total energy in the final basis set = -1510.24246799
   14   -1510.2584757848      4.04E-09 Convergence criterion met
 Total energy in the final basis set = -1510.25847578
   13   -1510.2635303041      5.25E-09 Convergence criterion met
 Total energy in the final basis set = -1510.26353030
   13   -1510.2652657224      4.51E-09 Convergence criterion met
 Total energy in the final basis set = -1510.26526572
   12   -1510.2658534800      9.35E-09 Convergence criterion met
 Total energy in the final basis set = -1510.26585348
   13   -1510.2659544150      6.40E-09 Convergence criterion met
   12   -1510.2668276555      3.84E-09 Convergence criterion met
 Total energy in the final basis set = -1510.26682766
   11   -1510.2669224348      8.94E-09 Convergence criterion met
 Total energy in the final basis set = -1510.26692243
   11   -1510.2669514187      5.17E-09 Convergence criterion met
 Total energy in the final basis set = -1510.26695142
   11   -1510.2669689509      5.25E-09 Convergence criterion met
 Total energy in the final basis set = -1510.26696895
    9   -1510.2669793848      9.23E-09 Convergence criterion met
 Total energy in the final basis set = -1510.26697938
   11   -1510.2669769028      5.61E-09 Convergence criterion met
 Total energy in the final basis set = -1510.26697690

             Standard Nuclear Orientation (Angstroms)
    I     Atom           X                Y                Z
 ----------------------------------------------------------------
    1      O      -1.2301843221    -1.8594009293     0.4484769679
    2      C      -2.2088359993    -1.2092369492     0.0239683358
    3      C      -3.3992135450    -0.6224276848     0.8539028256
    4      C      -3.8754824032     0.7952803087     0.3313982338
    5      C      -3.0150292553     1.3620549322    -0.8624439998
    6      O      -1.6038631108     1.2281379655    -0.5549106490
    7      C      -0.8710879949     2.5074018932    -0.6009557099
    8      C       0.4253282974     2.2015325181     0.2201735258
    9      O       0.9155384557     0.9076023840    -0.3166768997
   10      C       1.8233283325     0.2840087717     0.6046819498
   11      C       2.6502113341    -0.7744352353    -0.1971763134
   12      C       4.1350566907    -0.2936550778    -0.5104179098
   13      C       4.4916739915     1.0601619029     0.1971657534
   14      O       4.9171024584     1.2340517394     1.3580982485
   15      O      -2.4834606861    -0.9786864446    -1.3679644237
   16      O       4.1520317937     2.1295405860    -0.6994740160
   17      O       1.9325410690     0.6028037586     1.8077278099
   18      C       4.3805487404     3.4339736466    -0.0371343222
   19      C       2.9285828259    -2.1034576062     0.6268047994
   20      C       3.3319495237    -3.2301056257    -0.4026660790
   21      C       4.7849598971    -2.7685119920    -0.7965289046
   22      C       4.9620788612    -1.4920553868     0.1186885532
   23      O       4.1935865900    -1.8213666359     1.3406642883
   24      H       2.1066420055    -0.9863455960    -1.1347580189
   25      H       4.2949151059    -0.1839513606    -1.5975992292
   26      H       2.1275417963    -2.3732269841     1.3421054452
   27      H       3.3422698451    -4.2146877607     0.0913162976
   28      H       2.6464452895    -3.2726484994    -1.2637971676
   29      H       5.5365688851    -3.5324742368    -0.5420713520
   30      H       4.8778383368    -2.5254183514    -1.8673065616
   31      H       6.0070219529    -1.2355972813     0.3794076748
   32      O      -3.4593446646     1.9556334364    -1.8660362482
   33      C      -1.2819473552    -1.2989041987    -2.1718761703
   34      C      -4.7308163805    -1.4696742093     0.6307874406
   35      C      -5.7824237430    -1.0442692899     1.7321498282
   36      C      -6.2561947084     0.3521329577     1.1793766206
   37      C      -5.3616903889     0.4837293298    -0.1135252687
   38      O      -5.2841042595    -0.9070931988    -0.6200470204
   39      H      -3.1020197908    -0.5994670917     1.9166173499
   40      H      -3.8388981473     1.5481668327     1.1413426826
   41      H      -0.9611052397    -2.3497561810    -2.0225237974
   42      H      -4.5698085012    -2.5606765214     0.5288883181
   43      H      -6.6119989953    -1.7680098555     1.7721283358
   44      H      -5.3273821133    -0.9738105126     2.7331631172
   45      H      -7.3235915266     0.3354262644     0.9073575694
   46      H      -6.0854952900     1.1743425565     1.8924395539
   47      H      -5.7423946161     1.1627293183    -0.9014444154
   48      H      -0.4464065186    -0.6195223228    -1.8993201176
   49      H      -1.5669403621    -1.1399465902    -3.2278600732
   50      H       4.0387845642     4.2049778940    -0.7521554833
   51      H       5.4536855858     3.5944518980     0.1932086797
   52      H       3.8050071860     3.5182342406     0.9075801038
   53      H       1.1906054134     2.9963495409     0.0772532324
   54      H       0.2013513316     2.1110226789     1.3046302517
   55      H      -1.4398581609     3.3418461381    -0.1340049778
   56      H      -0.6149105714     2.7980939281    -1.6452843073
 ----------------------------------------------------------------

   11   -1510.2669770330      5.81E-09 Convergence criterion met
 Total energy in the final basis set = -1510.26697703
 Final energy is   -1510.26697703301
 **  OPTIMIZATION CONVERGED  **

                    Orbital Energies (a.u.)
 --------------------------------------------------------------

 Alpha MOs
 -- Occupied --
-18.932 -18.932 -18.930 -18.909 -18.887 -18.887 -18.885 -18.877
-18.876 -18.872 -10.105 -10.098 -10.097 -10.096 -10.080 -10.076
-10.065 -10.061 -10.057 -10.057 -10.057 -10.055 -10.037 -10.037
-10.036 -10.035 -10.021 -10.020 -10.018 -10.016  -1.015  -1.011
 -1.007  -0.999  -0.970  -0.967  -0.943  -0.935  -0.933  -0.928
 -0.763  -0.761  -0.728  -0.722  -0.713  -0.704  -0.698  -0.664
 -0.655  -0.612  -0.599  -0.581  -0.549  -0.543  -0.538  -0.534
 -0.513  -0.508  -0.488  -0.474  -0.469  -0.462  -0.451  -0.440
 -0.435  -0.430  -0.425  -0.415  -0.413  -0.411  -0.408  -0.401
 -0.386  -0.379  -0.374  -0.366  -0.362  -0.360  -0.353  -0.348
 -0.346  -0.339  -0.336  -0.330  -0.328  -0.326  -0.322  -0.312
 -0.306  -0.305  -0.303  -0.300  -0.298  -0.289  -0.278  -0.277
 -0.271  -0.257  -0.251  -0.248  -0.236  -0.234  -0.231  -0.178
 -0.175  -0.174  -0.163  -0.157  -0.156  -0.147  -0.146  -0.143
 -0.140

          Ground-State Mulliken Net Atomic Charges

     Atom                 Charge (a.u.)
  ----------------------------------------
      1 O                    -0.214573
      2 C                     0.218048
      3 C                    -0.079718
      4 C                    -0.078476
      5 C                     0.225069
      6 O                    -0.194446
      7 C                    -0.042340
      8 C                    -0.046006
      9 O                    -0.172214
     10 C                     0.209210
     11 C                    -0.077506
     12 C                    -0.078291
     13 C                     0.204862
     14 O                    -0.202431
     15 O                    -0.165014
     16 O                    -0.173762
     17 O                    -0.205451
     18 C                    -0.130502
     19 C                     0.026526
     20 C                    -0.142956
     21 C                    -0.144674
     22 C                     0.026164
     23 O                    -0.183804
     24 H                     0.085603
     25 H                     0.085576
     26 H                     0.090438
     27 H                     0.078410
     28 H                     0.073347
     29 H                     0.077857
     30 H                     0.072351
     31 H                     0.085166
     32 O                    -0.199258
     33 C                    -0.129164
     34 C                     0.025943
     35 C                    -0.143817
     36 C                    -0.144026
     37 C                     0.023878
     38 O                    -0.186696
     39 H                     0.084960
     40 H                     0.080477
     41 H                     0.086877
     42 H                     0.083126
     43 H                     0.078204
     44 H                     0.073885
     45 H                     0.078297
     46 H                     0.072565
     47 H                     0.089870
     48 H                     0.097162
     49 H                     0.090595
     50 H                     0.087999
     51 H                     0.088904
     52 H                     0.089332
     53 H                     0.082828
     54 H                     0.095777
     55 H                     0.080341
     56 H                     0.085478
  ----------------------------------------
  Sum of atomic charges =    -0.000000

                    Cartesian Multipole Moments
 -----------------------------------------------------------------
    Charge (ESU x 10^10)
                 0.0000
    Dipole Moment (Debye)
         X      -0.5272      Y       1.4987      Z      -0.9997
       Tot       1.8771
    Quadrupole Moments (Debye-Ang)
        XX    -159.6908     XY      -0.0236     YY    -147.7080
        XZ     -24.8758     YZ       4.9507     ZZ    -167.5085

 Total job time:  51.66s(wall), 2459.92s(cpu)
        *  Thank you very much for using Q-Chem.  Have a nice day.  *
