 Q-Chem 5.0, Q-Chem, Inc., Pleasanton, CA (2017)
 Q-Chem 5.0.1 for Intel X86 EM64T Linux

User input:
--------------------------------------------------------------
$molecule
0  1
O -1.2301843221 -1.8594009293 0.4484769679
C -2.2088359993 -1.2092369492 0.0239683358
C -3.399213545 -0.6224276848 0.8539028256
C -3.8754824032 0.7952803087 0.3313982338
C -3.0150292553 1.3620549322 -0.8624439998
O -1.6038631108 1.2281379655 -0.554910649
C -0.8710879949 2.5074018932 -0.6009557099
C 0.4253282974 2.2015325181 0.2201735258
O 0.9155384557 0.907602384 -0.3166768997
C 1.8233283325 0.2840087717 0.6046819498
C 2.6502113341 -0.7744352353 -0.1971763134
C 4.1350566907 -0.2936550778 -0.5104179098
C 4.4916739915 1.0601619029 0.1971657534
O 4.9171024584 1.2340517394 1.3580982485
O -2.4834606861 -0.9786864446 -1.3679644237
O 4.1520317937 2.129540586 -0.699474016
O 1.932541069 0.6028037586 1.8077278099
C 4.3805487404 3.4339736466 -0.0371343222
C 2.9285828259 -2.1034576062 0.6268047994
C 3.3319495237 -3.2301056257 -0.402666079
C 4.7849598971 -2.768511992 -0.7965289046
C 4.9620788612 -1.4920553868 0.1186885532
O 4.19358659 -1.8213666359 1.3406642883
H 2.1066420055 -0.986345596 -1.1347580189
H 4.2949151059 -0.1839513606 -1.5975992292
H 2.1275417963 -2.3732269841 1.3421054452
H 3.3422698451 -4.2146877607 0.0913162976
H 2.6464452895 -3.2726484994 -1.2637971676
H 5.5365688851 -3.5324742368 -0.542071352
H 4.8778383368 -2.5254183514 -1.8673065616
H 6.0070219529 -1.2355972813 0.3794076748
O -3.4593446646 1.9556334364 -1.8660362482
C -1.2819473552 -1.2989041987 -2.1718761703
C -4.7308163805 -1.4696742093 0.6307874406
C -5.782423743 -1.0442692899 1.7321498282
C -6.2561947084 0.3521329577 1.1793766206
C -5.3616903889 0.4837293298 -0.1135252687
O -5.2841042595 -0.9070931988 -0.6200470204
H -3.1020197908 -0.5994670917 1.9166173499
H -3.8388981473 1.5481668327 1.1413426826
H -0.9611052397 -2.349756181 -2.0225237974
H -4.5698085012 -2.5606765214 0.5288883181
H -6.6119989953 -1.7680098555 1.7721283358
H -5.3273821133 -0.9738105126 2.7331631172
H -7.3235915266 0.3354262644 0.9073575694
H -6.08549529 1.1743425565 1.8924395539
H -5.7423946161 1.1627293183 -0.9014444154
H -0.4464065186 -0.6195223228 -1.8993201176
H -1.5669403621 -1.1399465902 -3.2278600732
H 4.0387845642 4.204977894 -0.7521554833
H 5.4536855858 3.594451898 0.1932086797
H 3.805007186 3.5182342406 0.9075801038
H 1.1906054134 2.9963495409 0.0772532324
H 0.2013513316 2.1110226789 1.3046302517
H -1.4398581609 3.3418461381 -0.1340049778
H -0.6149105714 2.7980939281 -1.6452843073
$end

$rem
JOBTYPE                   OPT
METHOD                    B3LYP
DFT_D                     d3_op
BASIS                     STO-3G
GEOM_OPT_MAX_CYCLES       100
GEOM_OPT_TOL_GRADIENT     300
GEOM_OPT_TOL_DISPLACEMENT 1200
GEOM_OPT_TOL_ENERGY       100
SYMMETRY                  False
THRESH                    12
SCF_CONVERGENCE           8
MAX_SUB_FILE_NUM          128
MEM_STATIC                400
MEM_TOTAL                 4000
$end
--------------------------------------------------------------

   16   -1510.2669751274      5.71E-09 Convergence criterion met
 Total energy in the final basis set = -1510.26697513
   15   -1510.2719502901      4.30E-09 Convergence criterion met
 Total energy in the final basis set = -1510.27195029
   15   -1510.2769212596      3.51E-09 Convergence criterion met
 Total energy in the final basis set = -1510.27692126
   15   -1510.2816236613      4.54E-09 Convergence criterion met
 Total energy in the final basis set = -1510.28162366
   15   -1510.2862882503      2.45E-09 Convergence criterion met
 Total energy in the final basis set = -1510.28628825
   14   -1510.2903191788      9.97E-09 Convergence criterion met
 Total energy in the final basis set = -1510.29031918
   14   -1510.2923680514      8.96E-09 Convergence criterion met
 Total energy in the final basis set = -1510.29236805
   14   -1510.2917871645      8.27E-09 Convergence criterion met
   13   -1510.2993949649      3.97E-09 Convergence criterion met
 Total energy in the final basis set = -1510.29939496
   12   -1510.2994510221      6.15E-09 Convergence criterion met
 Total energy in the final basis set = -1510.29945102
   12   -1510.2995032062      4.30E-09 Convergence criterion met
 Total energy in the final basis set = -1510.29950321
   11   -1510.2994970661      6.63E-09 Convergence criterion met
 Total energy in the final basis set = -1510.29949707
   10   -1510.2994950897      7.19E-09 Convergence criterion met
 Total energy in the final basis set = -1510.29949509
    9   -1510.2994975918      4.04E-09 Convergence criterion met
 Total energy in the final basis set = -1510.29949759

             Standard Nuclear Orientation (Angstroms)
    I     Atom           X                Y                Z
 ----------------------------------------------------------------
    1      O      -0.5116912958    -1.3973639346     0.2136320147
    2      C      -1.5169460730    -0.7540506791    -0.1707610364
    3      C      -2.9665298064    -0.8663417841     0.4111207738
    4      C      -3.7251186529     0.5205932077     0.5616074070
    5      C      -2.8729393882     1.7771124657     0.1561595375
    6      O      -1.7493638193     1.8527890644     1.0459289901
    7      C      -0.8584124808     2.9743317182     0.6597668839
    8      C       0.5599634936     2.6294267239     1.2164535955
    9      O       0.8471507999     1.2553351317     0.7493747627
   10      C       2.1743553646     0.8335384180     1.1137280179
   11      C       2.3216752552    -0.6435718099     0.6147635526
   12      C       3.2322667445    -0.7983600650    -0.6763109264
   13      C       3.8512049329     0.5518620830    -1.1808762741
   14      O       5.0411992205     0.7925524379    -1.4700543320
   15      O      -1.5495441176     0.1456273774    -1.2721977792
   16      O       2.7923499195     1.5181554663    -1.2722349330
   17      O       2.9758936821     1.5467465041     1.7513699171
   18      C       3.3320777845     2.8436969660    -1.6469723743
   19      C       3.1230463596    -1.5476686350     1.6417484489
   20      C       2.8480529781    -3.0583855270     1.2696200078
   21      C       3.7452716736    -3.2236708373    -0.0131179468
   22      C       4.3593614855    -1.7754521826    -0.1438999966
   23      O       4.5410801776    -1.3446503766     1.2614792935
   24      H       1.2932240798    -1.0248723161     0.4259585155
   25      H       2.6564655981    -1.2489743665    -1.5059146679
   26      H       2.9680510707    -1.2855359145     2.7061322888
   27      H       3.1787211013    -3.7248979499     2.0819984159
   28      H       1.7805052230    -3.2424653624     1.0688587873
   29      H       4.5430322829    -3.9667338593     0.1446008792
   30      H       3.1657156944    -3.5119117219    -0.9046972702
   31      H       5.3143942086    -1.7015179900    -0.6997845354
   32      O      -3.1294787503     2.6177334229    -0.7308064337
   33      C      -0.1929757930     0.3487331274    -1.8391156098
   34      C      -3.9307694089    -1.6096284090    -0.6172611926
   35      C      -5.2508641972    -2.0269004671     0.1455993304
   36      C      -5.9920847363    -0.6421965788     0.2524624054
   37      C      -4.9423428689     0.3157308551    -0.4327046553
   38      O      -4.3699362526    -0.5198473065    -1.5144982013
   39      H      -2.9045692403    -1.4045623587     1.3727953008
   40      H      -4.0680461494     0.6589710652     1.6034525879
   41      H       0.2357584536    -0.6061414844    -2.2032487848
   42      H      -3.4466619546    -2.4199616696    -1.1965465361
   43      H      -5.8280785050    -2.7502860097    -0.4520422831
   44      H      -5.0368225184    -2.4730281614     1.1299579579
   45      H      -6.9363482813    -0.6465418205    -0.3147813889
   46      H      -6.2058895308    -0.3520167383     1.2934993596
   47      H      -5.3437453056     1.2603314237    -0.8483674676
   48      H       0.4746710975     0.7939988801    -1.0661163591
   49      H      -0.3252919651     1.0418201930    -2.6892050673
   50      H       2.4553859062     3.4995888430    -1.8007477919
   51      H       3.9295658950     2.7945506806    -2.5796319438
   52      H       3.9690898596     3.2592675633    -0.8392058229
   53      H       1.3137663906     3.3547838925     0.8380474189
   54      H       0.5660041059     2.6701504453     2.3276269378
   55      H      -1.2182775307     3.9332106204     1.0952114945
   56      H      -0.8370352053     3.0838934291    -0.4453208517
 ----------------------------------------------------------------

    9   -1510.2994972832      3.52E-09 Convergence criterion met
 Total energy in the final basis set = -1510.29949728
 Final energy is   -1510.29949728316
 **  OPTIMIZATION CONVERGED  **

                    Orbital Energies (a.u.)
 --------------------------------------------------------------

 Alpha MOs
 -- Occupied --
-18.940 -18.938 -18.933 -18.931 -18.889 -18.882 -18.880 -18.879
-18.874 -18.872 -10.106 -10.102 -10.101 -10.096 -10.079 -10.078
-10.069 -10.063 -10.058 -10.052 -10.051 -10.049 -10.040 -10.038
-10.034 -10.022 -10.021 -10.017 -10.014 -10.011  -1.019  -1.016
 -1.009  -1.005  -0.971  -0.962  -0.941  -0.940  -0.939  -0.931
 -0.765  -0.757  -0.729  -0.721  -0.713  -0.704  -0.694  -0.665
 -0.657  -0.616  -0.598  -0.577  -0.548  -0.542  -0.538  -0.531
 -0.514  -0.507  -0.487  -0.480  -0.470  -0.461  -0.450  -0.443
 -0.434  -0.428  -0.422  -0.417  -0.415  -0.413  -0.407  -0.398
 -0.396  -0.380  -0.376  -0.370  -0.361  -0.359  -0.356  -0.350
 -0.343  -0.342  -0.334  -0.333  -0.327  -0.324  -0.322  -0.310
 -0.307  -0.306  -0.300  -0.296  -0.293  -0.290  -0.282  -0.275
 -0.270  -0.257  -0.253  -0.251  -0.245  -0.235  -0.227  -0.183
 -0.182  -0.177  -0.171  -0.161  -0.158  -0.152  -0.147  -0.145
 -0.137

          Ground-State Mulliken Net Atomic Charges

     Atom                 Charge (a.u.)
  ----------------------------------------
      1 O                    -0.218957
      2 C                     0.221731
      3 C                    -0.078218
      4 C                    -0.078029
      5 C                     0.217521
      6 O                    -0.176251
      7 C                    -0.047118
      8 C                    -0.044237
      9 O                    -0.173255
     10 C                     0.212969
     11 C                    -0.096745
     12 C                    -0.079390
     13 C                     0.212297
     14 O                    -0.206088
     15 O                    -0.164644
     16 O                    -0.175355
     17 O                    -0.215476
     18 C                    -0.129637
     19 C                     0.024656
     20 C                    -0.144147
     21 C                    -0.143861
     22 C                     0.023841
     23 O                    -0.189577
     24 H                     0.113896
     25 H                     0.082812
     26 H                     0.082183
     27 H                     0.075450
     28 H                     0.078973
     29 H                     0.076648
     30 H                     0.072027
     31 H                     0.088043
     32 O                    -0.213585
     33 C                    -0.142683
     34 C                     0.025801
     35 C                    -0.143913
     36 C                    -0.143978
     37 C                     0.024931
     38 O                    -0.185876
     39 H                     0.085402
     40 H                     0.084101
     41 H                     0.079160
     42 H                     0.081986
     43 H                     0.078235
     44 H                     0.073835
     45 H                     0.078427
     46 H                     0.073243
     47 H                     0.090509
     48 H                     0.114578
     49 H                     0.086743
     50 H                     0.087928
     51 H                     0.092522
     52 H                     0.092367
     53 H                     0.088425
     54 H                     0.089667
     55 H                     0.084914
     56 H                     0.095200
  ----------------------------------------
  Sum of atomic charges =    -0.000000

                    Cartesian Multipole Moments
 -----------------------------------------------------------------
    Charge (ESU x 10^10)
                -0.0000
    Dipole Moment (Debye)
         X      -2.7516      Y      -0.2857      Z       0.1620
       Tot       2.7711
    Quadrupole Moments (Debye-Ang)
        XX    -174.2385     XY       3.5784     YY    -149.0636
        XZ     -15.0420     YZ       1.1078     ZZ    -160.9566

 Total job time:  105.61s(wall), 5038.70s(cpu)
        *  Thank you very much for using Q-Chem.  Have a nice day.  *
