 Q-Chem 5.0, Q-Chem, Inc., Pleasanton, CA (2017)
 Q-Chem 5.0.1 for Intel X86 EM64T Linux

User input:
--------------------------------------------------------------
$molecule
0  1
O 4.6056524777 -2.6915281774 1.1381339841
C 3.8286776477 -1.858828219 0.6152682023
C 4.3365908703 -0.5465954224 -0.0938598953
C 3.4610228822 0.2914338566 -1.1144733779
C 1.901602233 0.3212382612 -0.9056316794
O 1.5874989697 0.1526502893 0.473066974
C 0.2209845491 0.5911952944 0.8297964299
C -0.297176131 1.992833963 0.3280068186
O -1.5450219798 2.0138575869 -0.484391452
C -2.7394234516 2.0384450664 0.3196793468
C -3.8976094549 1.1643973295 -0.3306728295
C -3.7285654679 -0.3039754058 -0.8956858102
C -2.536327449 -1.1658201359 -0.4003399414
O -1.9476261724 -1.1092620198 0.703146724
O 2.427273621 -2.0928822828 0.4689796413
O -2.1635539589 -2.052485566 -1.4549811343
O -2.8507828189 2.6599281632 1.3986312296
C -0.9834241839 -2.8550374271 -1.053730407
C -5.1029556036 0.9606536026 0.7000353937
C -6.4514767851 1.0033144345 -0.1112642029
C -6.3449814487 -0.3464679957 -0.9146096256
C -5.0402909273 -0.9802759164 -0.2869342174
O -5.0176746453 -0.4646802438 1.0992209066
H -4.2611687841 1.7796881754 -1.1777510474
H -3.7203736464 -0.310608453 -1.9993255626
H -5.0436783071 1.6239084177 1.5859936464
H -7.307676141 0.999044288 0.5822360599
H -6.527272354 1.887796621 -0.7629735226
H -7.2106641721 -1.0037414985 -0.7350599468
H -6.2437418076 -0.1819266318 -1.9988076102
H -5.0081269927 -2.0878350854 -0.2956304851
O 1.0540589646 0.5114348052 -1.8077594657
C 2.0460982692 -3.3615173536 1.1338718277
C 4.8856613021 0.608000939 0.8750457516
C 6.1805251101 1.1876820022 0.1821837856
C 5.5400772637 1.8740686298 -1.0817243046
C 3.9939158002 1.7501011969 -0.756015958
O 3.9273269287 1.726023023 0.7245858607
H 5.2075379197 -0.9241241612 -0.6631284581
H 3.6691379267 0.0090856623 -2.1615081642
H 2.6353891491 -3.5292282534 2.0563099461
H 4.9977170928 0.3217080613 1.939933179
H 6.6642428147 1.9281862279 0.8398151881
H 6.9120289245 0.4058356084 -0.077770455
H 5.8317461425 2.932262667 -1.1766092877
H 5.8007796843 1.3548015339 -2.0184411218
H 3.3682287308 2.5682356445 -1.1626281869
H 2.1995868666 -4.2235815976 0.4527090731
H 0.9726416258 -3.2781079832 1.3868633323
H -0.742353573 -3.491713409 -1.9238124223
H -1.2069181205 -3.4930606731 -0.1744204196
H -0.1121075968 -2.2103576612 -0.8169213529
H -0.4497830842 2.6396556111 1.2181729338
H 0.4707548836 2.4796428127 -0.309534384
H 0.2615329076 0.624649052 1.9380054683
H -0.5285672716 -0.1937102677 0.5741576358
$end

$rem
JOBTYPE                   OPT
METHOD                    B3LYP
DFT_D                     d3_op
BASIS                     STO-3G
GEOM_OPT_MAX_CYCLES       100
GEOM_OPT_TOL_GRADIENT     300
GEOM_OPT_TOL_DISPLACEMENT 1200
GEOM_OPT_TOL_ENERGY       100
SYMMETRY                  False
THRESH                    12
SCF_CONVERGENCE           8
MAX_SUB_FILE_NUM          128
MEM_STATIC                400
MEM_TOTAL                 4000
$end
--------------------------------------------------------------

   16   -1510.2475590639      5.72E-09 Convergence criterion met
 Total energy in the final basis set = -1510.24755906
   15   -1510.2531315095      2.65E-09 Convergence criterion met
 Total energy in the final basis set = -1510.25313151
   14   -1510.2648835097      5.52E-09 Convergence criterion met
 Total energy in the final basis set = -1510.26488351
   14   -1510.2703449285      9.97E-09 Convergence criterion met
 Total energy in the final basis set = -1510.27034493
   14   -1510.2756129250      5.34E-09 Convergence criterion met
 Total energy in the final basis set = -1510.27561292
   13   -1510.2794800324      4.91E-09 Convergence criterion met
 Total energy in the final basis set = -1510.27948003
   13   -1510.2832159806      6.25E-09 Convergence criterion met
 Total energy in the final basis set = -1510.28321598
   13   -1510.2853747266      4.51E-09 Convergence criterion met
   12   -1510.3009263236      5.13E-09 Convergence criterion met
 Total energy in the final basis set = -1510.30092632
   12   -1510.3008550855      3.81E-09 Convergence criterion met
 Total energy in the final basis set = -1510.30085509
   12   -1510.3009330213      3.47E-09 Convergence criterion met
 Total energy in the final basis set = -1510.30093302
   11   -1510.3009264866      5.81E-09 Convergence criterion met
 Total energy in the final basis set = -1510.30092649
   10   -1510.3009338707      8.78E-09 Convergence criterion met
 Total energy in the final basis set = -1510.30093387
    9   -1510.3009310093      8.50E-09 Convergence criterion met
 Total energy in the final basis set = -1510.30093101

             Standard Nuclear Orientation (Angstroms)
    I     Atom           X                Y                Z
 ----------------------------------------------------------------
    1      O       3.4200684556    -1.3968220488     2.2385572720
    2      C       3.2125737052    -1.3172906480     1.0097944202
    3      C       4.1280080499    -0.6526971888    -0.0805346960
    4      C       3.3566858361     0.4038284501    -0.9805596037
    5      C       1.8490044918     0.5566452822    -0.5866575163
    6      O       1.7794897910     1.0226672589     0.7607105267
    7      C       0.3731950615     1.0815440972     1.2265893639
    8      C      -0.4265109725     2.3233388760     0.6548584521
    9      O      -1.6406396043     1.8975688622    -0.0856016296
   10      C      -2.6057341163     1.3630423436     0.8302807947
   11      C      -3.8543470906     0.8830221637     0.0066413611
   12      C      -3.6183173449    -0.4232074748    -0.8610443322
   13      C      -2.1850381270    -1.0407647579    -0.7353105599
   14      O      -1.4569955791    -1.0606119796     0.2885592174
   15      O       2.0620506479    -1.8399175986     0.3357046816
   16      O      -1.8585911070    -1.6406131553    -1.9790040318
   17      O      -2.4685566824     1.3538089379     2.0720875112
   18      C      -0.4738299396    -2.1796181297    -1.9624841851
   19      C      -5.0174197372     0.4031829226     0.9704319895
   20      C      -6.3630532347     0.3562557237     0.1476185318
   21      C      -6.1366410516    -0.9319820201    -0.7291350361
   22      C      -4.7117317381    -1.3958351879    -0.2272982212
   23      O      -4.7038846558    -1.0264744003     1.2038141747
   24      H      -4.1765366804     1.7165775611    -0.6437029226
   25      H      -3.8154590925    -0.2428130770    -1.9321607421
   26      H      -5.0563268819     0.9485498914     1.9331355618
   27      H      -7.2243642708     0.2364590411     0.8237992903
   28      H      -6.5129505227     1.2637911091    -0.4589460744
   29      H      -6.8904157858    -1.7059709262    -0.5138460308
   30      H      -6.1457715840    -0.7196357163    -1.8101105075
   31      H      -4.4953817317    -2.4744948167    -0.3543950144
   32      O       0.8500049090     0.3490142591    -1.3142543793
   33      C       1.0909664827    -2.4273092627     1.2913480323
   34      C       5.2443734688     0.2586371745     0.5737406955
   35      C       6.3377510383     0.5716453225    -0.5213767014
   36      C       5.5767938177     1.6179642464    -1.4190083470
   37      C       4.1922853101     1.7188912960    -0.6626947954
   38      O       4.5598045698     1.5594857906     0.7610984500
   39      H       4.5660453928    -1.4527986024    -0.7053452076
   40      H       3.4019048008     0.1355279090    -2.0504457376
   41      H       1.3270836939    -2.1019134381     2.3232480368
   42      H       5.6221843733    -0.1214888832     1.5428730077
   43      H       7.2334946442     1.0137568970    -0.0568033737
   44      H       6.6373205388    -0.3297447393    -1.0797462228
   45      H       6.0855911048     2.5949944087    -1.4215967387
   46      H       5.4566846820     1.2792147367    -2.4605463334
   47      H       3.6370914037     2.6644905133    -0.8169458770
   48      H       1.1437120010    -3.5334041072     1.2392153989
   49      H       0.0806125267    -2.0772963106     0.9846022410
   50      H      -0.3012151877    -2.5865201649    -2.9751181105
   51      H      -0.3646311406    -2.9893039389    -1.2144038068
   52      H       0.2463649864    -1.3558878042    -1.7446000761
   53      H      -0.6990624799     3.0141988050     1.4806607188
   54      H       0.1907100430     2.8715478022    -0.0851813053
   55      H       0.4384421371     1.1413904430     2.3298060091
   56      H      -0.1834506937     0.1609730170     0.9319059525
 ----------------------------------------------------------------

    9   -1510.3009330806      4.61E-09 Convergence criterion met
 Total energy in the final basis set = -1510.30093308
 Final energy is   -1510.30093308060
 **  OPTIMIZATION CONVERGED  **

                    Orbital Energies (a.u.)
 --------------------------------------------------------------

 Alpha MOs
 -- Occupied --
-18.942 -18.932 -18.927 -18.926 -18.889 -18.887 -18.883 -18.874
-18.874 -18.871 -10.109 -10.101 -10.097 -10.096 -10.066 -10.062
-10.060 -10.058 -10.057 -10.053 -10.049 -10.042 -10.040 -10.037
-10.037 -10.036 -10.021 -10.020 -10.020 -10.019  -1.018  -1.013
 -1.006  -1.002  -0.971  -0.969  -0.941  -0.936  -0.932  -0.931
 -0.764  -0.762  -0.726  -0.722  -0.710  -0.705  -0.690  -0.660
 -0.651  -0.615  -0.596  -0.582  -0.545  -0.545  -0.537  -0.536
 -0.514  -0.509  -0.478  -0.470  -0.463  -0.460  -0.453  -0.438
 -0.434  -0.430  -0.429  -0.419  -0.412  -0.406  -0.404  -0.399
 -0.384  -0.375  -0.368  -0.365  -0.363  -0.360  -0.352  -0.348
 -0.342  -0.339  -0.332  -0.331  -0.329  -0.325  -0.321  -0.311
 -0.308  -0.305  -0.304  -0.303  -0.291  -0.287  -0.281  -0.279
 -0.270  -0.258  -0.249  -0.244  -0.237  -0.235  -0.233  -0.191
 -0.178  -0.172  -0.161  -0.159  -0.156  -0.149  -0.148  -0.145
 -0.142

          Ground-State Mulliken Net Atomic Charges

     Atom                 Charge (a.u.)
  ----------------------------------------
      1 O                    -0.210322
      2 C                     0.214527
      3 C                    -0.077817
      4 C                    -0.079358
      5 C                     0.217800
      6 O                    -0.169148
      7 C                    -0.064053
      8 C                    -0.050032
      9 O                    -0.172649
     10 C                     0.211279
     11 C                    -0.079359
     12 C                    -0.077957
     13 C                     0.225637
     14 O                    -0.220689
     15 O                    -0.179319
     16 O                    -0.164110
     17 O                    -0.212057
     18 C                    -0.141283
     19 C                     0.025131
     20 C                    -0.144083
     21 C                    -0.143542
     22 C                     0.025699
     23 O                    -0.187138
     24 H                     0.085171
     25 H                     0.089020
     26 H                     0.090161
     27 H                     0.078474
     28 H                     0.073521
     29 H                     0.078393
     30 H                     0.074334
     31 H                     0.082740
     32 O                    -0.221922
     33 C                    -0.148092
     34 C                     0.024592
     35 C                    -0.144010
     36 C                    -0.143951
     37 C                     0.026266
     38 O                    -0.184998
     39 H                     0.083893
     40 H                     0.083512
     41 H                     0.095942
     42 H                     0.090722
     43 H                     0.078223
     44 H                     0.072781
     45 H                     0.077835
     46 H                     0.073071
     47 H                     0.081622
     48 H                     0.076796
     49 H                     0.108603
     50 H                     0.086186
     51 H                     0.082835
     52 H                     0.116242
     53 H                     0.088509
     54 H                     0.088957
     55 H                     0.093549
     56 H                     0.113867
  ----------------------------------------
  Sum of atomic charges =    -0.000000

                    Cartesian Multipole Moments
 -----------------------------------------------------------------
    Charge (ESU x 10^10)
                -0.0000
    Dipole Moment (Debye)
         X      -0.3094      Y      -0.0511      Z      -3.6300
       Tot       3.6435
    Quadrupole Moments (Debye-Ang)
        XX    -142.3022     XY      -3.4341     YY    -153.5654
        XZ      -3.7336     YZ       1.1993     ZZ    -168.5241

 Total job time:  100.34s(wall), 4780.48s(cpu)
        *  Thank you very much for using Q-Chem.  Have a nice day.  *
