 Q-Chem 5.0, Q-Chem, Inc., Pleasanton, CA (2017)
 Q-Chem 5.0.1 for Intel X86 EM64T Linux

User input:
--------------------------------------------------------------
$molecule
0  1
O -3.94934 -3.66094 2.70899
C -3.26408 -4.56952 2.26188
C -3.36658 -6.02376 2.66595
C -2.40867 -7.01244 1.98128
C -1.33566 -6.41165 1.10049
O -0.13147 -6.45106 1.74374
C 0.93852 -5.8978 0.97025
C 0.64991 -6.06093 -0.51845
O 1.72054 -6.7819 -1.1484
C 1.85866 -8.07487 -0.76333
C 2.27543 -8.21725 0.68121
C 3.68324 -7.69511 1.00324
C 4.31395 -6.80397 -0.04785
O 4.93787 -7.19243 -1.02478
O -2.13426 -4.0866 1.6835
O 4.15701 -5.46814 0.13776
O 2.0028 -8.95385 -1.60563
C 4.63911 -4.50112 -0.71852
C 1.76233 -8.41346 2.13736
C 2.50395 -9.52813 2.92032
C 3.82226 -8.82947 3.24834
C 3.61361 -7.48575 2.54053
O 2.24666 -7.28024 2.82553
H 2.42074 -9.31041 0.53576
H 4.39001 -8.55053 0.87426
H 0.69578 -8.63434 2.1245
H 1.96831 -9.72121 3.87682
H 2.60146 -10.48796 2.36887
H 3.85811 -8.636 4.34434
H 4.73983 -9.38141 2.95091
H 4.32203 -6.71216 2.90534
O -1.70883 -5.76236 0.12328
C -1.88091 -2.76812 1.35109
C -3.05394 -6.24302 4.15431
C -3.78571 -7.48504 4.64881
C -3.0117 -8.56318 3.92625
C -1.90566 -7.72138 3.26964
O -1.71217 -6.65582 4.16495
H -4.42505 -6.30029 2.45763
H -2.94694 -7.74546 1.34024
H -1.88795 -2.13146 2.26109
H -3.30219 -5.36886 4.79548
H -3.58259 -7.56768 5.74085
H -4.88376 -7.49485 4.47788
H -2.58752 -9.25432 4.6887
H -3.58878 -9.13993 3.17143
H -1.05182 -8.38283 3.11204
H -2.64383 -2.40496 0.62948
H -0.88117 -2.69946 0.87555
H 4.36777 -3.50002 -0.32538
H 4.18749 -4.62404 -1.72616
H 5.7456 -4.57023 -0.79044
H -0.16959 -6.67955 -0.93528
H 0.6251 -5.06193 -1.01084
H 1.96241 -5.74228 1.31846
H 0.73582 -4.80997 1.10214
$end

$opt
CONSTRAINT
tors           1           2           3           4    -180.000
tors           3           4           5           6    +104.211
tors           4           5           6           7    -180.000
tors           5           6           7           8     -28.421
tors           6           7           8           9    -123.158
tors           7           8           9          10     +66.316
tors           8           9          10          11     -66.316
tors           9          10          11          12     -66.316
tors          11          12          13          14     -85.263
ENDCONSTRAINT
$end

$rem
JOBTYPE                   OPT
METHOD                    B3LYP
DFT_D                     d3_op
BASIS                     STO-3G
GEOM_OPT_MAX_CYCLES       100
GEOM_OPT_TOL_GRADIENT     300
GEOM_OPT_TOL_DISPLACEMENT 1200
GEOM_OPT_TOL_ENERGY       100
SYMMETRY                  False
THRESH                    12
SCF_CONVERGENCE           8
MAX_SUB_FILE_NUM          128
MEM_STATIC                400
MEM_TOTAL                 4000
$end
--------------------------------------------------------------

   16   -1509.9771514579      3.20E-09 Convergence criterion met
 Total energy in the final basis set = -1509.97715146
   14   -1510.0645223109      7.58E-09 Convergence criterion met
 Total energy in the final basis set = -1510.06452231
   14   -1510.1201805394      8.31E-09 Convergence criterion met
 Total energy in the final basis set = -1510.12018054
   14   -1510.1570075250      6.55E-09 Convergence criterion met
 Total energy in the final basis set = -1510.15700752
   14   -1510.1819781836      5.65E-09 Convergence criterion met
 Total energy in the final basis set = -1510.18197818
   14   -1510.1995512535      4.20E-09 Convergence criterion met
 Total energy in the final basis set = -1510.19955125
   13   -1510.2126213395      4.78E-09 Convergence criterion met
 Total energy in the final basis set = -1510.21262134
   13   -1510.2231289057      5.11E-09 Convergence criterion met
   12   -1510.2469591401      3.62E-09 Convergence criterion met
 Total energy in the final basis set = -1510.24695914
   12   -1510.2471279200      3.72E-09 Convergence criterion met
 Total energy in the final basis set = -1510.24712792
   12   -1510.2471936386      3.64E-09 Convergence criterion met
 Total energy in the final basis set = -1510.24719364
   11   -1510.2472217646      4.65E-09 Convergence criterion met
 Total energy in the final basis set = -1510.24722176
   11   -1510.2472351013      3.66E-09 Convergence criterion met
 Total energy in the final basis set = -1510.24723510
    9   -1510.2472425145      7.62E-09 Convergence criterion met
 Total energy in the final basis set = -1510.24724251

             Standard Nuclear Orientation (Angstroms)
    I     Atom           X                Y                Z
 ----------------------------------------------------------------
    1      O      -5.1283555616     2.2004167824     0.8342207281
    2      C      -4.1477920928     1.6082871935     0.3321606448
    3      C      -4.1916999610     0.1950287315    -0.3545233619
    4      C      -2.8375446065    -0.3974138910    -0.9369000545
    5      C      -1.6276841840     0.6153818141    -1.0410550161
    6      O      -0.7234087852     0.3266526111     0.0184087038
    7      C       0.5138240741     1.1502647970     0.1425712802
    8      C       1.1290920473     1.7910219077    -1.1664144339
    9      O       2.5302094766     1.4788707100    -1.5150805616
   10      C       2.9006453732     0.1332325716    -1.8851466963
   11      C       2.8724797794    -1.1341018302    -0.9201009438
   12      C       3.9436492835    -1.0211538580     0.2547628338
   13      C       4.3866012527     0.4719150316     0.4707594742
   14      O       5.2860658474     1.0756575638    -0.1528694912
   15      O      -2.8137109994     2.1123217583     0.3869155838
   16      O       3.5211980785     1.0873532314     1.4296110259
   17      O       3.5020104442     0.0080768580    -2.9795115355
   18      C       3.7868091984     2.5429720410     1.4829649843
   19      C       1.5967875950    -1.6523231429    -0.1286374880
   20      C       1.7990377786    -3.1938189002     0.1323885308
   21      C       2.9286149940    -3.1727825032     1.2310314609
   22      C       3.1176519957    -1.6209378081     1.4609193764
   23      O       1.7528004056    -1.0846237148     1.2343726970
   24      H       3.1957771186    -1.9377824348    -1.6065543741
   25      H       4.8439961918    -1.6165020190     0.0216374757
   26      H       0.6123661705    -1.3555336671    -0.5407632781
   27      H       0.8684197237    -3.6366752149     0.5223715259
   28      H       2.0972640735    -3.7400108107    -0.7764440586
   29      H       2.5987011385    -3.6637722602     2.1601356425
   30      H       3.8592858100    -3.6530044620     0.8887946539
   31      H       3.4819781932    -1.3290506922     2.4644658504
   32      O      -1.4666753318     1.4145821037    -1.9938319034
   33      C      -2.7791306564     3.4323217599     1.0541083212
   34      C      -4.5251747856    -0.8957460883     0.7584245150
   35      C      -4.9572882529    -2.2427778278     0.0548484767
   36      C      -3.5657456381    -2.7979424507    -0.4259963722
   37      C      -2.6037867897    -1.6326934029     0.0349883652
   38      O      -3.1914275576    -1.1992606354     1.3230811694
   39      H      -4.9792518960     0.2294985706    -1.1295228508
   40      H      -3.0227826855    -0.7505403932    -1.9677313519
   41      H      -3.1378467301     3.3652308514     2.1014714230
   42      H      -5.2135391057    -0.5353742790     1.5478475274
   43      H      -5.4347994466    -2.9189341309     0.7816408724
   44      H      -5.6586278595    -2.0684744137    -0.7767473695
   45      H      -3.3074475948    -3.7365948174     0.0896400300
   46      H      -3.5253976518    -2.9681292033    -1.5136626320
   47      H      -1.5438190672    -1.9161376336     0.1730751593
   48      H      -3.3973330643     4.1776539876     0.5133587675
   49      H      -1.7202187836     3.7494079519     1.0423743607
   50      H       3.0759361202     2.9547449838     2.2226588514
   51      H       3.6136916286     3.0123781093     0.4927343252
   52      H       4.8261895087     2.7604366633     1.8027381395
   53      H       0.4329047347     1.5861370807    -2.0105027031
   54      H       1.1562934662     2.8902512638    -1.0290188569
   55      H       1.2365772593     0.4857141464     0.6811592320
   56      H       0.2579640713     1.9847418447     0.8307994169
 ----------------------------------------------------------------

    9   -1510.2472432413      6.16E-09 Convergence criterion met
 Total energy in the final basis set = -1510.24724324
 Final energy is   -1510.24724324134
 **  OPTIMIZATION CONVERGED  **

                    Orbital Energies (a.u.)
 --------------------------------------------------------------

 Alpha MOs
 -- Occupied --
-18.946 -18.937 -18.928 -18.912 -18.910 -18.888 -18.883 -18.877
-18.876 -18.864 -10.104 -10.104 -10.101 -10.101 -10.072 -10.071
-10.069 -10.064 -10.061 -10.059 -10.057 -10.045 -10.044 -10.041
-10.041 -10.035 -10.030 -10.029 -10.022 -10.021  -1.018  -1.014
 -1.003  -0.998  -0.986  -0.971  -0.940  -0.938  -0.934  -0.929
 -0.771  -0.763  -0.730  -0.725  -0.714  -0.710  -0.691  -0.667
 -0.663  -0.613  -0.601  -0.588  -0.557  -0.548  -0.546  -0.539
 -0.517  -0.511  -0.485  -0.483  -0.480  -0.462  -0.448  -0.438
 -0.436  -0.431  -0.423  -0.417  -0.416  -0.411  -0.409  -0.407
 -0.388  -0.383  -0.378  -0.369  -0.366  -0.358  -0.354  -0.350
 -0.348  -0.340  -0.337  -0.333  -0.331  -0.325  -0.324  -0.316
 -0.313  -0.310  -0.309  -0.302  -0.299  -0.299  -0.292  -0.286
 -0.276  -0.258  -0.250  -0.247  -0.239  -0.234  -0.216  -0.185
 -0.179  -0.178  -0.166  -0.162  -0.156  -0.152  -0.147  -0.144
 -0.134

          Ground-State Mulliken Net Atomic Charges

     Atom                 Charge (a.u.)
  ----------------------------------------
      1 O                    -0.214949
      2 C                     0.212345
      3 C                    -0.077808
      4 C                    -0.081238
      5 C                     0.222421
      6 O                    -0.175281
      7 C                    -0.079677
      8 C                    -0.064823
      9 O                    -0.187689
     10 C                     0.205151
     11 C                    -0.086264
     12 C                    -0.080699
     13 C                     0.206832
     14 O                    -0.207328
     15 O                    -0.165036
     16 O                    -0.169895
     17 O                    -0.185456
     18 C                    -0.128740
     19 C                     0.019164
     20 C                    -0.142066
     21 C                    -0.143496
     22 C                     0.027453
     23 O                    -0.182610
     24 H                     0.088254
     25 H                     0.088794
     26 H                     0.092184
     27 H                     0.079925
     28 H                     0.076898
     29 H                     0.080912
     30 H                     0.076474
     31 H                     0.090993
     32 O                    -0.226522
     33 C                    -0.124382
     34 C                     0.025028
     35 C                    -0.144433
     36 C                    -0.144142
     37 C                     0.024997
     38 O                    -0.188932
     39 H                     0.086546
     40 H                     0.081520
     41 H                     0.092955
     42 H                     0.085853
     43 H                     0.078354
     44 H                     0.074193
     45 H                     0.076707
     46 H                     0.072752
     47 H                     0.086791
     48 H                     0.092353
     49 H                     0.091322
     50 H                     0.089231
     51 H                     0.095310
     52 H                     0.089600
     53 H                     0.106871
     54 H                     0.085446
     55 H                     0.125537
     56 H                     0.072302
  ----------------------------------------
  Sum of atomic charges =     0.000000

                    Cartesian Multipole Moments
 -----------------------------------------------------------------
    Charge (ESU x 10^10)
                 0.0000
    Dipole Moment (Debye)
         X      -1.0107      Y      -2.2669      Z       1.9375
       Tot       3.1486
    Quadrupole Moments (Debye-Ang)
        XX    -170.3457     XY      -1.3232     YY    -146.6822
        XZ      16.8722     YZ       8.2349     ZZ    -169.6000

 Total job time:  68.92s(wall), 3285.11s(cpu)
        *  Thank you very much for using Q-Chem.  Have a nice day.  *
