 Q-Chem 5.0, Q-Chem, Inc., Pleasanton, CA (2017)
 Q-Chem 5.0.1 for Intel X86 EM64T Linux

User input:
--------------------------------------------------------------
$molecule
0  1
O -5.1283555616 2.2004167824 0.8342207281
C -4.1477920928 1.6082871935 0.3321606448
C -4.191699961 0.1950287315 -0.3545233619
C -2.8375446065 -0.397413891 -0.9369000545
C -1.627684184 0.6153818141 -1.0410550161
O -0.7234087852 0.3266526111 0.0184087038
C 0.5138240741 1.150264797 0.1425712802
C 1.1290920473 1.7910219077 -1.1664144339
O 2.5302094766 1.47887071 -1.5150805616
C 2.9006453732 0.1332325716 -1.8851466963
C 2.8724797794 -1.1341018302 -0.9201009438
C 3.9436492835 -1.021153858 0.2547628338
C 4.3866012527 0.4719150316 0.4707594742
O 5.2860658474 1.0756575638 -0.1528694912
O -2.8137109994 2.1123217583 0.3869155838
O 3.5211980785 1.0873532314 1.4296110259
O 3.5020104442 0.008076858 -2.9795115355
C 3.7868091984 2.542972041 1.4829649843
C 1.596787595 -1.6523231429 -0.128637488
C 1.7990377786 -3.1938189002 0.1323885308
C 2.928614994 -3.1727825032 1.2310314609
C 3.1176519957 -1.6209378081 1.4609193764
O 1.7528004056 -1.0846237148 1.234372697
H 3.1957771186 -1.9377824348 -1.6065543741
H 4.8439961918 -1.616502019 0.0216374757
H 0.6123661705 -1.3555336671 -0.5407632781
H 0.8684197237 -3.6366752149 0.5223715259
H 2.0972640735 -3.7400108107 -0.7764440586
H 2.5987011385 -3.6637722602 2.1601356425
H 3.85928581 -3.653004462 0.8887946539
H 3.4819781932 -1.3290506922 2.4644658504
O -1.4666753318 1.4145821037 -1.9938319034
C -2.7791306564 3.4323217599 1.0541083212
C -4.5251747856 -0.8957460883 0.758424515
C -4.9572882529 -2.2427778278 0.0548484767
C -3.5657456381 -2.7979424507 -0.4259963722
C -2.6037867897 -1.6326934029 0.0349883652
O -3.1914275576 -1.1992606354 1.3230811694
H -4.979251896 0.2294985706 -1.1295228508
H -3.0227826855 -0.7505403932 -1.9677313519
H -3.1378467301 3.3652308514 2.101471423
H -5.2135391057 -0.535374279 1.5478475274
H -5.4347994466 -2.9189341309 0.7816408724
H -5.6586278595 -2.0684744137 -0.7767473695
H -3.3074475948 -3.7365948174 0.08964003
H -3.5253976518 -2.9681292033 -1.513662632
H -1.5438190672 -1.9161376336 0.1730751593
H -3.3973330643 4.1776539876 0.5133587675
H -1.7202187836 3.7494079519 1.0423743607
H 3.0759361202 2.9547449838 2.2226588514
H 3.6136916286 3.0123781093 0.4927343252
H 4.8261895087 2.7604366633 1.8027381395
H 0.4329047347 1.5861370807 -2.0105027031
H 1.1562934662 2.8902512638 -1.0290188569
H 1.2365772593 0.4857141464 0.681159232
H 0.2579640713 1.9847418447 0.8307994169
$end

$rem
JOBTYPE                   OPT
METHOD                    B3LYP
DFT_D                     d3_op
BASIS                     STO-3G
GEOM_OPT_MAX_CYCLES       100
GEOM_OPT_TOL_GRADIENT     300
GEOM_OPT_TOL_DISPLACEMENT 1200
GEOM_OPT_TOL_ENERGY       100
SYMMETRY                  False
THRESH                    12
SCF_CONVERGENCE           8
MAX_SUB_FILE_NUM          128
MEM_STATIC                400
MEM_TOTAL                 4000
$end
--------------------------------------------------------------

   16   -1510.2471722355      4.41E-09 Convergence criterion met
 Total energy in the final basis set = -1510.24717224
   15   -1510.2484682616      3.59E-09 Convergence criterion met
 Total energy in the final basis set = -1510.24846826
   14   -1510.2495482937      6.64E-09 Convergence criterion met
 Total energy in the final basis set = -1510.24954829
   15   -1510.2493770737      2.52E-09 Convergence criterion met
 Total energy in the final basis set = -1510.24937707
   14   -1510.2540054049      7.59E-09 Convergence criterion met
 Total energy in the final basis set = -1510.25400540
   14   -1510.2566881439      9.16E-09 Convergence criterion met
 Total energy in the final basis set = -1510.25668814
   13   -1510.2595067794      6.54E-09 Convergence criterion met
 Total energy in the final basis set = -1510.25950678
   14   -1510.2606551514      3.77E-09 Convergence criterion met
   13   -1510.3016531555      3.92E-09 Convergence criterion met
 Total energy in the final basis set = -1510.30165316
   12   -1510.3017645289      3.39E-09 Convergence criterion met
 Total energy in the final basis set = -1510.30176453
   12   -1510.3018054154      3.41E-09 Convergence criterion met
 Total energy in the final basis set = -1510.30180542
   11   -1510.3018286856      7.34E-09 Convergence criterion met
 Total energy in the final basis set = -1510.30182869
   11   -1510.3018373590      7.22E-09 Convergence criterion met
 Total energy in the final basis set = -1510.30183736
   11   -1510.3018403559      2.57E-09 Convergence criterion met
 Total energy in the final basis set = -1510.30184036

             Standard Nuclear Orientation (Angstroms)
    I     Atom           X                Y                Z
 ----------------------------------------------------------------
    1      O      -5.0456884901     2.2328536291    -0.2601502682
    2      C      -3.9618661994     1.7260576644     0.1011686467
    3      C      -3.5586586182     0.2162367042     0.0531401922
    4      C      -2.1461111829    -0.0644766640    -0.6247239406
    5      C      -1.4092938988     1.2541508256    -1.0661748390
    6      O      -0.3346876528     1.5392744107    -0.1586392972
    7      C       0.4325828275     2.7129761147    -0.6241967177
    8      C       1.4795146140     2.2924779152    -1.7197677042
    9      O       2.3020481452     1.1447528536    -1.2597897669
   10      C       1.6679741618    -0.0911927050    -1.6002700010
   11      C       2.5934482678    -1.2845299263    -1.1739821281
   12      C       3.1617040730    -1.2470742529     0.3076792507
   13      C       2.7037284767    -0.0282618133     1.1855284698
   14      O       3.4235480404     0.8795738448     1.6544351944
   15      O      -2.8689298767     2.4760345787     0.6479426353
   16      O       1.3060883281    -0.1676811527     1.4411718251
   17      O       0.5833554673    -0.1911708922    -2.2156400623
   18      C       0.8243324725     0.8369667122     2.4182102275
   19      C       1.7648441247    -2.6351233681    -1.1573920148
   20      C       2.7738780355    -3.8450938564    -1.2190550293
   21      C       3.3627206449    -3.8185646294     0.2406841435
   22      C       2.5644252681    -2.6106295345     0.8735626381
   23      O       1.2358493666    -2.6931609797     0.2250864215
   24      H       3.4275246365    -1.3317484052    -1.8991212123
   25      H       4.2656825032    -1.2536888691     0.3015682662
   26      H       0.9342603297    -2.6505598474    -1.8900879525
   27      H       2.2372997804    -4.7858332872    -1.4210553462
   28      H       3.5447745573    -3.7038129093    -1.9931071458
   29      H       3.1407125349    -4.7511498364     0.7834726948
   30      H       4.4515431615    -3.6508674121     0.2586156754
   31      H       2.4591223959    -2.6412933310     1.9751713833
   32      O      -1.6866650904     1.9624137839    -2.0584311939
   33      C      -3.1734969786     3.9235101479     0.6102162431
   34      C      -3.3187023103    -0.4015292501     1.5035841646
   35      C      -3.4065686076    -1.9731116568     1.3823561720
   36      C      -2.0527647689    -2.2920082809     0.6451590129
   37      C      -1.4075282933    -0.8567193391     0.5288866641
   38      O      -1.8818434930    -0.1649093903     1.7535371577
   39      H      -4.3670966321    -0.3182254691    -0.4760421645
   40      H      -2.2701002535    -0.6816706673    -1.5330232212
   41      H      -4.1088121135     4.1603472770     1.1568439811
   42      H      -3.9363696091     0.0482063297     2.3052567470
   43      H      -3.4408217798    -2.4309733888     2.3840852114
   44      H      -4.2922940369    -2.2999199536     0.8147277584
   45      H      -1.4036078150    -2.9513150843     1.2425251064
   46      H      -2.2073768320    -2.7541767271    -0.3426032392
   47      H      -0.2959947383    -0.8421429224     0.5003547776
   48      H      -3.2724410611     4.2867974305    -0.4335341010
   49      H      -2.3189786216     4.4276494180     1.0978575415
   50      H      -0.2839606804     0.7616260521     2.3837729383
   51      H       1.1574040512     1.8580817702     2.1506421212
   52      H       1.1987384878     0.5978218619     3.4347579797
   53      H       0.9439132246     2.0275316601    -2.6557432917
   54      H       2.1852305149     3.1265890045    -1.9076185714
   55      H       0.9535040859     3.1102692531     0.2691519373
   56      H      -0.2399416007     3.4893591459    -1.0487548837
 ----------------------------------------------------------------

    9   -1510.3018404350      9.08E-09 Convergence criterion met
 Total energy in the final basis set = -1510.30184043
 Final energy is   -1510.30184043499
 **  OPTIMIZATION CONVERGED  **

                    Orbital Energies (a.u.)
 --------------------------------------------------------------

 Alpha MOs
 -- Occupied --
-18.940 -18.933 -18.927 -18.925 -18.890 -18.881 -18.879 -18.873
-18.867 -18.860 -10.105 -10.095 -10.094 -10.093 -10.073 -10.070
-10.063 -10.061 -10.059 -10.056 -10.040 -10.040 -10.037 -10.036
-10.031 -10.027 -10.022 -10.021 -10.013 -10.006  -1.020  -1.010
 -1.002  -0.999  -0.972  -0.962  -0.943  -0.934  -0.929  -0.926
 -0.764  -0.755  -0.727  -0.717  -0.710  -0.704  -0.691  -0.658
 -0.647  -0.616  -0.595  -0.580  -0.545  -0.539  -0.538  -0.527
 -0.511  -0.505  -0.485  -0.474  -0.470  -0.461  -0.443  -0.435
 -0.428  -0.423  -0.420  -0.417  -0.411  -0.405  -0.401  -0.396
 -0.391  -0.378  -0.369  -0.362  -0.360  -0.353  -0.346  -0.343
 -0.342  -0.338  -0.337  -0.333  -0.325  -0.322  -0.314  -0.311
 -0.306  -0.298  -0.297  -0.294  -0.293  -0.287  -0.284  -0.273
 -0.271  -0.253  -0.248  -0.244  -0.242  -0.236  -0.219  -0.189
 -0.174  -0.168  -0.163  -0.158  -0.152  -0.147  -0.143  -0.142
 -0.137

          Ground-State Mulliken Net Atomic Charges

     Atom                 Charge (a.u.)
  ----------------------------------------
      1 O                    -0.211356
      2 C                     0.208263
      3 C                    -0.080671
      4 C                    -0.077265
      5 C                     0.221164
      6 O                    -0.169194
      7 C                    -0.049588
      8 C                    -0.053437
      9 O                    -0.169715
     10 C                     0.214986
     11 C                    -0.078706
     12 C                    -0.079521
     13 C                     0.211629
     14 O                    -0.215062
     15 O                    -0.167936
     16 O                    -0.170625
     17 O                    -0.216207
     18 C                    -0.134979
     19 C                     0.023306
     20 C                    -0.143969
     21 C                    -0.144303
     22 C                     0.026488
     23 O                    -0.188553
     24 H                     0.085342
     25 H                     0.084396
     26 H                     0.089856
     27 H                     0.078070
     28 H                     0.073600
     29 H                     0.077874
     30 H                     0.074141
     31 H                     0.083901
     32 O                    -0.225795
     33 C                    -0.128619
     34 C                     0.027144
     35 C                    -0.143681
     36 C                    -0.143986
     37 C                     0.016059
     38 O                    -0.194573
     39 H                     0.084883
     40 H                     0.088005
     41 H                     0.090316
     42 H                     0.080219
     43 H                     0.075631
     44 H                     0.072236
     45 H                     0.081903
     46 H                     0.071458
     47 H                     0.116344
     48 H                     0.089968
     49 H                     0.089298
     50 H                     0.120233
     51 H                     0.082447
     52 H                     0.076658
     53 H                     0.099624
     54 H                     0.090502
     55 H                     0.087957
     56 H                     0.093840
  ----------------------------------------
  Sum of atomic charges =    -0.000000

                    Cartesian Multipole Moments
 -----------------------------------------------------------------
    Charge (ESU x 10^10)
                -0.0000
    Dipole Moment (Debye)
         X       1.6912      Y      -1.1315      Z       0.0733
       Tot       2.0361
    Quadrupole Moments (Debye-Ang)
        XX    -164.3901     XY      -1.8815     YY    -146.7633
        XZ     -10.2303     YZ       2.2469     ZZ    -161.1384

 Total job time:  256.40s(wall), 12223.74s(cpu)
        *  Thank you very much for using Q-Chem.  Have a nice day.  *
