 Q-Chem 5.0, Q-Chem, Inc., Pleasanton, CA (2017)
 Q-Chem 5.0.1 for Intel X86 EM64T Linux

User input:
--------------------------------------------------------------
$molecule
0  1
O -1.7911577855 1.1579180457 1.7103298329
C -2.8816038594 1.3248311958 1.1260061905
C -4.0025217918 0.2534102722 0.8619057119
C -4.1233398944 -0.3121682029 -0.6180328189
C -3.1403143612 0.2319827838 -1.710749675
O -2.0247497474 0.8796716203 -1.1039972811
C -0.9631795821 1.1623198979 -2.097315231
C 0.3730075885 1.3527328748 -1.2820994188
O 0.2435465026 0.5594122811 -0.0412395805
C 1.3953128907 -0.2613924211 0.2603047633
C 2.7707720342 0.495933079 0.5166937295
C 3.9253535267 -0.4745442315 0.9815709921
C 3.9785480415 -1.8682740718 0.2467401415
O 4.7554169942 -2.8076214383 0.5274019892
O -3.3547886725 2.5923668914 0.6395321494
O 3.2193920465 -1.8121608168 -0.965891251
O 1.1886090545 -1.4347556153 0.6360484404
C 3.3705974152 -3.0759521542 -1.7191133916
C 3.5517095429 1.408712249 -0.5451719169
C 4.2188785811 2.5653449937 0.2967806164
C 5.2942561894 1.7448411438 1.1031995999
C 5.1823122834 0.3228161951 0.4207251467
O 4.7273458239 0.6134830336 -0.9622495326
H 2.51680491 1.1506337372 1.3737549288
H 3.9494799839 -0.6271848569 2.074612967
H 2.9883458461 1.7429040464 -1.4334971026
H 4.6965154497 3.2971752011 -0.3746101153
H 3.500975537 3.0916230498 0.9458386775
H 6.3063116164 2.1595983052 0.9749214542
H 5.0675037975 1.696628868 2.1804547742
H 6.1195984638 -0.266765168 0.4053944405
O -3.2576881856 0.0662935319 -2.9455536208
C -2.2991986189 3.6125206646 0.8148183878
C -3.6765452706 -1.0784748211 1.6627892461
C -4.9955273284 -1.9368118381 1.7827601535
C -5.1288354275 -2.491355645 0.3161152276
C -3.8478891299 -1.8638165102 -0.3638417363
O -2.8418281452 -1.8565994654 0.717594574
H -4.9688573791 0.6899307866 1.172646858
H -5.1470671159 -0.1644577599 -1.0071216641
H -1.3819776896 3.3444934636 0.2517219956
H -3.1241158408 -0.9086787316 2.6071173239
H -4.8589900425 -2.7521345918 2.5108856754
H -5.8622364821 -1.3303643744 2.0906155397
H -5.0743822441 -3.5914223594 0.2921154933
H -6.0602317032 -2.1724586357 -0.178403794
H -3.4704086161 -2.4102931595 -1.2500656357
H -2.0265179138 3.7453839131 1.8820199975
H -2.713899022 4.5580145719 0.4192582805
H 2.8088939142 -2.9373035174 -2.6612414191
H 2.9470377968 -3.9354234608 -1.1602701705
H 4.4346827471 -3.291538067 -1.9463737454
H 1.2163787791 1.027879727 -1.9221920834
H 0.5152649086 2.4271920403 -1.0278640056
H -1.1987405312 2.0782568379 -2.6834265437
H -0.8782517717 0.3117296096 -2.8064017406
$end

$rem
JOBTYPE                   OPT
METHOD                    B3LYP
DFT_D                     d3_op
BASIS                     STO-3G
GEOM_OPT_MAX_CYCLES       100
GEOM_OPT_TOL_GRADIENT     300
GEOM_OPT_TOL_DISPLACEMENT 1200
GEOM_OPT_TOL_ENERGY       100
SYMMETRY                  False
THRESH                    12
SCF_CONVERGENCE           8
MAX_SUB_FILE_NUM          128
MEM_STATIC                400
MEM_TOTAL                 4000
$end
--------------------------------------------------------------

   16   -1510.2446778087      5.55E-09 Convergence criterion met
 Total energy in the final basis set = -1510.24467781
   13   -1510.2473743373      8.98E-09 Convergence criterion met
 Total energy in the final basis set = -1510.24737434
   13   -1510.2496044461      5.49E-09 Convergence criterion met
 Total energy in the final basis set = -1510.24960445
   13   -1510.2517782785      5.81E-09 Convergence criterion met
 Total energy in the final basis set = -1510.25177828
   13   -1510.2539273700      4.89E-09 Convergence criterion met
 Total energy in the final basis set = -1510.25392737
   13   -1510.2560857011      4.76E-09 Convergence criterion met
 Total energy in the final basis set = -1510.25608570
   13   -1510.2582064410      4.24E-09 Convergence criterion met
 Total energy in the final basis set = -1510.25820644
   13   -1510.2603639377      5.66E-09 Convergence criterion met
   12   -1510.2892250871      2.30E-09 Convergence criterion met
 Total energy in the final basis set = -1510.28922509
   11   -1510.2892377489      7.78E-09 Convergence criterion met
 Total energy in the final basis set = -1510.28923775
   11   -1510.2892400573      8.60E-09 Convergence criterion met
 Total energy in the final basis set = -1510.28924006
   11   -1510.2892438816      7.79E-09 Convergence criterion met
 Total energy in the final basis set = -1510.28924388
   11   -1510.2892512890      5.72E-09 Convergence criterion met
 Total energy in the final basis set = -1510.28925129
    9   -1510.2892524985      8.11E-09 Convergence criterion met
 Total energy in the final basis set = -1510.28925250

             Standard Nuclear Orientation (Angstroms)
    I     Atom           X                Y                Z
 ----------------------------------------------------------------
    1      O      -0.5887743313     2.0479970092     0.9976316170
    2      C      -1.8061626725     1.8076858936     0.8224096244
    3      C      -2.5866041120     0.4869000321     1.1634975641
    4      C      -3.1988515303    -0.2308296521    -0.1149524618
    5      C      -2.9320342396     0.5320964067    -1.4507962848
    6      O      -1.5303257220     0.8296463714    -1.4996196477
    7      C      -1.1741015413     1.5117356706    -2.7631854195
    8      C       0.3918737557     1.5919830246    -2.7797929614
    9      O       0.9729638673     0.2404167417    -2.8873122837
   10      C       1.1177975668    -0.4720444126    -1.6366015015
   11      C       1.4668207386     0.3364520458    -0.3346592270
   12      C       1.9250579136    -0.5988789949     0.8607324719
   13      C       1.9760058994    -2.1365524811     0.5352475059
   14      O       1.1724338275    -3.0063465245     0.9362865825
   15      O      -2.7349445100     2.7579177588     0.2949268573
   16      O       3.1954419907    -2.4260422720    -0.1681957023
   17      O       1.0734464005    -1.7210277455    -1.7035869105
   18      C       3.2252985433    -3.8575729527    -0.5351391962
   19      C       2.7528090846     1.2660682017    -0.4921925386
   20      C       2.7144474278     2.3127658567     0.6913416539
   21      C       3.1436801099     1.4047208368     1.9025103749
   22      C       3.3528667520     0.0105731926     1.1862101453
   23      O       3.8833900058     0.3803950182    -0.1446087355
   24      H       0.5864603060     0.9281466719    -0.0067369180
   25      H       1.2400752968    -0.4768709707     1.7155534992
   26      H       2.9080745557     1.6921389145    -1.5015910719
   27      H       3.4362971641     3.1264668829     0.5172425303
   28      H       1.7075675991     2.7414040381     0.8242574486
   29      H       4.0856623362     1.7527866632     2.3554810693
   30      H       2.3704137105     1.3533773193     2.6856379087
   31      H       4.0456245853    -0.6839979305     1.6988344329
   32      O      -3.7417362367     0.8215528082    -2.3561695308
   33      C      -2.0327605918     4.0150644961    -0.0527961708
   34      C      -1.5947873625    -0.6270530497     1.6913403502
   35      C      -2.4310937453    -1.7953976082     2.3420647433
   36      C      -3.0013030361    -2.5115195189     1.0623103473
   37      C      -2.3970552185    -1.6109968966    -0.0832946852
   38      O      -1.0716275902    -1.2194443711     0.4384943097
   39      H      -3.3789601608     0.7275117268     1.8956228145
   40      H      -4.2874372475    -0.3838529732    -0.0154149833
   41      H      -1.1810887923     3.8292703478    -0.7376563930
   42      H      -0.7664851369    -0.2309723115     2.3084980649
   43      H      -1.7689399486    -2.4630740630     2.9156112696
   44      H      -3.2232782973    -1.4180875187     3.0086691862
   45      H      -2.6215131628    -3.5418085427     0.9749171345
   46      H      -4.1026410826    -2.5333092103     1.0386746539
   47      H      -2.2930097852    -2.1043156153    -1.0691463821
   48      H      -1.6492792579     4.5294253785     0.8520674102
   49      H      -2.7819458318     4.6558300651    -0.5528731154
   50      H       4.2013562771    -4.0297865225    -1.0250277875
   51      H       2.4069886197    -4.1067528748    -1.2416996192
   52      H       3.1342453447    -4.5139386722     0.3547497927
   53      H       0.7139049532     2.1370821969    -3.6916626932
   54      H       0.7391415945     2.1554920417    -1.8913701760
   55      H      -1.6179916960     2.5312025373    -2.8068757734
   56      H      -1.5418254660     0.9348374483    -3.6388760210
 ----------------------------------------------------------------

    9   -1510.2892519061      2.36E-09 Convergence criterion met
 Total energy in the final basis set = -1510.28925191
 Final energy is   -1510.28925190614
 **  OPTIMIZATION CONVERGED  **

                    Orbital Energies (a.u.)
 --------------------------------------------------------------

 Alpha MOs
 -- Occupied --
-18.951 -18.942 -18.923 -18.903 -18.891 -18.890 -18.886 -18.877
-18.876 -18.840 -10.117 -10.108 -10.095 -10.083 -10.081 -10.079
-10.073 -10.062 -10.062 -10.049 -10.047 -10.046 -10.043 -10.040
-10.020 -10.019 -10.017 -10.016 -10.010 -10.008  -1.030  -1.019
 -1.000  -0.980  -0.973  -0.959  -0.951  -0.948  -0.931  -0.906
 -0.769  -0.748  -0.731  -0.718  -0.708  -0.704  -0.693  -0.676
 -0.638  -0.616  -0.593  -0.584  -0.551  -0.540  -0.533  -0.528
 -0.521  -0.507  -0.494  -0.475  -0.473  -0.453  -0.451  -0.441
 -0.433  -0.429  -0.423  -0.419  -0.412  -0.409  -0.397  -0.395
 -0.388  -0.387  -0.382  -0.368  -0.364  -0.360  -0.353  -0.351
 -0.336  -0.332  -0.330  -0.324  -0.320  -0.318  -0.315  -0.310
 -0.307  -0.307  -0.300  -0.299  -0.297  -0.282  -0.280  -0.269
 -0.265  -0.260  -0.255  -0.238  -0.234  -0.228  -0.222  -0.192
 -0.188  -0.171  -0.168  -0.159  -0.148  -0.144  -0.142  -0.132
 -0.122

          Ground-State Mulliken Net Atomic Charges

     Atom                 Charge (a.u.)
  ----------------------------------------
      1 O                    -0.221575
      2 C                     0.222215
      3 C                    -0.078617
      4 C                    -0.079810
      5 C                     0.212812
      6 O                    -0.178923
      7 C                    -0.049064
      8 C                    -0.046695
      9 O                    -0.176303
     10 C                     0.222662
     11 C                    -0.092847
     12 C                    -0.076813
     13 C                     0.216839
     14 O                    -0.223425
     15 O                    -0.168905
     16 O                    -0.172919
     17 O                    -0.190521
     18 C                    -0.127612
     19 C                     0.019706
     20 C                    -0.147578
     21 C                    -0.143693
     22 C                     0.025788
     23 O                    -0.188195
     24 H                     0.105279
     25 H                     0.079296
     26 H                     0.076437
     27 H                     0.071957
     28 H                     0.080458
     29 H                     0.074063
     30 H                     0.072428
     31 H                     0.082855
     32 O                    -0.207907
     33 C                    -0.128266
     34 C                     0.026129
     35 C                    -0.143176
     36 C                    -0.142478
     37 C                     0.028128
     38 O                    -0.180531
     39 H                     0.087018
     40 H                     0.087341
     41 H                     0.086633
     42 H                     0.084764
     43 H                     0.084293
     44 H                     0.071907
     45 H                     0.084607
     46 H                     0.073158
     47 H                     0.088017
     48 H                     0.090359
     49 H                     0.094443
     50 H                     0.084440
     51 H                     0.090350
     52 H                     0.082448
     53 H                     0.090928
     54 H                     0.087847
     55 H                     0.084140
     56 H                     0.096107
  ----------------------------------------
  Sum of atomic charges =     0.000000

                    Cartesian Multipole Moments
 -----------------------------------------------------------------
    Charge (ESU x 10^10)
                 0.0000
    Dipole Moment (Debye)
         X      -2.3655      Y       3.5707      Z       1.5999
       Tot       4.5722
    Quadrupole Moments (Debye-Ang)
        XX    -165.5679     XY       2.0136     YY    -150.4643
        XZ      -3.1118     YZ      -4.4352     ZZ    -157.4812

 Total job time:  132.08s(wall), 6299.49s(cpu)
        *  Thank you very much for using Q-Chem.  Have a nice day.  *
