 Q-Chem 5.0, Q-Chem, Inc., Pleasanton, CA (2017)
 Q-Chem 5.0.1 for Intel X86 EM64T Linux

User input:
--------------------------------------------------------------
$molecule
0  1
O -3.94934 -3.66094 2.70899
C -3.26408 -4.56952 2.26188
C -3.36658 -6.02376 2.66595
C -2.26786 -6.57564 3.58903
C -1.288 -5.56813 4.1484
O -1.79612 -4.30675 4.02128
C -1.05219 -3.32396 4.74926
C -1.91361 -2.09006 4.99738
O -3.30032 -2.46172 5.03963
C -4.0095 -1.95117 6.07672
C -4.06716 -0.44215 6.06379
C -4.97557 0.18013 7.13423
C -5.39825 -0.74243 8.2598
O -6.18426 -0.45818 9.15196
O -2.29792 -4.27657 1.35043
O -4.47564 -1.6797 8.62834
O -5.00438 -2.59475 6.37952
C -4.55491 -2.48778 9.74537
C -2.83572 0.5125 6.26479
C -3.14045 1.90631 5.68637
C -4.05123 2.47187 6.74388
C -4.09579 1.29647 7.70918
O -2.80206 0.75228 7.64724
H -4.48592 -0.20907 5.05817
H -5.92583 0.57146 6.70626
H -1.87347 0.27692 5.79619
H -2.20614 2.51421 5.68503
H -3.55723 1.88561 4.65629
H -3.53604 3.3237 7.24266
H -5.05402 2.79389 6.38865
H -4.43207 1.6404 8.7126
O -0.31392 -5.87449 4.82642
C -2.03849 -3.00851 0.87432
C -4.59638 -6.28347 3.57168
C -4.99416 -7.75836 3.5096
C -3.86938 -8.38789 4.30288
C -3.10882 -7.13442 4.74439
O -4.10989 -6.15787 4.88578
H -3.50379 -6.61141 1.73068
H -1.6584 -7.34379 3.06391
H -1.74317 -2.33867 1.70951
H -5.47461 -5.65166 3.31384
H -5.93835 -7.8684 4.08995
H -5.1438 -8.16749 2.48733
H -4.3074 -8.90716 5.18417
H -3.21906 -9.08685 3.73338
H -2.5003 -7.34704 5.65112
H -2.93705 -2.59973 0.36476
H -1.2044 -3.05757 0.14483
H -3.6687 -3.15424 9.77426
H -5.47225 -3.11253 9.69913
H -4.56518 -1.86926 10.66814
H -1.51233 -1.6738 5.94215
H -1.78721 -1.41557 4.12381
H -0.05656 -3.09603 4.30957
H -0.88835 -3.73139 5.77708
$end

$opt
CONSTRAINT
tors           1           2           3           4    -104.632
tors           3           4           5           6     +17.085
tors           4           5           6           7    +168.832
tors           5           6           7           8    -159.159
tors           6           7           8           9     +27.635
tors           7           8           9          10    +132.902
tors           8           9          10          11     +62.070
tors           9          10          11          12    +174.085
tors          11          12          13          14    -174.984
ENDCONSTRAINT
$end

$rem
JOBTYPE                   OPT
METHOD                    B3LYP
DFT_D                     d3_op
BASIS                     STO-3G
GEOM_OPT_MAX_CYCLES       100
GEOM_OPT_TOL_GRADIENT     300
GEOM_OPT_TOL_DISPLACEMENT 1200
GEOM_OPT_TOL_ENERGY       100
SYMMETRY                  False
THRESH                    12
SCF_CONVERGENCE           8
MAX_SUB_FILE_NUM          128
MEM_STATIC                400
MEM_TOTAL                 4000
$end
--------------------------------------------------------------

   16   -1510.0890810773      3.21E-09 Convergence criterion met
 Total energy in the final basis set = -1510.08908108
   14   -1510.1640755418      7.23E-09 Convergence criterion met
 Total energy in the final basis set = -1510.16407554
   14   -1510.2040958342      8.89E-09 Convergence criterion met
 Total energy in the final basis set = -1510.20409583
   14   -1510.2245438454      2.69E-09 Convergence criterion met
 Total energy in the final basis set = -1510.22454385
   13   -1510.2340944210      8.95E-09 Convergence criterion met
 Total energy in the final basis set = -1510.23409442
   13   -1510.2383984751      5.55E-09 Convergence criterion met
 Total energy in the final basis set = -1510.23839848
   12   -1510.2406703577      9.81E-09 Convergence criterion met
 Total energy in the final basis set = -1510.24067036
   12   -1510.2418366681      8.90E-09 Convergence criterion met
   11   -1510.2445189391      9.70E-09 Convergence criterion met
 Total energy in the final basis set = -1510.24451894
   11   -1510.2445898282      6.79E-09 Convergence criterion met
 Total energy in the final basis set = -1510.24458983
   10   -1510.2446296812      4.76E-09 Convergence criterion met
 Total energy in the final basis set = -1510.24462968
   11   -1510.2446666354      3.11E-09 Convergence criterion met
 Total energy in the final basis set = -1510.24466664
   11   -1510.2446853148      3.13E-09 Convergence criterion met
 Total energy in the final basis set = -1510.24468531
    9   -1510.2446902418      7.85E-09 Convergence criterion met
 Total energy in the final basis set = -1510.24469024

             Standard Nuclear Orientation (Angstroms)
    I     Atom           X                Y                Z
 ----------------------------------------------------------------
    1      O      -1.7911577855     1.1579180457     1.7103298329
    2      C      -2.8816038594     1.3248311958     1.1260061905
    3      C      -4.0025217918     0.2534102722     0.8619057119
    4      C      -4.1233398944    -0.3121682029    -0.6180328189
    5      C      -3.1403143612     0.2319827838    -1.7107496750
    6      O      -2.0247497474     0.8796716203    -1.1039972811
    7      C      -0.9631795821     1.1623198979    -2.0973152310
    8      C       0.3730075885     1.3527328748    -1.2820994188
    9      O       0.2435465026     0.5594122811    -0.0412395805
   10      C       1.3953128907    -0.2613924211     0.2603047633
   11      C       2.7707720342     0.4959330790     0.5166937295
   12      C       3.9253535267    -0.4745442315     0.9815709921
   13      C       3.9785480415    -1.8682740718     0.2467401415
   14      O       4.7554169942    -2.8076214383     0.5274019892
   15      O      -3.3547886725     2.5923668914     0.6395321494
   16      O       3.2193920465    -1.8121608168    -0.9658912510
   17      O       1.1886090545    -1.4347556153     0.6360484404
   18      C       3.3705974152    -3.0759521542    -1.7191133916
   19      C       3.5517095429     1.4087122490    -0.5451719169
   20      C       4.2188785811     2.5653449937     0.2967806164
   21      C       5.2942561894     1.7448411438     1.1031995999
   22      C       5.1823122834     0.3228161951     0.4207251467
   23      O       4.7273458239     0.6134830336    -0.9622495326
   24      H       2.5168049100     1.1506337372     1.3737549288
   25      H       3.9494799839    -0.6271848569     2.0746129670
   26      H       2.9883458461     1.7429040464    -1.4334971026
   27      H       4.6965154497     3.2971752011    -0.3746101153
   28      H       3.5009755370     3.0916230498     0.9458386775
   29      H       6.3063116164     2.1595983052     0.9749214542
   30      H       5.0675037975     1.6966288680     2.1804547742
   31      H       6.1195984638    -0.2667651680     0.4053944405
   32      O      -3.2576881856     0.0662935319    -2.9455536208
   33      C      -2.2991986189     3.6125206646     0.8148183878
   34      C      -3.6765452706    -1.0784748211     1.6627892461
   35      C      -4.9955273284    -1.9368118381     1.7827601535
   36      C      -5.1288354275    -2.4913556450     0.3161152276
   37      C      -3.8478891299    -1.8638165102    -0.3638417363
   38      O      -2.8418281452    -1.8565994654     0.7175945740
   39      H      -4.9688573791     0.6899307866     1.1726468580
   40      H      -5.1470671159    -0.1644577599    -1.0071216641
   41      H      -1.3819776896     3.3444934636     0.2517219956
   42      H      -3.1241158408    -0.9086787316     2.6071173239
   43      H      -4.8589900425    -2.7521345918     2.5108856754
   44      H      -5.8622364821    -1.3303643744     2.0906155397
   45      H      -5.0743822441    -3.5914223594     0.2921154933
   46      H      -6.0602317032    -2.1724586357    -0.1784037940
   47      H      -3.4704086161    -2.4102931595    -1.2500656357
   48      H      -2.0265179138     3.7453839131     1.8820199975
   49      H      -2.7138990220     4.5580145719     0.4192582805
   50      H       2.8088939142    -2.9373035174    -2.6612414191
   51      H       2.9470377968    -3.9354234608    -1.1602701705
   52      H       4.4346827471    -3.2915380670    -1.9463737454
   53      H       1.2163787791     1.0278797270    -1.9221920834
   54      H       0.5152649086     2.4271920403    -1.0278640056
   55      H      -1.1987405312     2.0782568379    -2.6834265437
   56      H      -0.8782517717     0.3117296096    -2.8064017406
 ----------------------------------------------------------------

    9   -1510.2446910545      3.95E-09 Convergence criterion met
 Total energy in the final basis set = -1510.24469105
 Final energy is   -1510.24469105454
 **  OPTIMIZATION CONVERGED  **

                    Orbital Energies (a.u.)
 --------------------------------------------------------------

 Alpha MOs
 -- Occupied --
-18.940 -18.927 -18.919 -18.916 -18.890 -18.885 -18.883 -18.871
-18.863 -18.861 -10.100 -10.100 -10.092 -10.089 -10.081 -10.077
-10.065 -10.061 -10.058 -10.057 -10.056 -10.051 -10.036 -10.036
-10.034 -10.030 -10.024 -10.023 -10.016 -10.015  -1.016  -1.006
 -0.997  -0.996  -0.973  -0.965  -0.941  -0.929  -0.925  -0.923
 -0.763  -0.758  -0.725  -0.723  -0.709  -0.703  -0.698  -0.656
 -0.655  -0.609  -0.598  -0.585  -0.548  -0.540  -0.538  -0.533
 -0.521  -0.507  -0.487  -0.479  -0.459  -0.454  -0.450  -0.439
 -0.437  -0.433  -0.425  -0.410  -0.406  -0.406  -0.404  -0.400
 -0.396  -0.381  -0.373  -0.365  -0.360  -0.355  -0.350  -0.341
 -0.336  -0.334  -0.333  -0.328  -0.323  -0.321  -0.317  -0.316
 -0.310  -0.305  -0.302  -0.298  -0.294  -0.290  -0.284  -0.273
 -0.266  -0.248  -0.245  -0.239  -0.236  -0.228  -0.228  -0.179
 -0.169  -0.164  -0.162  -0.153  -0.152  -0.145  -0.140  -0.139
 -0.138

          Ground-State Mulliken Net Atomic Charges

     Atom                 Charge (a.u.)
  ----------------------------------------
      1 O                    -0.208761
      2 C                     0.219801
      3 C                    -0.079825
      4 C                    -0.077560
      5 C                     0.212008
      6 O                    -0.162386
      7 C                    -0.043339
      8 C                    -0.044475
      9 O                    -0.170094
     10 C                     0.221682
     11 C                    -0.086355
     12 C                    -0.075606
     13 C                     0.215773
     14 O                    -0.218425
     15 O                    -0.176458
     16 O                    -0.168365
     17 O                    -0.181150
     18 C                    -0.126194
     19 C                     0.022926
     20 C                    -0.141648
     21 C                    -0.145572
     22 C                     0.023120
     23 O                    -0.190554
     24 H                     0.083886
     25 H                     0.087686
     26 H                     0.079101
     27 H                     0.077154
     28 H                     0.073438
     29 H                     0.078889
     30 H                     0.075471
     31 H                     0.085972
     32 O                    -0.218002
     33 C                    -0.127409
     34 C                     0.026048
     35 C                    -0.144581
     36 C                    -0.143685
     37 C                     0.026072
     38 O                    -0.183362
     39 H                     0.082290
     40 H                     0.084608
     41 H                     0.083458
     42 H                     0.089049
     43 H                     0.077722
     44 H                     0.072154
     45 H                     0.077892
     46 H                     0.072936
     47 H                     0.083681
     48 H                     0.085572
     49 H                     0.085553
     50 H                     0.088125
     51 H                     0.090648
     52 H                     0.089275
     53 H                     0.087945
     54 H                     0.076069
     55 H                     0.084661
     56 H                     0.093139
  ----------------------------------------
  Sum of atomic charges =    -0.000000

                    Cartesian Multipole Moments
 -----------------------------------------------------------------
    Charge (ESU x 10^10)
                -0.0000
    Dipole Moment (Debye)
         X      -0.5970      Y       3.2206      Z      -0.3467
       Tot       3.2938
    Quadrupole Moments (Debye-Ang)
        XX    -153.7085     XY      11.1100     YY    -154.5380
        XZ      -4.4915     YZ       4.0818     ZZ    -159.9749

 Total job time:  53.61s(wall), 2551.94s(cpu)
        *  Thank you very much for using Q-Chem.  Have a nice day.  *
