 Q-Chem 5.0, Q-Chem, Inc., Pleasanton, CA (2017)
 Q-Chem 5.0.1 for Intel X86 EM64T Linux

User input:
--------------------------------------------------------------
$molecule
0  1
O -3.94934 -3.66094 2.70899
C -3.26408 -4.56952 2.26188
C -3.36658 -6.02376 2.66595
C -2.18089 -6.93647 2.31248
C -0.95023 -6.25736 1.75356
O 0.17379 -6.82864 2.27857
C 0.7004 -6.10943 3.39868
C 2.13307 -5.6701 3.11478
O 2.13996 -4.64094 2.11295
C 1.50537 -3.49173 2.45317
C 1.65589 -2.40657 1.41373
C 2.47141 -1.18623 1.86536
C 3.30026 -1.37304 3.12028
O 3.656 -2.44798 3.58128
O -2.47214 -4.20667 1.22502
O 3.79295 -0.23342 3.6728
O 0.97539 -3.26712 3.53436
C 4.61265 -0.19843 4.78136
C 2.43393 -2.7844 0.12903
C 2.03201 -1.85029 -1.01283
C 2.69235 -0.56061 -0.5719
C 3.43458 -1.04495 0.67729
O 3.75747 -2.38418 0.38733
H 0.62069 -2.12617 1.11857
H 1.8169 -0.3031 2.03811
H 2.2899 -3.83827 -0.19323
H 2.54808 -2.21522 -1.92994
H 0.94072 -1.78202 -1.21167
H 3.4134 -0.24782 -1.35953
H 1.9967 0.2742 -0.33756
H 4.29241 -0.37441 0.90618
O -0.91534 -5.90595 0.58364
C -2.32432 -2.92326 0.73542
C -3.40924 -6.1967 4.20224
C -4.15415 -7.48154 4.54895
C -3.15783 -8.51277 4.07072
C -1.97615 -7.60366 3.69896
O -2.09304 -6.51292 4.57421
H -4.34004 -6.38059 2.26053
H -2.46885 -7.70576 1.56161
H -1.92892 -2.25491 1.52987
H -3.87127 -5.33883 4.73806
H -4.20982 -7.52702 5.6607
H -5.17841 -7.58138 4.12971
H -2.9065 -9.17716 4.9273
H -3.48504 -9.12143 3.20009
H -1.0482 -8.20704 3.77307
H -3.29932 -2.53743 0.36867
H -1.60561 -2.93746 -0.10961
H 4.86146 0.85664 5.0167
H 5.55464 -0.75163 4.57902
H 4.09327 -0.64729 5.65501
H 2.60628 -5.28625 4.04651
H 2.72818 -6.53888 2.76171
H 0.76093 -6.82472 4.24559
H 0.02938 -5.30496 3.75832
$end

$opt
CONSTRAINT
tors           1           2           3           4    -162.796
tors           3           4           5           6    +139.813
tors           4           5           6           7     -96.781
tors           5           6           7           8    -121.073
tors           6           7           8           9     +70.028
tors           7           8           9          10     +62.749
tors           8           9          10          11    +174.692
tors           9          10          11          12    -113.608
tors          11          12          13          14     +20.658
ENDCONSTRAINT
$end

$rem
JOBTYPE                   OPT
METHOD                    B3LYP
DFT_D                     d3_op
BASIS                     STO-3G
GEOM_OPT_MAX_CYCLES       100
GEOM_OPT_TOL_GRADIENT     300
GEOM_OPT_TOL_DISPLACEMENT 1200
GEOM_OPT_TOL_ENERGY       100
SYMMETRY                  False
THRESH                    12
SCF_CONVERGENCE           8
MAX_SUB_FILE_NUM          128
MEM_STATIC                400
MEM_TOTAL                 4000
$end
--------------------------------------------------------------

   16   -1510.1032812265      2.30E-09 Convergence criterion met
 Total energy in the final basis set = -1510.10328123
   13   -1510.1781626904      9.16E-09 Convergence criterion met
 Total energy in the final basis set = -1510.17816269
   14   -1510.2189625452      1.86E-09 Convergence criterion met
 Total energy in the final basis set = -1510.21896255
   14   -1510.2370347436      3.86E-09 Convergence criterion met
 Total energy in the final basis set = -1510.23703474
   14   -1510.2456938614      5.54E-09 Convergence criterion met
 Total energy in the final basis set = -1510.24569386
    2   -1510.2456938614      4.33E-09 Convergence criterion met
 Total energy in the final basis set = -1510.24569386
   13   -1510.2492726856      4.26E-09 Convergence criterion met
 Total energy in the final basis set = -1510.24927269
   13   -1510.2511279914      3.98E-09 Convergence criterion met
   11   -1510.2599439930      6.14E-09 Convergence criterion met
 Total energy in the final basis set = -1510.25994399
   10   -1510.2599537698      5.65E-09 Convergence criterion met
 Total energy in the final basis set = -1510.25995377
   11   -1510.2599647189      4.07E-09 Convergence criterion met
 Total energy in the final basis set = -1510.25996472
   11   -1510.2599730544      2.81E-09 Convergence criterion met
 Total energy in the final basis set = -1510.25997305
   10   -1510.2599761478      9.32E-09 Convergence criterion met
 Total energy in the final basis set = -1510.25997615
    9   -1510.2599786070      7.61E-09 Convergence criterion met
 Total energy in the final basis set = -1510.25997861

             Standard Nuclear Orientation (Angstroms)
    I     Atom           X                Y                Z
 ----------------------------------------------------------------
    1      O      -3.3732951694     1.3405263827     2.9520601764
    2      C      -3.1067141277     1.1141118823     1.7496763721
    3      C      -4.2003746679     0.9116187383     0.6307891989
    4      C      -3.7854031998     0.2363764397    -0.7408357044
    5      C      -2.2832085546     0.3409690356    -1.2423073420
    6      O      -1.8018070683    -0.9005426674    -1.8393984225
    7      C      -1.0397081817    -1.7108807711    -0.8603125661
    8      C       0.4187888033    -1.9355183904    -1.4231047119
    9      O       1.2716960565    -0.7219978098    -1.4438866534
   10      C       1.5055394850    -0.2084660635    -0.1412219272
   11      C       2.5206941782     0.9904783230    -0.2124189121
   12      C       3.9056114141     0.6782646492     0.4913342054
   13      C       4.0700308525    -0.8372001611     0.8449320045
   14      O       3.4500208913    -1.7981197015     0.3353983532
   15      O      -1.7907262242     0.8898810984     1.2605705971
   16      O       5.0988680550    -0.9744209630     1.8266793530
   17      O       0.9633461176    -0.6442081010     0.9047224858
   18      C       5.3135661367    -2.4078979035     2.1365732168
   19      C       2.9950954038     1.3755828832    -1.6763232153
   20      C       3.5606053526     2.8480339135    -1.6295152849
   21      C       4.9194368861     2.6245393919    -0.8673034764
   22      C       4.9136729835     1.0552747905    -0.6828302742
   23      O       4.2107175462     0.5529423116    -1.8838270995
   24      H       2.0350341445     1.8516291229     0.2828856939
   25      H       4.0729190045     1.2884143692     1.3962952291
   26      H       2.2468981949     1.1718881446    -2.4653875240
   27      H       3.7293490612     3.2252577449    -2.6507648242
   28      H       2.8837533783     3.5404983319    -1.1043840225
   29      H       5.7837133576     2.9386417810    -1.4737128038
   30      H       4.9558797449     3.1527141042     0.0990488079
   31      H       5.9131577821     0.5876402017    -0.5893360664
   32      O      -1.6520251691     1.4085117459    -1.3738530120
   33      C      -0.7952276569     1.0561745954     2.3495677422
   34      C      -5.1798864406    -0.2123943119     1.1896579113
   35      C      -6.4676817644    -0.3266118459     0.2809062914
   36      C      -5.9136091620    -1.1513019721    -0.9405139037
   37      C      -4.3822326378    -1.2260952787    -0.5690900094
   38      O      -4.4134815329    -1.4480780496     0.8949849493
   39      H      -4.7168059476     1.8750755739     0.4671862486
   40      H      -4.3547681543     0.7497672447    -1.5406150818
   41      H      -1.1869366455     0.6566425734     3.3049336129
   42      H      -5.3712682772    -0.1210797825     2.2769108811
   43      H      -7.2678457203    -0.8679469250     0.8100614649
   44      H      -6.8500138396     0.6637645339    -0.0146255510
   45      H      -6.3492431691    -2.1630283850    -0.9722158254
   46      H      -6.0905473411    -0.6583689609    -1.9097390658
   47      H      -3.8038053832    -2.0165053139    -1.0829522758
   48      H      -0.5495741829     2.1286879840     2.4856072892
   49      H       0.0963741427     0.4819575879     2.0071328079
   50      H       6.0949294406    -2.4370689404     2.9180800173
   51      H       5.6587243959    -2.9697391005     1.2445765427
   52      H       4.3874730341    -2.8849328255     2.5169579973
   53      H       0.9179074219    -2.7284723194    -0.8220557672
   54      H       0.3626288544    -2.2608540780    -2.4812225248
   55      H      -1.5217364560    -2.7095573124    -0.7627934173
   56      H      -0.9749706454    -1.2422899646     0.1432616046
 ----------------------------------------------------------------

    9   -1510.2599795944      4.22E-09 Convergence criterion met
 Total energy in the final basis set = -1510.25997959
 Final energy is   -1510.25997959439
 **  OPTIMIZATION CONVERGED  **

                    Orbital Energies (a.u.)
 --------------------------------------------------------------

 Alpha MOs
 -- Occupied --
-18.942 -18.939 -18.929 -18.895 -18.890 -18.887 -18.883 -18.881
-18.872 -18.862 -10.106 -10.105 -10.104 -10.093 -10.068 -10.068
-10.063 -10.062 -10.056 -10.056 -10.055 -10.041 -10.037 -10.037
-10.036 -10.031 -10.021 -10.018 -10.018 -10.017  -1.019  -1.011
 -1.006  -0.997  -0.970  -0.968  -0.943  -0.937  -0.928  -0.926
 -0.764  -0.759  -0.724  -0.719  -0.714  -0.702  -0.692  -0.666
 -0.649  -0.610  -0.596  -0.582  -0.546  -0.540  -0.537  -0.535
 -0.512  -0.510  -0.481  -0.476  -0.465  -0.460  -0.448  -0.436
 -0.434  -0.431  -0.416  -0.415  -0.411  -0.410  -0.408  -0.400
 -0.388  -0.384  -0.379  -0.372  -0.363  -0.357  -0.351  -0.347
 -0.342  -0.338  -0.331  -0.328  -0.326  -0.324  -0.311  -0.311
 -0.309  -0.305  -0.302  -0.300  -0.294  -0.291  -0.283  -0.278
 -0.266  -0.260  -0.253  -0.246  -0.234  -0.232  -0.221  -0.185
 -0.178  -0.170  -0.159  -0.155  -0.150  -0.149  -0.144  -0.143
 -0.140

          Ground-State Mulliken Net Atomic Charges

     Atom                 Charge (a.u.)
  ----------------------------------------
      1 O                    -0.220886
      2 C                     0.209348
      3 C                    -0.077754
      4 C                    -0.084424
      5 C                     0.230547
      6 O                    -0.204730
      7 C                    -0.054345
      8 C                    -0.044483
      9 O                    -0.161331
     10 C                     0.227145
     11 C                    -0.079596
     12 C                    -0.078577
     13 C                     0.212400
     14 O                    -0.210747
     15 O                    -0.173605
     16 O                    -0.168500
     17 O                    -0.227771
     18 C                    -0.128387
     19 C                     0.025274
     20 C                    -0.143374
     21 C                    -0.144261
     22 C                     0.025398
     23 O                    -0.189066
     24 H                     0.085475
     25 H                     0.087597
     26 H                     0.096643
     27 H                     0.078610
     28 H                     0.074824
     29 H                     0.078326
     30 H                     0.073823
     31 H                     0.083138
     32 O                    -0.181127
     33 C                    -0.147505
     34 C                     0.023937
     35 C                    -0.145700
     36 C                    -0.142212
     37 C                     0.020775
     38 O                    -0.194830
     39 H                     0.084923
     40 H                     0.082663
     41 H                     0.089244
     42 H                     0.088694
     43 H                     0.078038
     44 H                     0.073343
     45 H                     0.076975
     46 H                     0.072991
     47 H                     0.087330
     48 H                     0.075802
     49 H                     0.113241
     50 H                     0.091877
     51 H                     0.090024
     52 H                     0.091914
     53 H                     0.092220
     54 H                     0.094079
     55 H                     0.079846
     56 H                     0.106744
  ----------------------------------------
  Sum of atomic charges =     0.000000

                    Cartesian Multipole Moments
 -----------------------------------------------------------------
    Charge (ESU x 10^10)
                -0.0000
    Dipole Moment (Debye)
         X       0.9247      Y       0.2112      Z       0.0024
       Tot       0.9485
    Quadrupole Moments (Debye-Ang)
        XX    -140.5732     XY       1.1046     YY    -153.8950
        XZ      13.6965     YZ      -1.7129     ZZ    -167.5068

 Total job time:  90.54s(wall), 4319.49s(cpu)
        *  Thank you very much for using Q-Chem.  Have a nice day.  *
