 Q-Chem 5.0, Q-Chem, Inc., Pleasanton, CA (2017)
 Q-Chem 5.0.1 for Intel X86 EM64T Linux

User input:
--------------------------------------------------------------
$molecule
0  1
O -3.3732951694 1.3405263827 2.9520601764
C -3.1067141277 1.1141118823 1.7496763721
C -4.2003746679 0.9116187383 0.6307891989
C -3.7854031998 0.2363764397 -0.7408357044
C -2.2832085546 0.3409690356 -1.242307342
O -1.8018070683 -0.9005426674 -1.8393984225
C -1.0397081817 -1.7108807711 -0.8603125661
C 0.4187888033 -1.9355183904 -1.4231047119
O 1.2716960565 -0.7219978098 -1.4438866534
C 1.505539485 -0.2084660635 -0.1412219272
C 2.5206941782 0.990478323 -0.2124189121
C 3.9056114141 0.6782646492 0.4913342054
C 4.0700308525 -0.8372001611 0.8449320045
O 3.4500208913 -1.7981197015 0.3353983532
O -1.7907262242 0.8898810984 1.2605705971
O 5.098868055 -0.974420963 1.826679353
O 0.9633461176 -0.644208101 0.9047224858
C 5.3135661367 -2.4078979035 2.1365732168
C 2.9950954038 1.3755828832 -1.6763232153
C 3.5606053526 2.8480339135 -1.6295152849
C 4.9194368861 2.6245393919 -0.8673034764
C 4.9136729835 1.0552747905 -0.6828302742
O 4.2107175462 0.5529423116 -1.8838270995
H 2.0350341445 1.8516291229 0.2828856939
H 4.0729190045 1.2884143692 1.3962952291
H 2.2468981949 1.1718881446 -2.465387524
H 3.7293490612 3.2252577449 -2.6507648242
H 2.8837533783 3.5404983319 -1.1043840225
H 5.7837133576 2.938641781 -1.4737128038
H 4.9558797449 3.1527141042 0.0990488079
H 5.9131577821 0.5876402017 -0.5893360664
O -1.6520251691 1.4085117459 -1.373853012
C -0.7952276569 1.0561745954 2.3495677422
C -5.1798864406 -0.2123943119 1.1896579113
C -6.4676817644 -0.3266118459 0.2809062914
C -5.913609162 -1.1513019721 -0.9405139037
C -4.3822326378 -1.2260952787 -0.5690900094
O -4.4134815329 -1.4480780496 0.8949849493
H -4.7168059476 1.8750755739 0.4671862486
H -4.3547681543 0.7497672447 -1.5406150818
H -1.1869366455 0.6566425734 3.3049336129
H -5.3712682772 -0.1210797825 2.2769108811
H -7.2678457203 -0.867946925 0.8100614649
H -6.8500138396 0.6637645339 -0.014625551
H -6.3492431691 -2.163028385 -0.9722158254
H -6.0905473411 -0.6583689609 -1.9097390658
H -3.8038053832 -2.0165053139 -1.0829522758
H -0.5495741829 2.128687984 2.4856072892
H 0.0963741427 0.4819575879 2.0071328079
H 6.0949294406 -2.4370689404 2.9180800173
H 5.6587243959 -2.9697391005 1.2445765427
H 4.3874730341 -2.8849328255 2.5169579973
H 0.9179074219 -2.7284723194 -0.8220557672
H 0.3626288544 -2.260854078 -2.4812225248
H -1.521736456 -2.7095573124 -0.7627934173
H -0.9749706454 -1.2422899646 0.1432616046
$end

$rem
JOBTYPE                   OPT
METHOD                    B3LYP
DFT_D                     d3_op
BASIS                     STO-3G
GEOM_OPT_MAX_CYCLES       100
GEOM_OPT_TOL_GRADIENT     300
GEOM_OPT_TOL_DISPLACEMENT 1200
GEOM_OPT_TOL_ENERGY       100
SYMMETRY                  False
THRESH                    12
SCF_CONVERGENCE           8
MAX_SUB_FILE_NUM          128
MEM_STATIC                400
MEM_TOTAL                 4000
$end
--------------------------------------------------------------

   16   -1510.2600672669      6.61E-09 Convergence criterion met
 Total energy in the final basis set = -1510.26006727
   14   -1510.2595655135      6.42E-09 Convergence criterion met
 Total energy in the final basis set = -1510.25956551
   14   -1510.2633404841      8.36E-09 Convergence criterion met
 Total energy in the final basis set = -1510.26334048
   15   -1510.2515149930      2.62E-09 Convergence criterion met
 Total energy in the final basis set = -1510.25151499
   14   -1510.2650846203      7.05E-09 Convergence criterion met
 Total energy in the final basis set = -1510.26508462
   13   -1510.2664675108      6.70E-09 Convergence criterion met
 Total energy in the final basis set = -1510.26646751
   14   -1510.2682784944      4.63E-09 Convergence criterion met
 Total energy in the final basis set = -1510.26827849
   13   -1510.2701536770      6.75E-09 Convergence criterion met
   12   -1510.2917458190      8.83E-09 Convergence criterion met
 Total energy in the final basis set = -1510.29174582
   12   -1510.2917251632      6.61E-09 Convergence criterion met
 Total energy in the final basis set = -1510.29172516
   12   -1510.2917372911      3.51E-09 Convergence criterion met
 Total energy in the final basis set = -1510.29173729
   10   -1510.2917462027      7.59E-09 Convergence criterion met
 Total energy in the final basis set = -1510.29174620
    9   -1510.2917473727      6.74E-09 Convergence criterion met
 Total energy in the final basis set = -1510.29174737
    9   -1510.2917470378      6.57E-09 Convergence criterion met
 Total energy in the final basis set = -1510.29174704

             Standard Nuclear Orientation (Angstroms)
    I     Atom           X                Y                Z
 ----------------------------------------------------------------
    1      O      -1.5771558224     1.2883655310     2.4339516679
    2      C      -2.3489048588     0.6327612752     1.6989232420
    3      C      -3.3701470078     1.2279661668     0.6553799578
    4      C      -2.9924168255     0.9294292760    -0.8611564961
    5      C      -1.7157075472     0.0237138892    -0.9380737565
    6      O      -1.7470087455    -0.8443570861    -2.0641176778
    7      C      -0.7806737553    -1.9620562195    -1.8986307674
    8      C       0.7353317549    -1.6427293558    -2.2016186106
    9      O       1.4215802632    -0.7439529374    -1.2499455656
   10      C       1.4268577403    -1.2787025212     0.0832994917
   11      C       2.1907349475    -0.2782492853     1.0243492494
   12      C       3.7492017503    -0.1934200514     0.7662305637
   13      C       4.2476392941    -1.2109980784    -0.3149420364
   14      O       3.6347554900    -2.2151186015    -0.7438144084
   15      O      -2.5227888886    -0.7910978866     1.7508003043
   16      O       5.5593336844    -0.8375647108    -0.7404951989
   17      O       0.8352887158    -2.3208867215     0.4512700806
   18      C       6.0514539025    -1.7935029966    -1.7599956545
   19      C       1.7615821755     1.2240335751     0.7435700916
   20      C       2.2622259650     2.1226441889     1.9411176759
   21      C       3.8035796453     2.2162544435     1.6327573562
   22      C       3.9042590448     1.3280977811     0.3299824905
   23      O       2.6409046934     1.6194832163    -0.3821448471
   24      H       1.9730960544    -0.5820766002     2.0630694902
   25      H       4.3157655065    -0.3904951220     1.6955254290
   26      H       0.6905130340     1.3203920617     0.4740335813
   27      H       1.7803887053     3.1125071620     1.9066990342
   28      H       2.0486298515     1.6623868925     2.9189495700
   29      H       4.1099137590     3.2518409730     1.4149148441
   30      H       4.4291078149     1.8277069930     2.4521834291
   31      H       4.7796802412     1.5235593363    -0.3193385242
   32      O      -0.8025192219     0.0300813656    -0.0808967391
   33      C      -1.4356074985    -1.4172922128     2.5408343108
   34      C      -4.8053725109     0.5466489806     0.7309304671
   35      C      -5.8394938602     1.4896107411    -0.0028305253
   36      C      -5.4579840530     1.2442958500    -1.5101689162
   37      C      -4.2967672577     0.1835925026    -1.3622218737
   38      O      -4.6964666542    -0.6151057758    -0.1811044267
   39      H      -3.4283900312     2.3154036757     0.8367061997
   40      H      -2.8068704834     1.8637401094    -1.4234193943
   41      H      -1.8740501035    -2.2724449883     3.0883317025
   42      H      -5.1039479371     0.2150373479     1.7440193707
   43      H      -6.8708967571     1.1656930947     0.2088965006
   44      H      -5.7303530313     2.5433317993     0.2995864358
   45      H      -6.3005912352     0.8173537377    -2.0769498771
   46      H      -5.1192666370     2.1609015713    -2.0189820582
   47      H      -4.1275824982    -0.4723651492    -2.2377257663
   48      H      -1.0084032021    -0.6831472465     3.2525600273
   49      H      -0.6318734369    -1.7822632687     1.8590448164
   50      H       7.0430753405    -1.4197714813    -2.0749494634
   51      H       5.3737793920    -1.8380674409    -2.6367453361
   52      H       6.1554970928    -2.8161851027    -1.3429566247
   53      H       1.2612802084    -2.6233120095    -2.2454723001
   54      H       0.8301888622    -1.1431418704    -3.1872486014
   55      H      -1.1147231380    -2.7254653317    -2.6307379213
   56      H      -0.8345460795    -2.3815652350    -0.8714946857
 ----------------------------------------------------------------

    9   -1510.2917477171      5.41E-09 Convergence criterion met
 Total energy in the final basis set = -1510.29174772
 Final energy is   -1510.29174771709
 **  OPTIMIZATION CONVERGED  **

                    Orbital Energies (a.u.)
 --------------------------------------------------------------

 Alpha MOs
 -- Occupied --
-18.944 -18.940 -18.922 -18.911 -18.886 -18.884 -18.880 -18.877
-18.859 -18.855 -10.110 -10.103 -10.094 -10.086 -10.069 -10.068
-10.068 -10.057 -10.056 -10.052 -10.043 -10.039 -10.036 -10.034
-10.030 -10.025 -10.019 -10.017 -10.012 -10.008  -1.023  -1.016
 -0.996  -0.991  -0.967  -0.960  -0.945  -0.940  -0.925  -0.918
 -0.760  -0.756  -0.724  -0.716  -0.710  -0.701  -0.691  -0.663
 -0.642  -0.614  -0.592  -0.579  -0.543  -0.538  -0.534  -0.527
 -0.510  -0.507  -0.483  -0.475  -0.462  -0.455  -0.441  -0.435
 -0.431  -0.425  -0.417  -0.414  -0.412  -0.403  -0.402  -0.397
 -0.387  -0.382  -0.375  -0.368  -0.361  -0.356  -0.348  -0.338
 -0.335  -0.333  -0.329  -0.327  -0.324  -0.318  -0.318  -0.309
 -0.306  -0.303  -0.297  -0.294  -0.291  -0.282  -0.276  -0.273
 -0.265  -0.258  -0.255  -0.238  -0.234  -0.230  -0.225  -0.194
 -0.182  -0.167  -0.159  -0.153  -0.148  -0.141  -0.138  -0.137
 -0.134

          Ground-State Mulliken Net Atomic Charges

     Atom                 Charge (a.u.)
  ----------------------------------------
      1 O                    -0.223641
      2 C                     0.212400
      3 C                    -0.080825
      4 C                    -0.077931
      5 C                     0.224675
      6 O                    -0.168660
      7 C                    -0.056156
      8 C                    -0.049088
      9 O                    -0.167418
     10 C                     0.231434
     11 C                    -0.079334
     12 C                    -0.079175
     13 C                     0.214570
     14 O                    -0.212586
     15 O                    -0.176358
     16 O                    -0.168713
     17 O                    -0.228731
     18 C                    -0.127768
     19 C                     0.022603
     20 C                    -0.143796
     21 C                    -0.144013
     22 C                     0.024514
     23 O                    -0.189992
     24 H                     0.083349
     25 H                     0.084867
     26 H                     0.101292
     27 H                     0.078187
     28 H                     0.075031
     29 H                     0.075974
     30 H                     0.071220
     31 H                     0.086045
     32 O                    -0.211564
     33 C                    -0.141283
     34 C                     0.026225
     35 C                    -0.143936
     36 C                    -0.144426
     37 C                     0.023667
     38 O                    -0.187433
     39 H                     0.082284
     40 H                     0.086515
     41 H                     0.081489
     42 H                     0.085286
     43 H                     0.077453
     44 H                     0.073391
     45 H                     0.077660
     46 H                     0.072818
     47 H                     0.090119
     48 H                     0.090507
     49 H                     0.096657
     50 H                     0.091667
     51 H                     0.091120
     52 H                     0.089295
     53 H                     0.092131
     54 H                     0.088726
     55 H                     0.089890
     56 H                     0.109764
  ----------------------------------------
  Sum of atomic charges =     0.000000

                    Cartesian Multipole Moments
 -----------------------------------------------------------------
    Charge (ESU x 10^10)
                -0.0000
    Dipole Moment (Debye)
         X       0.8934      Y       0.5575      Z      -1.3628
       Tot       1.7222
    Quadrupole Moments (Debye-Ang)
        XX    -141.9866     XY      -9.8714     YY    -160.9971
        XZ       2.2556     YZ       2.6479     ZZ    -153.4605

 Total job time:  140.94s(wall), 6725.74s(cpu)
        *  Thank you very much for using Q-Chem.  Have a nice day.  *
