 Q-Chem 5.0, Q-Chem, Inc., Pleasanton, CA (2017)
 Q-Chem 5.0.1 for Intel X86 EM64T Linux

User input:
--------------------------------------------------------------
$molecule
0  1
O -5.0832826122 1.5156339532 0.9019025873
C -4.1570452807 1.2939455717 0.0937001846
C -3.9085957409 -0.0098324385 -0.7474774517
C -2.5570785772 -0.760690328 -0.4161226861
C -1.9701830235 -0.3380171565 0.9829415004
O -1.1725443412 -1.4076716832 1.5207688343
C 0.0248755826 -0.8794060562 2.2193171583
C 0.9293881471 -0.0039147242 1.2722833909
O 1.923243502 0.670058382 2.1450204746
C 3.247528473 0.7091255313 1.5750879507
C 3.5055915078 1.3713521401 0.1452065883
C 4.3068832088 0.3996706444 -0.8251861655
C 4.4859842316 -1.0517773938 -0.2730154142
O 5.5127120634 -1.7609458409 -0.3098424076
O -3.2459729213 2.2936566933 -0.3915216925
O 3.2267117128 -1.4975334471 0.2561080781
O 4.2144643279 0.4284222932 2.3183798813
C 3.3607485433 -2.8407462018 0.8617504728
C 2.2855104555 1.7780518858 -0.7765458795
C 2.8138685917 2.773267134 -1.8855206724
C 3.5690978764 1.7904544711 -2.8528304508
C 3.3583417183 0.4165075641 -2.1072791515
O 1.9976130347 0.5351233137 -1.5346402879
H 4.1232293414 2.2622100345 0.3656397202
H 5.311623682 0.7899970056 -1.0623353508
H 1.3888018763 2.1371004419 -0.2407130356
H 1.9674012233 3.2665483376 -2.3895446221
H 3.4735215181 3.5488788087 -1.4649991362
H 3.1000981821 1.7626904032 -3.8492643309
H 4.6357220385 2.0393316614 -2.9699557922
H 3.4321905035 -0.4851510421 -2.7460068368
O -2.1627534372 0.7508216915 1.5688434547
C -3.4035361558 3.5360647743 0.3946875042
C -4.9710843017 -1.1657798962 -0.5197578393
C -4.9950755108 -2.0392081882 -1.8327909864
C -3.5852377039 -2.735008344 -1.7444700643
C -3.0852335797 -2.2536311305 -0.323765442
O -4.3312499429 -2.0747084461 0.4615476318
H -3.9023938562 0.3013645459 -1.8081957588
H -1.7799607659 -0.6136877519 -1.1887398003
H -3.0829133029 3.3851868581 1.4460249001
H -5.9532535626 -0.8172893636 -0.1451670074
H -5.8105726723 -2.7788510528 -1.7866000555
H -5.1168001637 -1.4317468456 -2.7438660811
H -3.668532808 -3.8327813424 -1.7760083945
H -2.904316529 -2.4108131433 -2.5480595058
H -2.3905180409 -2.9395247119 0.197960547
H -4.4537439346 3.8930715897 0.3925334718
H -2.7529596142 4.2902176271 -0.0852482276
H 2.3389953819 -3.151519788 1.1473148429
H 4.005315924 -2.8090383309 1.7640094147
H 3.7877166172 -3.5694427159 0.1435678886
H 1.4314987401 -0.6212492873 0.496725573
H 0.2793973425 0.7502027193 0.7809085889
H 0.5764461424 -1.7712562615 2.5768125768
H -0.2635824794 -0.2627204778 3.0999718423
$end

$rem
JOBTYPE                   OPT
METHOD                    B3LYP
DFT_D                     d3_op
BASIS                     STO-3G
GEOM_OPT_MAX_CYCLES       100
GEOM_OPT_TOL_GRADIENT     300
GEOM_OPT_TOL_DISPLACEMENT 1200
GEOM_OPT_TOL_ENERGY       100
SYMMETRY                  False
THRESH                    12
SCF_CONVERGENCE           8
MAX_SUB_FILE_NUM          128
MEM_STATIC                400
MEM_TOTAL                 4000
$end
--------------------------------------------------------------

   16   -1510.2587363721      5.02E-09 Convergence criterion met
 Total energy in the final basis set = -1510.25873637
   14   -1510.2621980939      5.64E-09 Convergence criterion met
 Total energy in the final basis set = -1510.26219809
   13   -1510.2654945593      9.15E-09 Convergence criterion met
 Total energy in the final basis set = -1510.26549456
   13   -1510.2681327327      9.99E-09 Convergence criterion met
 Total energy in the final basis set = -1510.26813273
   13   -1510.2699729445      4.90E-09 Convergence criterion met
 Total energy in the final basis set = -1510.26997294
   13   -1510.2713822519      3.28E-09 Convergence criterion met
 Total energy in the final basis set = -1510.27138225
   13   -1510.2724336872      3.32E-09 Convergence criterion met
 Total energy in the final basis set = -1510.27243369
   13   -1510.2730267262      4.53E-09 Convergence criterion met
   11   -1510.2944684330      6.36E-09 Convergence criterion met
 Total energy in the final basis set = -1510.29446843
   11   -1510.2944823855      4.57E-09 Convergence criterion met
 Total energy in the final basis set = -1510.29448239
   11   -1510.2944931388      4.82E-09 Convergence criterion met
 Total energy in the final basis set = -1510.29449314
   10   -1510.2944939556      6.13E-09 Convergence criterion met
 Total energy in the final basis set = -1510.29449396
    9   -1510.2944956259      9.41E-09 Convergence criterion met
 Total energy in the final basis set = -1510.29449563
    9   -1510.2944953576      7.37E-09 Convergence criterion met
 Total energy in the final basis set = -1510.29449536

             Standard Nuclear Orientation (Angstroms)
    I     Atom           X                Y                Z
 ----------------------------------------------------------------
    1      O      -3.6538595334     1.9887282203    -0.4121417795
    2      C      -2.7061780381     1.3660275735    -0.9354398786
    3      C      -2.6993791460    -0.1119190556    -1.4650021426
    4      C      -1.8987433257    -1.1267450833    -0.5532262044
    5      C      -1.3674061490    -0.4723668865     0.7596118294
    6      O      -0.5250725801    -1.4147953941     1.4378032670
    7      C       0.0387662306    -0.8095953604     2.6712420318
    8      C       1.2694111553     0.1221809693     2.3848828918
    9      O       2.4780717676    -0.7275275648     2.3096831130
   10      C       3.5207606136    -0.3478504841     1.4043373008
   11      C       3.3767499619     0.7618125780     0.2613873650
   12      C       2.4866645362     0.4023561400    -1.0093501173
   13      C       1.7131971158    -0.9621667388    -0.9977975355
   14      O       0.7019013230    -1.2214005697    -1.6925991920
   15      O      -1.4394330161     1.9598214952    -1.2845921381
   16      O       2.3648884957    -1.8930240816    -0.1497309454
   17      O       4.6149143417    -0.9420496679     1.5476421056
   18      C       1.5106164215    -3.0885407121     0.0660097662
   19      C       2.7727016253     2.1786104682     0.6446451273
   20      C       3.2230002511     3.2341484989    -0.4375243337
   21      C       2.2761515735     2.8736055465    -1.6452333486
   22      C       1.4918415755     1.6379774951    -1.0654470427
   23      O       1.3218790608     2.0207987110     0.3619594867
   24      H       4.4221953163     0.8922736278    -0.0695856599
   25      H       3.1240376731     0.3959137389    -1.9132874158
   26      H       2.9301702883     2.4866062967     1.6961966412
   27      H       3.0411309266     4.2581184385    -0.0743012543
   28      H       4.2907054001     3.1329607098    -0.6893061483
   29      H       1.5811463804     3.6981558110    -1.8692980462
   30      H       2.8315640132     2.6206601167    -2.5622602670
   31      H       0.4846615088     1.4399730313    -1.4980454267
   32      O      -1.6033061306     0.6781985609     1.1910280637
   33      C      -1.3189259931     3.3095733540    -0.6859662087
   34      C      -4.1442496556    -0.7650292471    -1.4490878607
   35      C      -4.1300487027    -2.0124574516    -2.4162222315
   36      C      -3.2826263260    -3.0369958120    -1.5736927476
   37      C      -3.0203997529    -2.2078902742    -0.2538534057
   38      O      -4.2401647912    -1.3815643483    -0.1039142733
   39      H      -2.2682048516    -0.1017612786    -2.4822535619
   40      H      -1.0167923464    -1.5348848424    -1.0907536990
   41      H      -2.2570373193     3.5597552266    -0.1522701861
   42      H      -4.9717485958    -0.0453775631    -1.6010679537
   43      H      -5.1550461708    -2.3797614290    -2.5839747241
   44      H      -3.6730700491    -1.7807655437    -3.3914483334
   45      H      -3.8557127833    -3.9507666431    -1.3494432880
   46      H      -2.3425220532    -3.3212789645    -2.0727234056
   47      H      -2.8416605115    -2.8132766836     0.6563387200
   48      H      -1.1354560095     4.0458843204    -1.4930705229
   49      H      -0.4576925843     3.2979278088     0.0140532568
   50      H       0.5834155279    -2.7706941571     0.5965461854
   51      H       2.1056823240    -3.7730226153     0.6966043262
   52      H       1.2552512850    -3.5809136743    -0.8936194906
   53      H       1.1002772601     0.7591589574     1.4723987979
   54      H       1.3819052643     0.8046370185     3.2572622876
   55      H       0.3493457322    -1.6632182413     3.3073308293
   56      H      -0.7464853515    -0.2197784361     3.1898378308
 ----------------------------------------------------------------

    9   -1510.2944962123      3.64E-09 Convergence criterion met
 Total energy in the final basis set = -1510.29449621
 Final energy is   -1510.29449621233
 **  OPTIMIZATION CONVERGED  **

                    Orbital Energies (a.u.)
 --------------------------------------------------------------

 Alpha MOs
 -- Occupied --
-18.951 -18.943 -18.921 -18.920 -18.919 -18.887 -18.887 -18.883
-18.865 -18.857 -10.114 -10.105 -10.095 -10.093 -10.076 -10.073
-10.067 -10.058 -10.058 -10.054 -10.049 -10.049 -10.045 -10.042
-10.033 -10.031 -10.030 -10.026 -10.018 -10.016  -1.026  -1.020
 -0.999  -0.997  -0.991  -0.966  -0.948  -0.945  -0.926  -0.924
 -0.774  -0.759  -0.732  -0.722  -0.716  -0.709  -0.695  -0.665
 -0.651  -0.611  -0.606  -0.579  -0.557  -0.551  -0.542  -0.534
 -0.522  -0.508  -0.495  -0.476  -0.475  -0.455  -0.452  -0.446
 -0.443  -0.429  -0.423  -0.418  -0.416  -0.414  -0.406  -0.400
 -0.397  -0.388  -0.378  -0.367  -0.364  -0.359  -0.356  -0.351
 -0.348  -0.343  -0.336  -0.336  -0.330  -0.324  -0.322  -0.319
 -0.313  -0.312  -0.303  -0.301  -0.295  -0.292  -0.283  -0.276
 -0.272  -0.259  -0.257  -0.252  -0.239  -0.231  -0.230  -0.192
 -0.181  -0.171  -0.167  -0.162  -0.159  -0.153  -0.147  -0.141
 -0.137

          Ground-State Mulliken Net Atomic Charges

     Atom                 Charge (a.u.)
  ----------------------------------------
      1 O                    -0.214004
      2 C                     0.219769
      3 C                    -0.081577
      4 C                    -0.092335
      5 C                     0.212360
      6 O                    -0.177538
      7 C                    -0.050911
      8 C                    -0.076583
      9 O                    -0.178149
     10 C                     0.212540
     11 C                    -0.086233
     12 C                    -0.083518
     13 C                     0.214196
     14 O                    -0.220296
     15 O                    -0.182897
     16 O                    -0.160748
     17 O                    -0.211476
     18 C                    -0.138671
     19 C                     0.021658
     20 C                    -0.143171
     21 C                    -0.142874
     22 C                     0.015450
     23 O                    -0.187055
     24 H                     0.089441
     25 H                     0.089420
     26 H                     0.086821
     27 H                     0.080809
     28 H                     0.078369
     29 H                     0.080656
     30 H                     0.077002
     31 H                     0.113989
     32 O                    -0.205087
     33 C                    -0.140838
     34 C                     0.024571
     35 C                    -0.143388
     36 C                    -0.143735
     37 C                     0.023636
     38 O                    -0.190146
     39 H                     0.085589
     40 H                     0.110446
     41 H                     0.101749
     42 H                     0.087989
     43 H                     0.077195
     44 H                     0.073551
     45 H                     0.076730
     46 H                     0.075049
     47 H                     0.082291
     48 H                     0.076044
     49 H                     0.094697
     50 H                     0.109269
     51 H                     0.094554
     52 H                     0.086162
     53 H                     0.116231
     54 H                     0.073278
     55 H                     0.094462
     56 H                     0.095258
  ----------------------------------------
  Sum of atomic charges =    -0.000000

                    Cartesian Multipole Moments
 -----------------------------------------------------------------
    Charge (ESU x 10^10)
                -0.0000
    Dipole Moment (Debye)
         X       1.3032      Y       0.7974      Z      -2.1924
       Tot       2.6722
    Quadrupole Moments (Debye-Ang)
        XX    -179.4715     XY      15.8283     YY    -151.1495
        XZ      -2.5866     YZ       1.1093     ZZ    -155.9716

 Total job time:  255.30s(wall), 12155.56s(cpu)
        *  Thank you very much for using Q-Chem.  Have a nice day.  *
