 Q-Chem 5.0, Q-Chem, Inc., Pleasanton, CA (2017)
 Q-Chem 5.0.1 for Intel X86 EM64T Linux

User input:
--------------------------------------------------------------
$molecule
0  1
O -3.94934 -3.66094 2.70899
C -3.26408 -4.56952 2.26188
C -3.36658 -6.02376 2.66595
C -2.13517 -6.6554 3.33566
C -1.00285 -5.71624 3.68769
O -0.29445 -6.2182 4.74203
C 1.11512 -5.99458 4.63089
C 1.64674 -6.61974 3.34532
O 2.99393 -6.18156 3.10872
C 3.84519 -7.13367 2.65268
C 3.36866 -7.78681 1.37715
C 3.34088 -9.32193 1.40718
C 3.44123 -9.95792 2.7791
O 4.12509 -10.93134 3.0608
O -2.4152 -4.29872 1.23386
O 2.57614 -9.54114 3.73276
O 4.97923 -7.25599 3.08869
C 2.49693 -10.05076 5.01264
C 2.04597 -7.51261 0.62005
C 2.16039 -7.91854 -0.85924
C 2.06515 -9.4241 -0.75429
C 1.96478 -9.58705 0.75867
O 1.17198 -8.48561 1.13613
H 4.16158 -7.45664 0.66878
H 4.14858 -9.78759 0.79789
H 1.73881 -6.44897 0.6243
H 1.26704 -7.55154 -1.4134
H 3.07963 -7.53492 -1.35209
H 1.09864 -9.75042 -1.20072
H 2.89998 -9.9893 -1.22192
H 1.55854 -10.59129 1.01088
O -0.77726 -4.61356 3.20936
C -2.2271 -3.04564 0.689
C -4.4484 -6.24659 3.74109
C -4.92125 -7.69812 3.71621
C -3.72057 -8.38883 4.31597
C -2.8314 -7.17982 4.62673
O -3.74384 -6.16264 4.95012
H -3.65988 -6.57138 1.74232
H -1.69183 -7.50923 2.77724
H -1.84695 -2.34517 1.46307
H -5.32522 -5.57062 3.63688
H -5.77396 -7.78759 4.427
H -5.23384 -8.0686 2.71618
H -4.03848 -8.87994 5.26309
H -3.21608 -9.12927 3.65827
H -2.13332 -7.47035 5.43982
H -3.18253 -2.66215 0.27148
H -1.48097 -3.1133 -0.12903
H 1.70158 -9.51251 5.56806
H 3.46307 -9.90559 5.54147
H 2.24236 -11.1316 4.98052
H 1.45724 -7.68982 3.36229
H 1.05068 -6.17372 2.54255
H 1.63322 -6.4416 5.50528
H 1.32265 -4.90038 4.6352
$end

$opt
CONSTRAINT
tors           1           2           3           4    -117.097
tors           3           4           5           6    +153.162
tors           4           5           6           7    +142.105
tors           5           6           7           8     -58.198
tors           6           7           8           9    +169.088
tors           7           8           9          10    +139.299
tors           8           9          10          11     +56.718
tors           9          10          11          12    -128.479
tors          11          12          13          14    -137.148
ENDCONSTRAINT
$end

$rem
JOBTYPE                   OPT
METHOD                    B3LYP
DFT_D                     d3_op
BASIS                     STO-3G
GEOM_OPT_MAX_CYCLES       100
GEOM_OPT_TOL_GRADIENT     300
GEOM_OPT_TOL_DISPLACEMENT 1200
GEOM_OPT_TOL_ENERGY       100
SYMMETRY                  False
THRESH                    12
SCF_CONVERGENCE           8
MAX_SUB_FILE_NUM          128
MEM_STATIC                400
MEM_TOTAL                 4000
$end
--------------------------------------------------------------

   15   -1510.1162564816      9.97E-09 Convergence criterion met
 Total energy in the final basis set = -1510.11625648
   14   -1510.1901008739      1.88E-09 Convergence criterion met
 Total energy in the final basis set = -1510.19010087
   14   -1510.2298260951      5.06E-09 Convergence criterion met
 Total energy in the final basis set = -1510.22982610
   14   -1510.2487851510      3.74E-09 Convergence criterion met
 Total energy in the final basis set = -1510.24878515
    2   -1510.2487851511      1.93E-09 Convergence criterion met
 Total energy in the final basis set = -1510.24878515
   14   -1510.2548088524      3.95E-09 Convergence criterion met
 Total energy in the final basis set = -1510.25480885
   14   -1510.2570343188      4.08E-09 Convergence criterion met
 Total energy in the final basis set = -1510.25703432
   13   -1510.2578761912      2.82E-09 Convergence criterion met
   11   -1510.2586781919      4.27E-09 Convergence criterion met
 Total energy in the final basis set = -1510.25867819
   11   -1510.2586829735      3.90E-09 Convergence criterion met
 Total energy in the final basis set = -1510.25868297
   11   -1510.2586918133      3.40E-09 Convergence criterion met
 Total energy in the final basis set = -1510.25869181
   10   -1510.2587041617      9.21E-09 Convergence criterion met
 Total energy in the final basis set = -1510.25870416
    9   -1510.2587119850      6.59E-09 Convergence criterion met
 Total energy in the final basis set = -1510.25871199
   10   -1510.2587187379      5.83E-09 Convergence criterion met
 Total energy in the final basis set = -1510.25871874

             Standard Nuclear Orientation (Angstroms)
    I     Atom           X                Y                Z
 ----------------------------------------------------------------
    1      O      -5.0832826122     1.5156339532     0.9019025873
    2      C      -4.1570452807     1.2939455717     0.0937001846
    3      C      -3.9085957409    -0.0098324385    -0.7474774517
    4      C      -2.5570785772    -0.7606903280    -0.4161226861
    5      C      -1.9701830235    -0.3380171565     0.9829415004
    6      O      -1.1725443412    -1.4076716832     1.5207688343
    7      C       0.0248755826    -0.8794060562     2.2193171583
    8      C       0.9293881471    -0.0039147242     1.2722833909
    9      O       1.9232435020     0.6700583820     2.1450204746
   10      C       3.2475284730     0.7091255313     1.5750879507
   11      C       3.5055915078     1.3713521401     0.1452065883
   12      C       4.3068832088     0.3996706444    -0.8251861655
   13      C       4.4859842316    -1.0517773938    -0.2730154142
   14      O       5.5127120634    -1.7609458409    -0.3098424076
   15      O      -3.2459729213     2.2936566933    -0.3915216925
   16      O       3.2267117128    -1.4975334471     0.2561080781
   17      O       4.2144643279     0.4284222932     2.3183798813
   18      C       3.3607485433    -2.8407462018     0.8617504728
   19      C       2.2855104555     1.7780518858    -0.7765458795
   20      C       2.8138685917     2.7732671340    -1.8855206724
   21      C       3.5690978764     1.7904544711    -2.8528304508
   22      C       3.3583417183     0.4165075641    -2.1072791515
   23      O       1.9976130347     0.5351233137    -1.5346402879
   24      H       4.1232293414     2.2622100345     0.3656397202
   25      H       5.3116236820     0.7899970056    -1.0623353508
   26      H       1.3888018763     2.1371004419    -0.2407130356
   27      H       1.9674012233     3.2665483376    -2.3895446221
   28      H       3.4735215181     3.5488788087    -1.4649991362
   29      H       3.1000981821     1.7626904032    -3.8492643309
   30      H       4.6357220385     2.0393316614    -2.9699557922
   31      H       3.4321905035    -0.4851510421    -2.7460068368
   32      O      -2.1627534372     0.7508216915     1.5688434547
   33      C      -3.4035361558     3.5360647743     0.3946875042
   34      C      -4.9710843017    -1.1657798962    -0.5197578393
   35      C      -4.9950755108    -2.0392081882    -1.8327909864
   36      C      -3.5852377039    -2.7350083440    -1.7444700643
   37      C      -3.0852335797    -2.2536311305    -0.3237654420
   38      O      -4.3312499429    -2.0747084461     0.4615476318
   39      H      -3.9023938562     0.3013645459    -1.8081957588
   40      H      -1.7799607659    -0.6136877519    -1.1887398003
   41      H      -3.0829133029     3.3851868581     1.4460249001
   42      H      -5.9532535626    -0.8172893636    -0.1451670074
   43      H      -5.8105726723    -2.7788510528    -1.7866000555
   44      H      -5.1168001637    -1.4317468456    -2.7438660811
   45      H      -3.6685328080    -3.8327813424    -1.7760083945
   46      H      -2.9043165290    -2.4108131433    -2.5480595058
   47      H      -2.3905180409    -2.9395247119     0.1979605470
   48      H      -4.4537439346     3.8930715897     0.3925334718
   49      H      -2.7529596142     4.2902176271    -0.0852482276
   50      H       2.3389953819    -3.1515197880     1.1473148429
   51      H       4.0053159240    -2.8090383309     1.7640094147
   52      H       3.7877166172    -3.5694427159     0.1435678886
   53      H       1.4314987401    -0.6212492873     0.4967255730
   54      H       0.2793973425     0.7502027193     0.7809085889
   55      H       0.5764461424    -1.7712562615     2.5768125768
   56      H      -0.2635824794    -0.2627204778     3.0999718423
 ----------------------------------------------------------------

    9   -1510.2587194236      6.52E-09 Convergence criterion met
 Total energy in the final basis set = -1510.25871942
 Final energy is   -1510.25871942359
 **  OPTIMIZATION CONVERGED  **

                    Orbital Energies (a.u.)
 --------------------------------------------------------------

 Alpha MOs
 -- Occupied --
-18.949 -18.930 -18.919 -18.918 -18.900 -18.893 -18.891 -18.883
-18.880 -18.863 -10.112 -10.108 -10.105 -10.091 -10.074 -10.073
-10.072 -10.070 -10.064 -10.057 -10.055 -10.054 -10.047 -10.043
-10.040 -10.032 -10.030 -10.029 -10.020 -10.018  -1.025  -1.016
 -1.003  -0.997  -0.982  -0.967  -0.949  -0.945  -0.935  -0.925
 -0.772  -0.762  -0.731  -0.724  -0.715  -0.709  -0.696  -0.671
 -0.654  -0.613  -0.606  -0.583  -0.557  -0.547  -0.543  -0.536
 -0.524  -0.508  -0.498  -0.479  -0.469  -0.456  -0.454  -0.445
 -0.442  -0.432  -0.430  -0.424  -0.419  -0.408  -0.404  -0.401
 -0.398  -0.381  -0.380  -0.373  -0.364  -0.362  -0.355  -0.352
 -0.345  -0.342  -0.336  -0.334  -0.331  -0.330  -0.325  -0.319
 -0.316  -0.310  -0.307  -0.304  -0.299  -0.294  -0.286  -0.276
 -0.276  -0.265  -0.252  -0.248  -0.244  -0.236  -0.231  -0.191
 -0.183  -0.169  -0.167  -0.162  -0.158  -0.157  -0.149  -0.143
 -0.141

          Ground-State Mulliken Net Atomic Charges

     Atom                 Charge (a.u.)
  ----------------------------------------
      1 O                    -0.216514
      2 C                     0.214507
      3 C                    -0.082409
      4 C                    -0.076807
      5 C                     0.218448
      6 O                    -0.178543
      7 C                    -0.047194
      8 C                    -0.061087
      9 O                    -0.183327
     10 C                     0.215545
     11 C                    -0.082590
     12 C                    -0.080798
     13 C                     0.214092
     14 O                    -0.203371
     15 O                    -0.176144
     16 O                    -0.174127
     17 O                    -0.200877
     18 C                    -0.128072
     19 C                     0.019963
     20 C                    -0.143389
     21 C                    -0.143268
     22 C                     0.025240
     23 O                    -0.192728
     24 H                     0.087009
     25 H                     0.089036
     26 H                     0.086378
     27 H                     0.079596
     28 H                     0.075921
     29 H                     0.079539
     30 H                     0.076664
     31 H                     0.083690
     32 O                    -0.198115
     33 C                    -0.128620
     34 C                     0.022961
     35 C                    -0.142244
     36 C                    -0.145341
     37 C                     0.022711
     38 O                    -0.191266
     39 H                     0.082965
     40 H                     0.088015
     41 H                     0.091691
     42 H                     0.089850
     43 H                     0.077798
     44 H                     0.072756
     45 H                     0.077583
     46 H                     0.072550
     47 H                     0.090434
     48 H                     0.087552
     49 H                     0.084528
     50 H                     0.091740
     51 H                     0.095371
     52 H                     0.093818
     53 H                     0.110013
     54 H                     0.076604
     55 H                     0.088684
     56 H                     0.093581
  ----------------------------------------
  Sum of atomic charges =     0.000000

                    Cartesian Multipole Moments
 -----------------------------------------------------------------
    Charge (ESU x 10^10)
                 0.0000
    Dipole Moment (Debye)
         X       1.2513      Y       0.4436      Z      -4.2310
       Tot       4.4344
    Quadrupole Moments (Debye-Ang)
        XX    -180.0709     XY       5.3953     YY    -150.0867
        XZ       1.8448     YZ      -2.5351     ZZ    -163.2785

 Total job time:  54.75s(wall), 2608.24s(cpu)
        *  Thank you very much for using Q-Chem.  Have a nice day.  *
