 Q-Chem 5.0, Q-Chem, Inc., Pleasanton, CA (2017)
 Q-Chem 5.0.1 for Intel X86 EM64T Linux

User input:
--------------------------------------------------------------
$molecule
0  1
O -5.7898135604 -0.1301551937 0.9926383149
C -4.9769215788 -0.6625386398 0.2062193722
C -3.4913030413 -1.0762655875 0.5111159616
C -2.3620923008 -0.1697509012 -0.154345372
C -3.0043335412 1.2442770161 -0.5160975428
O -2.4010235329 2.5189023831 -0.1846438105
C -1.153853697 2.8584813061 -0.9093396466
C 0.2461423824 2.5317123999 -0.265679449
O 0.79232058 1.2879193504 -0.8593687837
C 2.2330604084 1.3838661585 -0.9338657855
C 2.7969558579 -0.0568838822 -1.1762947582
C 4.3631637713 -0.2454916341 -1.1360132424
C 5.1845608221 0.6752417003 -0.1547853291
O 6.4326707181 0.6954363149 -0.0647700704
O -5.322448209 -1.2024135995 -1.0802220783
O 4.3174198121 1.2680378395 0.8131477606
O 2.8487937326 2.4698592105 -0.9015227173
C 5.1105186335 2.0026719785 1.8235076287
C 2.306294919 -1.2017965317 -0.1833386074
C 2.1927179136 -2.518598959 -1.0403681873
C 3.7135204018 -2.7744826138 -1.3598341221
C 4.4155783323 -1.6868330393 -0.4500059659
O 3.4732749866 -1.4899932098 0.6794659773
H 2.4512117408 -0.3227873258 -2.1944331692
H 4.824130894 -0.2225738555 -2.1388835768
H 1.4217442398 -0.9353964269 0.4202108327
H 1.7695339138 -3.3336662335 -0.4310854486
H 1.5764354317 -2.3911105616 -1.9447581433
H 4.0292090942 -3.7878721112 -1.0656223254
H 3.9518182889 -2.6284864754 -2.4258733214
H 5.419782736 -1.9670978494 -0.0764403524
O -4.196694417 1.3063491167 -0.9033952915
C -6.7042275456 -0.8083456392 -1.4298553629
C -3.1126982754 -0.9940464596 2.0491241828
C -2.0315287724 -2.1060328497 2.3062020777
C -0.8366275149 -1.5174976059 1.471315676
C -1.3818486051 -0.0783499928 1.0867616784
O -2.32779188 0.2566381959 2.1783577464
H -3.3760499097 -2.1122421659 0.1444164052
H -1.915198458 -0.632393644 -1.0534910268
H -6.7864966714 0.2902678173 -1.56099822
H -3.9843277282 -0.9795143727 2.7317591456
H -1.7820244287 -2.1644906143 3.3778512263
H -2.3512465819 -3.1012097185 1.9582572823
H 0.076691207 -1.4331923349 2.0808799488
H -0.6098071621 -2.1231112434 0.5790629839
H -0.5951181773 0.6853848544 1.0004607685
H -7.4307745647 -1.1263965145 -0.6541626862
H -6.9366120494 -1.3128968967 -2.3858472663
H 4.386319857 2.3508929898 2.582724152
H 5.6265139353 2.8768799843 1.3763687469
H 5.8693256171 1.3489523976 2.2995920099
H 0.9521835577 3.360990964 -0.4911974538
H 0.168117704 2.4431026698 0.8394113877
H -1.2122594363 3.9635820695 -1.0077318759
H -1.1595333826 2.432933607 -1.9372052634
$end

$rem
JOBTYPE                   OPT
METHOD                    B3LYP
DFT_D                     d3_op
BASIS                     STO-3G
GEOM_OPT_MAX_CYCLES       100
GEOM_OPT_TOL_GRADIENT     300
GEOM_OPT_TOL_DISPLACEMENT 1200
GEOM_OPT_TOL_ENERGY       100
SYMMETRY                  False
THRESH                    12
SCF_CONVERGENCE           8
MAX_SUB_FILE_NUM          128
MEM_STATIC                400
MEM_TOTAL                 4000
$end
--------------------------------------------------------------

   16   -1510.2411482317      5.27E-09 Convergence criterion met
 Total energy in the final basis set = -1510.24114823
   14   -1510.2438733318      3.21E-09 Convergence criterion met
 Total energy in the final basis set = -1510.24387333
   13   -1510.2490064680      5.77E-09 Convergence criterion met
 Total energy in the final basis set = -1510.24900647
   13   -1510.2525186641      5.24E-09 Convergence criterion met
 Total energy in the final basis set = -1510.25251866
   13   -1510.2554535863      6.07E-09 Convergence criterion met
 Total energy in the final basis set = -1510.25545359
   13   -1510.2581783546      7.52E-09 Convergence criterion met
 Total energy in the final basis set = -1510.25817835
   13   -1510.2607198106      9.67E-09 Convergence criterion met
 Total energy in the final basis set = -1510.26071981
   14   -1510.2633618013      4.66E-09 Convergence criterion met
   12   -1510.2845681998      4.40E-09 Convergence criterion met
 Total energy in the final basis set = -1510.28456820
   11   -1510.2845834484      7.50E-09 Convergence criterion met
 Total energy in the final basis set = -1510.28458345
   11   -1510.2845814755      7.19E-09 Convergence criterion met
 Total energy in the final basis set = -1510.28458148
   11   -1510.2845932628      3.58E-09 Convergence criterion met
 Total energy in the final basis set = -1510.28459326
   11   -1510.2845968478      1.52E-09 Convergence criterion met
 Total energy in the final basis set = -1510.28459685
   11   -1510.2845999566      3.03E-09 Convergence criterion met
 Total energy in the final basis set = -1510.28459996

             Standard Nuclear Orientation (Angstroms)
    I     Atom           X                Y                Z
 ----------------------------------------------------------------
    1      O      -4.4133551124    -0.4149493394    -2.0175991559
    2      C      -3.3739336044     0.0586542111    -1.5147178888
    3      C      -2.3729367264    -0.6435125868    -0.5324573808
    4      C      -2.2031599603     0.1019329635     0.8608934872
    5      C      -3.0759428644     1.4103817806     1.0060751150
    6      O      -2.4468273267     2.7065056839     0.9101113684
    7      C      -1.1669420956     2.7561762287     0.1745959731
    8      C       0.1109073456     2.5109698798     1.0724838232
    9      O       0.5074490667     1.0817260597     1.1341182706
   10      C       1.3386909377     0.7397536526     0.0113844940
   11      C       1.6497918102    -0.7921231583     0.0688712403
   12      C       2.7644936827    -1.2501642870    -0.9588526081
   13      C       3.3365444769    -0.0941082434    -1.8601071707
   14      O       3.0679406064     0.1079654533    -3.0642230982
   15      O      -2.8869255384     1.3812640534    -1.7714884407
   16      O       4.3078295086     0.6447233053    -1.1103409375
   17      O       1.7141935782     1.5675965439    -0.8463902771
   18      C       4.8119982534     1.7715081089    -1.9262893811
   19      C       2.3045610706    -1.2272011584     1.4500547849
   20      C       2.2097314822    -2.7992913973     1.5702211706
   21      C       3.3265453213    -3.2486844023     0.5572089484
   22      C       3.8481515602    -1.8510355431     0.0368645386
   23      O       3.7463300907    -0.9791401836     1.2309248649
   24      H       0.6997845071    -1.3297065227    -0.1054637224
   25      H       2.3643424359    -2.0225966029    -1.6391901688
   26      H       1.9339454972    -0.6568715463     2.3238443554
   27      H       2.4434643249    -3.1180576397     2.5984317266
   28      H       1.2117374793    -3.1804956840     1.3024408319
   29      H       4.1362185230    -3.7963307861     1.0650651111
   30      H       2.9337715298    -3.8750356968    -0.2596722112
   31      H       4.8827874267    -1.8480903965    -0.3562644130
   32      O      -4.2908932601     1.4057116919     1.3026738291
   33      C      -3.8306306702     2.1228166045    -2.6368902720
   34      C      -2.9511151884    -2.0424438557    -0.0684150621
   35      C      -1.7879607215    -2.8758857650     0.5971564985
   36      C      -1.6405952718    -2.1382238862     1.9802739168
   37      C      -2.7485165870    -1.0186341352     1.8474042497
   38      O      -3.8211052594    -1.6835114728     1.0743553096
   39      H      -1.3976951214    -0.7454948468    -1.0441657814
   40      H      -1.1352045572     0.3314818842     1.0577753113
   41      H      -4.7973378029     2.2942468645    -2.1204976078
   42      H      -3.5361433066    -2.5647860892    -0.8502291064
   43      H      -2.0925075536    -3.9260280304     0.7298276316
   44      H      -0.8639950635    -2.8521467695    -0.0030447196
   45      H      -1.8701028798    -2.8112497389     2.8215108292
   46      H      -0.6372274148    -1.7111900565     2.1348302335
   47      H      -3.1472356728    -0.6324774111     2.8051741407
   48      H      -4.0250330648     1.5801346553    -3.5842239398
   49      H      -3.3496086464     3.0941835235    -2.8536962964
   50      H       5.5754759639     2.2795123412    -1.3090442156
   51      H       3.9969562593     2.4827878352    -2.1717413970
   52      H       5.2708771211     1.4196825075    -2.8729253802
   53      H       0.9541775916     3.1083719560     0.6673710965
   54      H      -0.0993012456     2.8163146808     2.1176758497
   55      H      -1.1077527750     3.7977901664    -0.2046966655
   56      H      -1.1841327444     2.0747908959    -0.7034109671
 ----------------------------------------------------------------

   10   -1510.2845992271      9.57E-09 Convergence criterion met
 Total energy in the final basis set = -1510.28459923
 Final energy is   -1510.28459922708
 **  OPTIMIZATION CONVERGED  **

                    Orbital Energies (a.u.)
 --------------------------------------------------------------

 Alpha MOs
 -- Occupied --
-18.963 -18.941 -18.929 -18.923 -18.908 -18.897 -18.886 -18.884
-18.869 -18.867 -10.125 -10.105 -10.097 -10.094 -10.086 -10.076
-10.071 -10.068 -10.067 -10.060 -10.059 -10.057 -10.054 -10.043
-10.041 -10.029 -10.027 -10.024 -10.023 -10.021  -1.039  -1.018
 -1.006  -0.999  -0.979  -0.969  -0.964  -0.943  -0.931  -0.931
 -0.774  -0.763  -0.735  -0.725  -0.722  -0.708  -0.703  -0.666
 -0.659  -0.626  -0.601  -0.593  -0.555  -0.550  -0.545  -0.540
 -0.525  -0.510  -0.496  -0.485  -0.476  -0.464  -0.456  -0.454
 -0.442  -0.430  -0.427  -0.419  -0.416  -0.414  -0.413  -0.406
 -0.403  -0.399  -0.384  -0.374  -0.372  -0.365  -0.356  -0.352
 -0.348  -0.343  -0.341  -0.340  -0.335  -0.331  -0.326  -0.319
 -0.314  -0.310  -0.309  -0.302  -0.297  -0.295  -0.291  -0.284
 -0.274  -0.271  -0.259  -0.250  -0.243  -0.238  -0.234  -0.203
 -0.185  -0.179  -0.172  -0.165  -0.161  -0.153  -0.147  -0.143
 -0.140

          Ground-State Mulliken Net Atomic Charges

     Atom                 Charge (a.u.)
  ----------------------------------------
      1 O                    -0.203507
      2 C                     0.212606
      3 C                    -0.081637
      4 C                    -0.104095
      5 C                     0.204239
      6 O                    -0.176022
      7 C                    -0.055242
      8 C                    -0.055522
      9 O                    -0.172226
     10 C                     0.216812
     11 C                    -0.079282
     12 C                    -0.081666
     13 C                     0.212507
     14 O                    -0.217817
     15 O                    -0.178070
     16 O                    -0.169895
     17 O                    -0.199582
     18 C                    -0.127833
     19 C                     0.024158
     20 C                    -0.145012
     21 C                    -0.144199
     22 C                     0.026915
     23 O                    -0.185518
     24 H                     0.083951
     25 H                     0.083763
     26 H                     0.087840
     27 H                     0.080033
     28 H                     0.074796
     29 H                     0.079674
     30 H                     0.074414
     31 H                     0.087909
     32 O                    -0.200703
     33 C                    -0.127638
     34 C                     0.024783
     35 C                    -0.144759
     36 C                    -0.146004
     37 C                     0.026150
     38 O                    -0.185008
     39 H                     0.076471
     40 H                     0.097596
     41 H                     0.095289
     42 H                     0.090213
     43 H                     0.079093
     44 H                     0.064875
     45 H                     0.077970
     46 H                     0.071689
     47 H                     0.085740
     48 H                     0.091981
     49 H                     0.091657
     50 H                     0.088707
     51 H                     0.091489
     52 H                     0.087328
     53 H                     0.100002
     54 H                     0.097896
     55 H                     0.091486
     56 H                     0.101204
  ----------------------------------------
  Sum of atomic charges =     0.000000

                    Cartesian Multipole Moments
 -----------------------------------------------------------------
    Charge (ESU x 10^10)
                 0.0000
    Dipole Moment (Debye)
         X       3.7186      Y      -0.5597      Z      -0.0762
       Tot       3.7612
    Quadrupole Moments (Debye-Ang)
        XX    -185.8577     XY      -2.2692     YY    -149.4462
        XZ       5.8678     YZ      -4.1768     ZZ    -163.2796

 Total job time:  160.06s(wall), 7633.58s(cpu)
        *  Thank you very much for using Q-Chem.  Have a nice day.  *
