 Q-Chem 5.0, Q-Chem, Inc., Pleasanton, CA (2017)
 Q-Chem 5.0.1 for Intel X86 EM64T Linux

User input:
--------------------------------------------------------------
$molecule
0  1
O -3.94934 -3.66094 2.70899
C -3.26408 -4.56952 2.26188
C -3.36658 -6.02376 2.66595
C -2.23166 -6.59394 3.53238
C -1.2119 -5.60188 4.04622
O -1.01053 -5.79397 5.38337
C -0.34792 -7.02736 5.68159
C -1.37293 -8.11197 5.99637
O -1.56666 -8.95075 4.84668
C -1.82538 -10.25501 5.11335
C -2.38267 -10.99952 3.92349
C -2.84144 -12.4357 4.21541
C -3.01193 -12.79031 5.67893
O -3.29838 -13.89737 6.11129
O -2.27762 -4.26879 1.37716
O -3.39995 -11.76898 6.49764
O -1.13145 -10.84169 5.93776
C -3.79905 -11.90057 7.8128
C -3.5533 -10.47848 3.1096
C -3.58324 -11.10998 1.7108
C -4.09686 -12.49393 2.03258
C -4.23381 -12.38971 3.54846
O -4.66382 -11.05813 3.74461
H -1.51025 -11.03134 3.2315
H -2.18145 -13.21311 3.76999
H -3.47569 -9.39604 2.97673
H -4.3461 -10.58439 1.0932
H -2.60237 -11.08034 1.18886
H -5.11431 -12.60448 1.59433
H -3.44991 -13.33334 1.69795
H -4.91839 -13.18296 3.92268
O -0.42438 -4.98648 3.34547
C -2.00572 -2.99686 0.91875
C -4.7137 -6.09613 3.38194
C -5.206 -7.50626 3.64406
C -4.33651 -7.8137 4.82477
C -3.37368 -6.6302 4.77333
O -4.29975 -5.60027 4.5848
H -3.45346 -6.5999 1.71786
H -1.80459 -7.52911 3.13075
H -1.73016 -2.33525 1.76773
H -5.52284 -5.52768 2.86674
H -6.27063 -7.54807 3.96582
H -5.09119 -8.09037 2.71159
H -4.96178 -7.62168 5.7313
H -4.01028 -8.84226 4.99684
H -3.05439 -6.44437 5.7996
H -2.89128 -2.58272 0.39096
H -1.15421 -3.0404 0.20921
H -4.0423 -10.89753 8.21932
H -2.97912 -12.34359 8.41717
H -4.70487 -12.54037 7.87787
H -0.73647 -8.70648 6.6909
H -2.22481 -8.0054 6.69606
H 0.22959 -6.80968 6.60871
H 0.40747 -7.34017 4.92298
$end

$opt
CONSTRAINT
tors           1           2           3           4    -107.551
tors           3           4           5           6    +131.809
tors           4           5           6           7     +68.573
tors           5           6           7           8     -94.480
tors           6           7           8           9    +100.216
tors           7           8           9          10    +146.306
tors           8           9          10          11    +164.395
tors           9          10          11          12    -173.366
tors          11          12          13          14    -175.841
ENDCONSTRAINT
$end

$rem
JOBTYPE                   OPT
METHOD                    B3LYP
DFT_D                     d3_op
BASIS                     STO-3G
GEOM_OPT_MAX_CYCLES       100
GEOM_OPT_TOL_GRADIENT     300
GEOM_OPT_TOL_DISPLACEMENT 1200
GEOM_OPT_TOL_ENERGY       100
SYMMETRY                  False
THRESH                    12
SCF_CONVERGENCE           8
MAX_SUB_FILE_NUM          128
MEM_STATIC                400
MEM_TOTAL                 4000
$end
--------------------------------------------------------------

   16   -1509.9905486089      2.36E-09 Convergence criterion met
 Total energy in the final basis set = -1509.99054861
   14   -1510.0756989838      5.51E-09 Convergence criterion met
 Total energy in the final basis set = -1510.07569898
   14   -1510.1297607514      4.67E-09 Convergence criterion met
 Total energy in the final basis set = -1510.12976075
   13   -1510.1648229715      9.28E-09 Convergence criterion met
 Total energy in the final basis set = -1510.16482297
   14   -1510.1853913328      2.07E-09 Convergence criterion met
 Total energy in the final basis set = -1510.18539133
   13   -1510.1999979394      6.97E-09 Convergence criterion met
 Total energy in the final basis set = -1510.19999794
   13   -1510.2087154849      4.06E-09 Convergence criterion met
 Total energy in the final basis set = -1510.20871548
   13   -1510.2148489071      3.03E-09 Convergence criterion met
   12   -1510.2408699932      5.03E-09 Convergence criterion met
 Total energy in the final basis set = -1510.24086999
   12   -1510.2409435872      2.80E-09 Convergence criterion met
 Total energy in the final basis set = -1510.24094359
   11   -1510.2409728906      6.70E-09 Convergence criterion met
 Total energy in the final basis set = -1510.24097289
   11   -1510.2409875583      2.40E-09 Convergence criterion met
 Total energy in the final basis set = -1510.24098756
   10   -1510.2409975765      7.79E-09 Convergence criterion met
 Total energy in the final basis set = -1510.24099758
    9   -1510.2410021238      6.12E-09 Convergence criterion met
 Total energy in the final basis set = -1510.24100212

             Standard Nuclear Orientation (Angstroms)
    I     Atom           X                Y                Z
 ----------------------------------------------------------------
    1      O      -5.7898135604    -0.1301551937     0.9926383149
    2      C      -4.9769215788    -0.6625386398     0.2062193722
    3      C      -3.4913030413    -1.0762655875     0.5111159616
    4      C      -2.3620923008    -0.1697509012    -0.1543453720
    5      C      -3.0043335412     1.2442770161    -0.5160975428
    6      O      -2.4010235329     2.5189023831    -0.1846438105
    7      C      -1.1538536970     2.8584813061    -0.9093396466
    8      C       0.2461423824     2.5317123999    -0.2656794490
    9      O       0.7923205800     1.2879193504    -0.8593687837
   10      C       2.2330604084     1.3838661585    -0.9338657855
   11      C       2.7969558579    -0.0568838822    -1.1762947582
   12      C       4.3631637713    -0.2454916341    -1.1360132424
   13      C       5.1845608221     0.6752417003    -0.1547853291
   14      O       6.4326707181     0.6954363149    -0.0647700704
   15      O      -5.3224482090    -1.2024135995    -1.0802220783
   16      O       4.3174198121     1.2680378395     0.8131477606
   17      O       2.8487937326     2.4698592105    -0.9015227173
   18      C       5.1105186335     2.0026719785     1.8235076287
   19      C       2.3062949190    -1.2017965317    -0.1833386074
   20      C       2.1927179136    -2.5185989590    -1.0403681873
   21      C       3.7135204018    -2.7744826138    -1.3598341221
   22      C       4.4155783323    -1.6868330393    -0.4500059659
   23      O       3.4732749866    -1.4899932098     0.6794659773
   24      H       2.4512117408    -0.3227873258    -2.1944331692
   25      H       4.8241308940    -0.2225738555    -2.1388835768
   26      H       1.4217442398    -0.9353964269     0.4202108327
   27      H       1.7695339138    -3.3336662335    -0.4310854486
   28      H       1.5764354317    -2.3911105616    -1.9447581433
   29      H       4.0292090942    -3.7878721112    -1.0656223254
   30      H       3.9518182889    -2.6284864754    -2.4258733214
   31      H       5.4197827360    -1.9670978494    -0.0764403524
   32      O      -4.1966944170     1.3063491167    -0.9033952915
   33      C      -6.7042275456    -0.8083456392    -1.4298553629
   34      C      -3.1126982754    -0.9940464596     2.0491241828
   35      C      -2.0315287724    -2.1060328497     2.3062020777
   36      C      -0.8366275149    -1.5174976059     1.4713156760
   37      C      -1.3818486051    -0.0783499928     1.0867616784
   38      O      -2.3277918800     0.2566381959     2.1783577464
   39      H      -3.3760499097    -2.1122421659     0.1444164052
   40      H      -1.9151984580    -0.6323936440    -1.0534910268
   41      H      -6.7864966714     0.2902678173    -1.5609982200
   42      H      -3.9843277282    -0.9795143727     2.7317591456
   43      H      -1.7820244287    -2.1644906143     3.3778512263
   44      H      -2.3512465819    -3.1012097185     1.9582572823
   45      H       0.0766912070    -1.4331923349     2.0808799488
   46      H      -0.6098071621    -2.1231112434     0.5790629839
   47      H      -0.5951181773     0.6853848544     1.0004607685
   48      H      -7.4307745647    -1.1263965145    -0.6541626862
   49      H      -6.9366120494    -1.3128968967    -2.3858472663
   50      H       4.3863198570     2.3508929898     2.5827241520
   51      H       5.6265139353     2.8768799843     1.3763687469
   52      H       5.8693256171     1.3489523976     2.2995920099
   53      H       0.9521835577     3.3609909640    -0.4911974538
   54      H       0.1681177040     2.4431026698     0.8394113877
   55      H      -1.2122594363     3.9635820695    -1.0077318759
   56      H      -1.1595333826     2.4329336070    -1.9372052634
 ----------------------------------------------------------------

    9   -1510.2410025800      7.06E-09 Convergence criterion met
 Total energy in the final basis set = -1510.24100258
 Final energy is   -1510.24100258000
 **  OPTIMIZATION CONVERGED  **

                    Orbital Energies (a.u.)
 --------------------------------------------------------------

 Alpha MOs
 -- Occupied --
-18.935 -18.935 -18.926 -18.917 -18.902 -18.894 -18.891 -18.887
-18.869 -18.857 -10.111 -10.111 -10.099 -10.089 -10.083 -10.076
-10.066 -10.066 -10.063 -10.061 -10.057 -10.052 -10.046 -10.045
-10.044 -10.032 -10.028 -10.027 -10.023 -10.020  -1.021  -1.013
 -1.009  -0.994  -0.978  -0.971  -0.948  -0.939  -0.932  -0.922
 -0.770  -0.763  -0.731  -0.723  -0.722  -0.705  -0.704  -0.661
 -0.652  -0.619  -0.601  -0.589  -0.552  -0.548  -0.544  -0.539
 -0.522  -0.510  -0.491  -0.486  -0.473  -0.456  -0.452  -0.445
 -0.443  -0.433  -0.425  -0.417  -0.412  -0.410  -0.403  -0.400
 -0.397  -0.391  -0.385  -0.370  -0.363  -0.362  -0.354  -0.352
 -0.345  -0.343  -0.340  -0.337  -0.329  -0.327  -0.324  -0.321
 -0.312  -0.310  -0.307  -0.304  -0.297  -0.295  -0.277  -0.276
 -0.273  -0.262  -0.248  -0.244  -0.241  -0.240  -0.233  -0.189
 -0.179  -0.171  -0.164  -0.162  -0.158  -0.152  -0.149  -0.145
 -0.139

          Ground-State Mulliken Net Atomic Charges

     Atom                 Charge (a.u.)
  ----------------------------------------
      1 O                    -0.219986
      2 C                     0.214014
      3 C                    -0.081838
      4 C                    -0.076765
      5 C                     0.218541
      6 O                    -0.175055
      7 C                    -0.048255
      8 C                    -0.060696
      9 O                    -0.185526
     10 C                     0.215724
     11 C                    -0.079835
     12 C                    -0.076394
     13 C                     0.212620
     14 O                    -0.218167
     15 O                    -0.175800
     16 O                    -0.164805
     17 O                    -0.202555
     18 C                    -0.126001
     19 C                     0.023858
     20 C                    -0.141882
     21 C                    -0.145529
     22 C                     0.024001
     23 O                    -0.190228
     24 H                     0.084194
     25 H                     0.086557
     26 H                     0.088792
     27 H                     0.077513
     28 H                     0.073081
     29 H                     0.079762
     30 H                     0.074738
     31 H                     0.086382
     32 O                    -0.178152
     33 C                    -0.128322
     34 C                     0.022635
     35 C                    -0.141787
     36 C                    -0.147039
     37 C                     0.018953
     38 O                    -0.190670
     39 H                     0.082774
     40 H                     0.087005
     41 H                     0.091306
     42 H                     0.091171
     43 H                     0.078577
     44 H                     0.073829
     45 H                     0.078709
     46 H                     0.072572
     47 H                     0.085245
     48 H                     0.086701
     49 H                     0.085241
     50 H                     0.090207
     51 H                     0.089606
     52 H                     0.090972
     53 H                     0.101216
     54 H                     0.088092
     55 H                     0.093959
     56 H                     0.086736
  ----------------------------------------
  Sum of atomic charges =    -0.000000

                    Cartesian Multipole Moments
 -----------------------------------------------------------------
    Charge (ESU x 10^10)
                 0.0000
    Dipole Moment (Debye)
         X       1.5930      Y      -2.2274      Z      -2.0886
       Tot       3.4440
    Quadrupole Moments (Debye-Ang)
        XX    -185.4492     XY       5.1296     YY    -155.3556
        XZ       5.7802     YZ       0.8419     ZZ    -156.9194

 Total job time:  86.70s(wall), 4135.00s(cpu)
        *  Thank you very much for using Q-Chem.  Have a nice day.  *
