 Q-Chem 5.0, Q-Chem, Inc., Pleasanton, CA (2017)
 Q-Chem 5.0.1 for Intel X86 EM64T Linux

User input:
--------------------------------------------------------------
$molecule
0  1
O -3.94934 -3.66094 2.70899
C -3.26408 -4.56952 2.26188
C -3.36658 -6.02376 2.66595
C -2.33974 -6.99513 2.06106
C -1.21625 -6.37586 1.25959
O -0.43778 -5.60241 2.07273
C 0.96301 -5.7484 1.81639
C 1.76624 -5.37595 3.05826
O 3.03478 -4.82338 2.67311
C 3.84372 -4.45174 3.69617
C 5.1602 -3.87934 3.22722
C 6.38964 -4.74619 3.53594
C 6.10409 -6.18132 3.93038
O 5.53401 -6.53554 4.95219
O -2.47333 -4.21103 1.21505
O 6.51687 -7.15864 3.07577
O 3.55504 -4.57638 4.88007
C 6.32105 -8.50934 3.27598
C 5.33246 -3.70009 1.69596
C 6.35517 -2.59895 1.42149
C 7.62984 -3.28078 1.86851
C 7.09726 -4.68809 2.16465
O 6.02274 -4.84893 1.2718
H 5.22574 -2.86807 3.68856
H 7.01524 -4.31878 4.34987
H 4.39041 -3.46422 1.15546
H 6.39264 -2.46612 0.31602
H 6.15146 -1.61568 1.89743
H 8.34069 -3.29008 1.01259
H 8.11604 -2.83882 2.76517
H 7.9247 -5.42577 2.07725
O -0.92598 -6.69661 0.11409
C -2.32251 -2.92913 0.72444
C -3.07789 -6.23489 4.16831
C -3.73421 -7.53083 4.64503
C -2.83893 -8.5609 3.98583
C -1.79001 -7.64592 3.34531
O -1.71021 -6.55586 4.23177
H -4.41652 -6.32832 2.45666
H -2.83097 -7.74107 1.39702
H -1.91538 -2.2635 1.51533
H -3.40964 -5.38329 4.80188
H -3.58582 -7.58848 5.74731
H -4.81757 -7.62583 4.41668
H -2.37452 -9.18418 4.7821
H -3.3359 -9.21215 3.2346
H -0.84304 -8.20014 3.16191
H -3.29851 -2.53746 0.36644
H -1.61131 -2.94814 -0.12659
H 6.75739 -9.07007 2.42418
H 5.23425 -8.73345 3.33264
H 6.82185 -8.83432 4.21291
H 1.21453 -4.56324 3.5841
H 1.85218 -6.25016 3.74153
H 1.19791 -5.00319 1.02415
H 1.27354 -6.75469 1.45079
$end

$opt
CONSTRAINT
tors           1           2           3           4    -175.522
tors           3           4           5           6     +64.471
tors           4           5           6           7    +138.366
tors           5           6           7           8    -155.873
tors           6           7           8           9    -148.888
tors           7           8           9          10    -180.000
tors           8           9          10          11    -180.000
tors           9          10          11          12    -111.810
tors          11          12          13          14     -66.316
ENDCONSTRAINT
$end

$rem
JOBTYPE                   OPT
METHOD                    B3LYP
DFT_D                     d3_op
BASIS                     STO-3G
GEOM_OPT_MAX_CYCLES       100
GEOM_OPT_TOL_GRADIENT     300
GEOM_OPT_TOL_DISPLACEMENT 1200
GEOM_OPT_TOL_ENERGY       100
SYMMETRY                  False
THRESH                    12
SCF_CONVERGENCE           8
MAX_SUB_FILE_NUM          128
MEM_STATIC                400
MEM_TOTAL                 4000
$end
--------------------------------------------------------------

   15   -1510.1354985045      7.14E-09 Convergence criterion met
 Total energy in the final basis set = -1510.13549850
   13   -1510.2063671090      7.58E-09 Convergence criterion met
 Total energy in the final basis set = -1510.20636711
   13   -1510.2441228001      9.13E-09 Convergence criterion met
 Total energy in the final basis set = -1510.24412280
   14   -1510.2593554540      5.18E-09 Convergence criterion met
 Total energy in the final basis set = -1510.25935545
   14   -1510.2627702686      4.91E-09 Convergence criterion met
 Total energy in the final basis set = -1510.26277027
   13   -1510.2634353375      6.07E-09 Convergence criterion met
 Total energy in the final basis set = -1510.26343534
   12   -1510.2640789908      8.80E-09 Convergence criterion met
 Total energy in the final basis set = -1510.26407899
   11   -1510.2642136907      8.77E-09 Convergence criterion met
   12   -1510.2645057872      8.00E-09 Convergence criterion met
 Total energy in the final basis set = -1510.26450579
   12   -1510.2646249352      6.43E-09 Convergence criterion met
 Total energy in the final basis set = -1510.26462494
   11   -1510.2646881645      9.09E-09 Convergence criterion met
 Total energy in the final basis set = -1510.26468816
   11   -1510.2647055001      3.72E-09 Convergence criterion met
 Total energy in the final basis set = -1510.26470550
   11   -1510.2647135556      2.05E-09 Convergence criterion met
 Total energy in the final basis set = -1510.26471356
   10   -1510.2647163046      7.22E-09 Convergence criterion met
 Total energy in the final basis set = -1510.26471630

             Standard Nuclear Orientation (Angstroms)
    I     Atom           X                Y                Z
 ----------------------------------------------------------------
    1      O      -5.5414289939     2.0180089226     1.4482701611
    2      C      -4.9323327808     1.4793432075     0.4986565158
    3      C      -5.0983396497    -0.0027054210     0.0110785087
    4      C      -4.1371473695    -0.4950154206    -1.1481250436
    5      C      -2.9212939435     0.4445208545    -1.4962327070
    6      O      -2.0186994718     0.5285443194    -0.3695826925
    7      C      -0.6155393208     0.4685486465    -0.8393087304
    8      C       0.2443664785    -0.0559218263     0.3618416021
    9      O       1.5800248296     0.5729587011     0.2130732595
   10      C       2.4534488505     0.1585817237     1.2679618908
   11      C       3.8577510480     0.8422582347     1.0801811603
   12      C       5.0360095744    -0.1641642221     0.6968400116
   13      C       4.5747087142    -1.6601349582     0.5504337270
   14      O       4.1483939553    -2.4033066255     1.4608538206
   15      O      -4.0855318030     2.1955061966    -0.4031368911
   16      O       4.6786892248    -2.0711948139    -0.8180810862
   17      O       2.1056336860    -0.6027379042     2.1962369514
   18      C       4.2158695867    -3.4706192054    -0.9594572124
   19      C       3.9224438936     1.8506845096    -0.1418194669
   20      C       5.1803933546     2.7861437262     0.0524624366
   21      C       6.3500340140     1.7998623045    -0.3143439040
   22      C       5.5456193487     0.4842127909    -0.6579251995
   23      O       4.3020324079     0.9889498872    -1.2848881425
   24      H       4.0978041339     1.3483115482     2.0332152087
   25      H       5.8186649709    -0.1397539685     1.4776586280
   26      H       2.9687840142     2.3714646372    -0.3496262199
   27      H       5.1377850134     3.6378021322    -0.6449668754
   28      H       5.2550944347     3.1751379930     1.0805475455
   29      H       6.9090290318     2.1480315450    -1.1972692425
   30      H       7.0589777623     1.6502518018     0.5155510768
   31      H       6.0603558993    -0.2241730647    -1.3339951881
   32      O      -2.6472577404     0.8743235593    -2.6376138221
   33      C      -3.9054800215     3.5959743559     0.0368404162
   34      C      -4.8160713189    -1.0861474525     1.1417036965
   35      C      -5.6141779282    -2.3927926343     0.7564491598
   36      C      -4.7714623575    -2.9040541002    -0.4702292857
   37      C      -3.5965315420    -1.8460318038    -0.5023378204
   38      O      -3.4071326335    -1.4799020998     0.9200542439
   39      H      -6.1505769997    -0.0901268374    -0.3198940390
   40      H      -4.6968902169    -0.6706045890    -2.0837612249
   41      H      -3.3906049549     3.6480739238     1.0177368214
   42      H      -4.9662015928    -0.7203923683     2.1761383392
   43      H      -5.5911645550    -3.1144038762     1.5888853558
   44      H      -6.6646374533    -2.1842046452     0.4979735872
   45      H      -4.3756140361    -3.9173475518    -0.2980534386
   46      H      -5.3473701805    -2.9043429658    -1.4093877596
   47      H      -2.6462344715    -2.2138850463    -0.9352507781
   48      H      -4.8783605130     4.1226457185     0.1170489846
   49      H      -3.2806640645     4.0784031360    -0.7371155804
   50      H       4.2930325231    -3.7090907156    -2.0362106557
   51      H       3.1647053361    -3.5880532220    -0.6258481779
   52      H       4.8482818841    -4.1720254627    -0.3774013416
   53      H      -0.2338259078     0.2492710513     1.3190021279
   54      H       0.3203154810    -1.1642166804     0.3582187873
   55      H      -0.2441781128     1.4795411906    -1.1257824363
   56      H      -0.5100803495    -0.1903660675    -1.7267503963
 ----------------------------------------------------------------

   10   -1510.2647166720      6.59E-09 Convergence criterion met
 Total energy in the final basis set = -1510.26471667
 Final energy is   -1510.26471667202
 **  OPTIMIZATION CONVERGED  **

                    Orbital Energies (a.u.)
 --------------------------------------------------------------

 Alpha MOs
 -- Occupied --
-18.945 -18.933 -18.931 -18.910 -18.890 -18.883 -18.878 -18.872
-18.872 -18.868 -10.105 -10.096 -10.096 -10.095 -10.069 -10.069
-10.067 -10.063 -10.062 -10.061 -10.055 -10.055 -10.040 -10.037
-10.036 -10.036 -10.022 -10.021 -10.018 -10.017  -1.018  -1.011
 -1.007  -0.998  -0.972  -0.966  -0.941  -0.936  -0.931  -0.925
 -0.764  -0.760  -0.726  -0.721  -0.712  -0.706  -0.692  -0.666
 -0.659  -0.610  -0.597  -0.576  -0.546  -0.543  -0.539  -0.535
 -0.517  -0.512  -0.488  -0.476  -0.469  -0.467  -0.441  -0.436
 -0.434  -0.430  -0.422  -0.414  -0.411  -0.411  -0.408  -0.399
 -0.395  -0.384  -0.374  -0.369  -0.360  -0.351  -0.348  -0.345
 -0.343  -0.337  -0.332  -0.331  -0.329  -0.325  -0.317  -0.315
 -0.308  -0.307  -0.304  -0.299  -0.291  -0.287  -0.282  -0.278
 -0.277  -0.258  -0.252  -0.246  -0.237  -0.231  -0.230  -0.184
 -0.178  -0.172  -0.163  -0.157  -0.157  -0.144  -0.143  -0.141
 -0.140

          Ground-State Mulliken Net Atomic Charges

     Atom                 Charge (a.u.)
  ----------------------------------------
      1 O                    -0.213062
      2 C                     0.213098
      3 C                    -0.079334
      4 C                    -0.079254
      5 C                     0.221010
      6 O                    -0.182136
      7 C                    -0.045149
      8 C                    -0.045584
      9 O                    -0.173078
     10 C                     0.204630
     11 C                    -0.078402
     12 C                    -0.078088
     13 C                     0.204184
     14 O                    -0.207726
     15 O                    -0.163573
     16 O                    -0.168105
     17 O                    -0.205661
     18 C                    -0.127881
     19 C                     0.023844
     20 C                    -0.144511
     21 C                    -0.144633
     22 C                     0.023843
     23 O                    -0.189058
     24 H                     0.084638
     25 H                     0.084519
     26 H                     0.089703
     27 H                     0.077120
     28 H                     0.072408
     29 H                     0.077214
     30 H                     0.072424
     31 H                     0.090222
     32 O                    -0.214475
     33 C                    -0.124799
     34 C                     0.025829
     35 C                    -0.142620
     36 C                    -0.144896
     37 C                     0.026139
     38 O                    -0.185564
     39 H                     0.085559
     40 H                     0.084156
     41 H                     0.091883
     42 H                     0.088183
     43 H                     0.078828
     44 H                     0.074009
     45 H                     0.078288
     46 H                     0.073988
     47 H                     0.079667
     48 H                     0.092290
     49 H                     0.095444
     50 H                     0.090573
     51 H                     0.089497
     52 H                     0.088331
     53 H                     0.095978
     54 H                     0.088845
     55 H                     0.086828
     56 H                     0.084419
  ----------------------------------------
  Sum of atomic charges =    -0.000000

                    Cartesian Multipole Moments
 -----------------------------------------------------------------
    Charge (ESU x 10^10)
                 0.0000
    Dipole Moment (Debye)
         X       0.1139      Y       0.0713      Z      -1.0425
       Tot       1.0511
    Quadrupole Moments (Debye-Ang)
        XX    -140.5763     XY       9.2758     YY    -148.1517
        XZ       3.2339     YZ       9.6693     ZZ    -173.0660

 Total job time:  46.19s(wall), 2193.03s(cpu)
        *  Thank you very much for using Q-Chem.  Have a nice day.  *
