 Q-Chem 5.0, Q-Chem, Inc., Pleasanton, CA (2017)
 Q-Chem 5.0.1 for Intel X86 EM64T Linux

User input:
--------------------------------------------------------------
$molecule
0  1
O -5.5414289939 2.0180089226 1.4482701611
C -4.9323327808 1.4793432075 0.4986565158
C -5.0983396497 -0.002705421 0.0110785087
C -4.1371473695 -0.4950154206 -1.1481250436
C -2.9212939435 0.4445208545 -1.496232707
O -2.0186994718 0.5285443194 -0.3695826925
C -0.6155393208 0.4685486465 -0.8393087304
C 0.2443664785 -0.0559218263 0.3618416021
O 1.5800248296 0.5729587011 0.2130732595
C 2.4534488505 0.1585817237 1.2679618908
C 3.857751048 0.8422582347 1.0801811603
C 5.0360095744 -0.1641642221 0.6968400116
C 4.5747087142 -1.6601349582 0.550433727
O 4.1483939553 -2.4033066255 1.4608538206
O -4.085531803 2.1955061966 -0.4031368911
O 4.6786892248 -2.0711948139 -0.8180810862
O 2.105633686 -0.6027379042 2.1962369514
C 4.2158695867 -3.4706192054 -0.9594572124
C 3.9224438936 1.8506845096 -0.1418194669
C 5.1803933546 2.7861437262 0.0524624366
C 6.350034014 1.7998623045 -0.314343904
C 5.5456193487 0.4842127909 -0.6579251995
O 4.3020324079 0.9889498872 -1.2848881425
H 4.0978041339 1.3483115482 2.0332152087
H 5.8186649709 -0.1397539685 1.477658628
H 2.9687840142 2.3714646372 -0.3496262199
H 5.1377850134 3.6378021322 -0.6449668754
H 5.2550944347 3.175137993 1.0805475455
H 6.9090290318 2.148031545 -1.1972692425
H 7.0589777623 1.6502518018 0.5155510768
H 6.0603558993 -0.2241730647 -1.3339951881
O -2.6472577404 0.8743235593 -2.6376138221
C -3.9054800215 3.5959743559 0.0368404162
C -4.8160713189 -1.0861474525 1.1417036965
C -5.6141779282 -2.3927926343 0.7564491598
C -4.7714623575 -2.9040541002 -0.4702292857
C -3.596531542 -1.8460318038 -0.5023378204
O -3.4071326335 -1.4799020998 0.9200542439
H -6.1505769997 -0.0901268374 -0.319894039
H -4.6968902169 -0.670604589 -2.0837612249
H -3.3906049549 3.6480739238 1.0177368214
H -4.9662015928 -0.7203923683 2.1761383392
H -5.591164555 -3.1144038762 1.5888853558
H -6.6646374533 -2.1842046452 0.4979735872
H -4.3756140361 -3.9173475518 -0.2980534386
H -5.3473701805 -2.9043429658 -1.4093877596
H -2.6462344715 -2.2138850463 -0.9352507781
H -4.878360513 4.1226457185 0.1170489846
H -3.2806640645 4.078403136 -0.7371155804
H 4.2930325231 -3.7090907156 -2.0362106557
H 3.1647053361 -3.588053222 -0.6258481779
H 4.8482818841 -4.1720254627 -0.3774013416
H -0.2338259078 0.2492710513 1.3190021279
H 0.320315481 -1.1642166804 0.3582187873
H -0.2441781128 1.4795411906 -1.1257824363
H -0.5100803495 -0.1903660675 -1.7267503963
$end

$rem
JOBTYPE                   OPT
METHOD                    B3LYP
DFT_D                     d3_op
BASIS                     STO-3G
GEOM_OPT_MAX_CYCLES       100
GEOM_OPT_TOL_GRADIENT     300
GEOM_OPT_TOL_DISPLACEMENT 1200
GEOM_OPT_TOL_ENERGY       100
SYMMETRY                  False
THRESH                    12
SCF_CONVERGENCE           8
MAX_SUB_FILE_NUM          128
MEM_STATIC                400
MEM_TOTAL                 4000
$end
--------------------------------------------------------------

   16   -1510.2647659106      5.18E-09 Convergence criterion met
 Total energy in the final basis set = -1510.26476591
   14   -1510.2688947990      3.35E-09 Convergence criterion met
 Total energy in the final basis set = -1510.26889480
   14   -1510.2720561499      5.39E-09 Convergence criterion met
 Total energy in the final basis set = -1510.27205615
   14   -1510.2744667924      4.00E-09 Convergence criterion met
 Total energy in the final basis set = -1510.27446679
   14   -1510.2764620336      2.23E-09 Convergence criterion met
 Total energy in the final basis set = -1510.27646203
   13   -1510.2776768201      7.76E-09 Convergence criterion met
 Total energy in the final basis set = -1510.27767682
   13   -1510.2788288764      9.09E-09 Convergence criterion met
 Total energy in the final basis set = -1510.27882888
   13   -1510.2800100737      9.60E-09 Convergence criterion met
   13   -1510.3060075795      2.85E-09 Convergence criterion met
 Total energy in the final basis set = -1510.30600758
   12   -1510.3060086532      4.02E-09 Convergence criterion met
 Total energy in the final basis set = -1510.30600865
   12   -1510.3060284211      2.59E-09 Convergence criterion met
 Total energy in the final basis set = -1510.30602842
   12   -1510.3060066991      5.28E-09 Convergence criterion met
 Total energy in the final basis set = -1510.30600670
   12   -1510.3060316901      4.51E-09 Convergence criterion met
 Total energy in the final basis set = -1510.30603169
    9   -1510.3060323449      3.55E-09 Convergence criterion met
 Total energy in the final basis set = -1510.30603234

             Standard Nuclear Orientation (Angstroms)
    I     Atom           X                Y                Z
 ----------------------------------------------------------------
    1      O      -2.2026708540     1.2661146911     0.9233422608
    2      C      -2.2379146349     0.6816570536    -0.1817798906
    3      C      -3.4039450066    -0.1823823214    -0.7907186377
    4      C      -2.9772542876    -1.6898482275    -1.0608037936
    5      C      -1.5255169215    -1.9891402331    -0.5510615011
    6      O      -1.4961208855    -1.6780790404     0.8376211378
    7      C      -0.1360873881    -1.7888296165     1.4191110858
    8      C       0.1209468461    -0.4783458033     2.2601710660
    9      O       1.2192624802     0.3396578596     1.6906317092
   10      C       2.4984983686    -0.2540139058     1.9758909051
   11      C       3.6327853029     0.6254185462     1.3409572223
   12      C       3.7373040945     0.5358472450    -0.2397867792
   13      C       2.6951637580    -0.4556047868    -0.8719513794
   14      O       2.2354202474    -1.4811549573    -0.3166345039
   15      O      -1.1911940689     0.6950364685    -1.1507114598
   16      O       2.3736151811    -0.0363196434    -2.1910085331
   17      O       2.6481531959    -1.2615316439     2.6991376336
   18      C       1.4735269408    -1.0131744803    -2.8587334427
   19      C       3.3743371759     2.1834301161     1.5263023074
   20      C       4.7341465204     2.9442247920     1.2644796339
   21      C       4.8370869908     2.8534748166    -0.3034451251
   22      C       3.5205553550     2.0527594159    -0.6493323968
   23      O       2.5466887346     2.5423858445     0.3529073161
   24      H       4.5802735642     0.3129031745     1.8135909715
   25      H       4.7430138528     0.1870727564    -0.5419893479
   26      H       2.8532600334     2.4547959293     2.4644967699
   27      H       4.6605529048     3.9895651594     1.6041347000
   28      H       5.5836684585     2.4649132487     1.7767561263
   29      H       4.8113686175     3.8518249554    -0.7683153134
   30      H       5.7443957148     2.3287412183    -0.6425681698
   31      H       3.1317842653     2.1905282713    -1.6763853491
   32      O      -0.5519566954    -2.4163258189    -1.2133436517
   33      C      -0.0534212920     1.5381958059    -0.7051652111
   34      C      -4.6100199466    -0.3781404526     0.2165482592
   35      C      -5.8686108648    -0.8516338433    -0.6099055946
   36      C      -5.4648876543    -2.3355892031    -0.9476825187
   37      C      -4.0756089922    -2.4545288847    -0.2011989442
   38      O      -4.2376999454    -1.5882592450     0.9863962392
   39      H      -3.7341112664     0.2997183037    -1.7288572640
   40      H      -3.0293828312    -1.9478582005    -2.1327217209
   41      H       0.4667072640     1.1162089031     0.1877711404
   42      H      -4.7715154147     0.4780075350     0.9000119830
   43      H      -6.7744002548    -0.8149373721     0.0161248562
   44      H      -6.0359468434    -0.2392836663    -1.5104436373
   45      H      -6.1878270333    -3.0570122856    -0.5348301927
   46      H      -5.3680646718    -2.5130292328    -2.0307115916
   47      H      -3.7897335644    -3.4805909083     0.1017759804
   48      H      -0.3859773111     2.5695185010    -0.4754748122
   49      H       0.6482010611     1.5549281743    -1.5584063292
   50      H       0.7190538485    -1.4486571107    -2.1611731056
   51      H       2.0718862729    -1.8373658350    -3.2972218579
   52      H       0.9709436751    -0.4570253303    -3.6710505617
   53      H      -0.7803514954     0.1698637131     2.1910307736
   54      H       0.3362384796    -0.7279591370     3.3193838430
   55      H       0.6310971886    -1.8861027474     0.6129740204
   56      H      -0.1010749979    -2.6861674620     2.0708558513
 ----------------------------------------------------------------

    9   -1510.3060317717      6.65E-09 Convergence criterion met
 Total energy in the final basis set = -1510.30603177
 Final energy is   -1510.30603177169
 **  OPTIMIZATION CONVERGED  **

                    Orbital Energies (a.u.)
 --------------------------------------------------------------

 Alpha MOs
 -- Occupied --
-18.943 -18.933 -18.931 -18.922 -18.891 -18.885 -18.884 -18.876
-18.874 -18.867 -10.109 -10.101 -10.100 -10.093 -10.063 -10.062
-10.061 -10.059 -10.055 -10.052 -10.048 -10.043 -10.039 -10.036
-10.033 -10.032 -10.023 -10.022 -10.019 -10.017  -1.019  -1.013
 -1.007  -0.999  -0.974  -0.967  -0.943  -0.938  -0.933  -0.927
 -0.766  -0.761  -0.727  -0.722  -0.712  -0.704  -0.689  -0.658
 -0.646  -0.612  -0.596  -0.578  -0.548  -0.543  -0.539  -0.534
 -0.516  -0.509  -0.483  -0.476  -0.469  -0.457  -0.447  -0.436
 -0.435  -0.430  -0.426  -0.418  -0.409  -0.402  -0.397  -0.394
 -0.389  -0.379  -0.371  -0.366  -0.360  -0.358  -0.351  -0.348
 -0.340  -0.335  -0.332  -0.329  -0.326  -0.325  -0.322  -0.314
 -0.308  -0.305  -0.303  -0.299  -0.293  -0.290  -0.282  -0.280
 -0.271  -0.260  -0.252  -0.243  -0.235  -0.232  -0.231  -0.189
 -0.179  -0.170  -0.163  -0.160  -0.156  -0.150  -0.146  -0.145
 -0.140

          Ground-State Mulliken Net Atomic Charges

     Atom                 Charge (a.u.)
  ----------------------------------------
      1 O                    -0.217582
      2 C                     0.212498
      3 C                    -0.078209
      4 C                    -0.077970
      5 C                     0.218016
      6 O                    -0.169311
      7 C                    -0.066014
      8 C                    -0.055400
      9 O                    -0.174755
     10 C                     0.214004
     11 C                    -0.081000
     12 C                    -0.078345
     13 C                     0.218907
     14 O                    -0.213597
     15 O                    -0.180367
     16 O                    -0.169521
     17 O                    -0.210132
     18 C                    -0.143103
     19 C                     0.026205
     20 C                    -0.143972
     21 C                    -0.143816
     22 C                     0.023386
     23 O                    -0.188552
     24 H                     0.085772
     25 H                     0.086680
     26 H                     0.086062
     27 H                     0.078680
     28 H                     0.074304
     29 H                     0.078622
     30 H                     0.073772
     31 H                     0.090803
     32 O                    -0.218221
     33 C                    -0.148643
     34 C                     0.024459
     35 C                    -0.143681
     36 C                    -0.144180
     37 C                     0.026328
     38 O                    -0.185002
     39 H                     0.083170
     40 H                     0.084196
     41 H                     0.111510
     42 H                     0.089223
     43 H                     0.077706
     44 H                     0.072696
     45 H                     0.077639
     46 H                     0.073046
     47 H                     0.082634
     48 H                     0.082314
     49 H                     0.084115
     50 H                     0.120564
     51 H                     0.081811
     52 H                     0.086177
     53 H                     0.109501
     54 H                     0.090410
     55 H                     0.119603
     56 H                     0.086563
  ----------------------------------------
  Sum of atomic charges =     0.000000

                    Cartesian Multipole Moments
 -----------------------------------------------------------------
    Charge (ESU x 10^10)
                 0.0000
    Dipole Moment (Debye)
         X       0.7969      Y       1.0407      Z      -2.1880
       Tot       2.5506
    Quadrupole Moments (Debye-Ang)
        XX    -140.5232     XY       9.8822     YY    -162.0524
        XZ       5.9132     YZ       3.1942     ZZ    -159.4401

 Total job time:  256.01s(wall), 12206.90s(cpu)
        *  Thank you very much for using Q-Chem.  Have a nice day.  *
