 Q-Chem 5.0, Q-Chem, Inc., Pleasanton, CA (2017)
 Q-Chem 5.0.1 for Intel X86 EM64T Linux

User input:
--------------------------------------------------------------
$molecule
0  1
O -1.7518874742 -2.8031509279 -0.5537638659
C -1.8205771095 -1.5677596917 -0.3381461322
C -3.0760578328 -0.8913765198 0.3428650931
C -3.2794027304 0.6875271809 0.3461308199
C -2.1622785129 1.55087183 -0.3353473012
O -1.9046288576 2.6999738444 0.496229369
C -0.4740359513 3.1122563949 0.5273572735
C 0.5618881409 2.0793255672 -0.0624129095
O 1.9275537726 2.5555643658 0.25518184
C 2.6052729967 1.6748654478 1.1929630595
C 3.6918264157 0.7341179241 0.5219265132
C 3.4175791757 -0.8245581979 0.6240578024
C 1.9672723085 -1.2108659736 1.0933605431
O 1.0679377068 -0.4531463294 1.5249592045
O -0.7485847471 -0.6706605431 -0.5914568825
O 1.860942591 -2.6311802707 1.0257970756
O 2.48970143 1.8151186939 2.4290363727
C 0.5503569617 -3.1004442298 1.5414074432
C 3.8055166062 0.9209915108 -1.0494939653
C 5.2468808001 0.4690817027 -1.4928693062
C 5.1451985025 -1.0890101378 -1.2878074514
C 3.6275902676 -1.2555539543 -0.8894508892
O 2.9463132396 -0.1541189592 -1.6120052554
H 4.655400208 0.9647393373 1.0118302606
H 4.1378227573 -1.3242232694 1.2973932577
H 3.4621374212 1.9120276826 -1.4037590618
H 5.4201530751 0.7236345515 -2.5507370477
H 6.0382731112 0.9317823016 -0.8822354882
H 5.362547641 -1.6370014848 -2.2182663111
H 5.8167090269 -1.4575653058 -0.4957948522
H 3.1735172426 -2.2329652204 -1.1422106409
O -1.7107525595 1.4175177204 -1.4937682094
C 0.2215784036 -1.2576350291 -1.5488153254
C -4.3905753837 -1.3605275948 -0.4222061854
C -5.6289997831 -1.1936065526 0.5422299698
C -5.8299980691 0.3666988382 0.5120538149
C -4.6577836092 0.8029342088 -0.4522278338
O -4.5870705514 -0.2994317823 -1.435294667
H -3.0937085017 -1.2607598022 1.3857720041
H -3.3925974057 1.0541122318 1.3808901723
H -0.2012772143 -1.2246402713 -2.5727593713
H -4.2922915888 -2.3528905975 -0.9042575952
H -6.5062875771 -1.7229546123 0.1374787586
H -5.4206529428 -1.5780607469 1.5535120733
H -6.8048817759 0.6393760613 0.0773177019
H -5.7446062994 0.8292793002 1.5080924426
H -4.8066239859 1.771885435 -0.9672875264
H 0.452752129 -2.309982516 -1.2957532337
H 1.1507785868 -0.6409193372 -1.5102059937
H 0.7342747238 -4.0631932929 2.0534870236
H -0.1701857678 -3.2510583141 0.7062376925
H 0.1266333471 -2.3615408965 2.2494849419
H 0.3760467595 1.0663124465 0.3608941455
H 0.4562230613 2.0278502432 -1.166144427
H -0.2326546878 3.2839981249 1.5989056169
H -0.3639652915 4.0827224079 -0.0061389463
$end

$rem
JOBTYPE                   OPT
METHOD                    B3LYP
DFT_D                     d3_op
BASIS                     STO-3G
GEOM_OPT_MAX_CYCLES       100
GEOM_OPT_TOL_GRADIENT     300
GEOM_OPT_TOL_DISPLACEMENT 1200
GEOM_OPT_TOL_ENERGY       100
SYMMETRY                  False
THRESH                    12
SCF_CONVERGENCE           8
MAX_SUB_FILE_NUM          128
MEM_STATIC                400
MEM_TOTAL                 4000
$end
--------------------------------------------------------------

   16   -1510.2548686693      5.96E-09 Convergence criterion met
 Total energy in the final basis set = -1510.25486867
   15   -1510.2464669741      4.82E-09 Convergence criterion met
 Total energy in the final basis set = -1510.24646697
   15   -1510.2460350971      5.28E-09 Convergence criterion met
 Total energy in the final basis set = -1510.24603510
   14   -1510.2555906128      8.64E-09 Convergence criterion met
 Total energy in the final basis set = -1510.25559061
   15   -1510.1473233762      6.87E-09 Convergence criterion met
 Total energy in the final basis set = -1510.14732338
   15   -1510.2599586908      7.65E-09 Convergence criterion met
 Total energy in the final basis set = -1510.25995869
   14   -1510.2600828792      8.28E-09 Convergence criterion met
 Total energy in the final basis set = -1510.26008288
   14   -1510.2647177084      6.57E-09 Convergence criterion met
   11   -1510.3017108014      6.72E-09 Convergence criterion met
 Total energy in the final basis set = -1510.30171080
   11   -1510.3017176243      6.00E-09 Convergence criterion met
 Total energy in the final basis set = -1510.30171762
   12   -1510.3017146997      2.87E-09 Convergence criterion met
 Total energy in the final basis set = -1510.30171470
   11   -1510.3017289521      2.29E-09 Convergence criterion met
 Total energy in the final basis set = -1510.30172895
   11   -1510.3017354869      3.62E-09 Convergence criterion met
 Total energy in the final basis set = -1510.30173549
    9   -1510.3017369697      6.93E-09 Convergence criterion met
 Total energy in the final basis set = -1510.30173697

             Standard Nuclear Orientation (Angstroms)
    I     Atom           X                Y                Z
 ----------------------------------------------------------------
    1      O      -2.2802745700    -1.5037550378    -2.6343617541
    2      C      -2.0504331398    -1.1908850293    -1.4481356373
    3      C      -3.0688438730    -1.1612841328    -0.2551342992
    4      C      -3.0538308687     0.1866226557     0.5809401506
    5      C      -2.1080299696     1.2923667805    -0.0069573401
    6      O      -1.0907645941     1.5751197058     0.9603428625
    7      C      -0.2979919981     2.7636782189     0.5663844870
    8      C       0.6186757588     2.5735028498    -0.7007068691
    9      O       1.6406613224     1.5144124288    -0.5707631061
   10      C       2.6959897994     1.9276844913     0.3093462998
   11      C       3.8120630367     0.8198019284     0.3053552416
   12      C       3.4298499991    -0.5226317984     1.0585395250
   13      C       1.9588422500    -0.4792615030     1.6069463051
   14      O       1.3428085118     0.5523450722     1.9589175921
   15      O      -0.7589110101    -0.8231180259    -0.9456789151
   16      O       1.4203521983    -1.7964478592     1.6331095413
   17      O       2.7539071942     3.0429291030     0.8713564464
   18      C      -0.0539958837    -1.7306344744     1.7972706206
   19      C       4.0844806485     0.2662130078    -1.1592350191
   20      C       5.4815996085    -0.4688357122    -1.1638718699
   21      C       5.1325194344    -1.7954553560    -0.3922030588
   22      C       3.5964393776    -1.5876961246    -0.1019287324
   23      O       3.1182555084    -0.8512631964    -1.2963218237
   24      H       4.7200172441     1.2718683630     0.7413002207
   25      H       4.1219387669    -0.7242999884     1.8968944489
   26      H       3.9346689764     1.0056066368    -1.9691916094
   27      H       5.8038176982    -0.6755765502    -2.1968673042
   28      H       6.2621930536     0.1240684532    -0.6611558428
   29      H       5.2893157359    -2.6840497996    -1.0241460896
   30      H       5.7138224148    -1.9143572441     0.5360084535
   31      H       3.0013535107    -2.5085171238     0.0505501838
   32      O      -2.2340694565     1.8861278417    -1.1008929080
   33      C       0.2548123896    -0.8656612866    -2.0297934557
   34      C      -4.5686346296    -1.1971170076    -0.7661125724
   35      C      -5.4899057652    -1.6334941989     0.4387921988
   36      C      -5.4653689169    -0.3299529413     1.3209363654
   37      C      -4.5749832488     0.6273599034     0.4327331405
   38      O      -4.9053226098     0.2328958618    -0.9548310880
   39      H      -2.8512669256    -2.0235346746     0.4019714670
   40      H      -2.7701318726     0.0078058305     1.6323272899
   41      H       0.0638532746    -0.0563255923    -2.7624021444
   42      H      -4.7054325054    -1.7563011887    -1.7123929711
   43      H      -6.5073786987    -1.8599106174     0.0822922203
   44      H      -5.0958920190    -2.5159848595     0.9676253507
   45      H      -6.4749954774     0.0913503216     1.4491010305
   46      H      -5.0234249289    -0.4982192423     2.3159779689
   47      H      -4.7540409422     1.7099963752     0.5799418304
   48      H       0.2120631521    -1.8354283791    -2.5644070967
   49      H       1.2627239040    -0.7269827694    -1.5687168320
   50      H      -0.3424092084    -1.0443433471     2.6175094863
   51      H      -0.3861255388    -2.7593338617     2.0271271721
   52      H      -0.4936858804    -1.3774335124     0.8338468687
   53      H      -0.0155581503     2.2778128089    -1.5599190828
   54      H       1.0979257518     3.5544706685    -0.9125169111
   55      H       0.3324321881     2.9978304377     1.4466774307
   56      H      -0.9729112800     3.6226835980     0.3562300242
 ----------------------------------------------------------------

   10   -1510.3017377725      9.39E-09 Convergence criterion met
 Total energy in the final basis set = -1510.30173777
 Final energy is   -1510.30173777249
 **  OPTIMIZATION CONVERGED  **

                    Orbital Energies (a.u.)
 --------------------------------------------------------------

 Alpha MOs
 -- Occupied --
-18.935 -18.933 -18.928 -18.925 -18.904 -18.885 -18.878 -18.877
-18.867 -18.865 -10.100 -10.099 -10.096 -10.093 -10.068 -10.066
-10.064 -10.063 -10.058 -10.056 -10.046 -10.042 -10.038 -10.038
-10.037 -10.034 -10.026 -10.025 -10.019 -10.018  -1.014  -1.010
 -1.005  -1.000  -0.981  -0.968  -0.936  -0.935  -0.932  -0.927
 -0.768  -0.762  -0.729  -0.723  -0.715  -0.706  -0.693  -0.656
 -0.648  -0.615  -0.597  -0.580  -0.551  -0.543  -0.542  -0.536
 -0.515  -0.507  -0.480  -0.472  -0.465  -0.451  -0.448  -0.442
 -0.440  -0.432  -0.428  -0.414  -0.411  -0.407  -0.400  -0.394
 -0.391  -0.376  -0.373  -0.362  -0.361  -0.352  -0.350  -0.348
 -0.345  -0.339  -0.338  -0.330  -0.328  -0.327  -0.322  -0.316
 -0.309  -0.309  -0.305  -0.302  -0.291  -0.286  -0.283  -0.277
 -0.270  -0.254  -0.251  -0.246  -0.242  -0.237  -0.232  -0.181
 -0.181  -0.170  -0.161  -0.157  -0.154  -0.152  -0.147  -0.143
 -0.140

          Ground-State Mulliken Net Atomic Charges

     Atom                 Charge (a.u.)
  ----------------------------------------
      1 O                    -0.205782
      2 C                     0.213290
      3 C                    -0.080395
      4 C                    -0.079771
      5 C                     0.209713
      6 O                    -0.164569
      7 C                    -0.049329
      8 C                    -0.051631
      9 O                    -0.175195
     10 C                     0.213902
     11 C                    -0.081339
     12 C                    -0.078967
     13 C                     0.214466
     14 O                    -0.207158
     15 O                    -0.174948
     16 O                    -0.173710
     17 O                    -0.218638
     18 C                    -0.145348
     19 C                     0.027609
     20 C                    -0.143403
     21 C                    -0.143858
     22 C                     0.024620
     23 O                    -0.188340
     24 H                     0.084933
     25 H                     0.086166
     26 H                     0.086663
     27 H                     0.079366
     28 H                     0.075806
     29 H                     0.079461
     30 H                     0.075343
     31 H                     0.094918
     32 O                    -0.219414
     33 C                    -0.143506
     34 C                     0.024352
     35 C                    -0.143799
     36 C                    -0.144361
     37 C                     0.025978
     38 O                    -0.185851
     39 H                     0.082278
     40 H                     0.085195
     41 H                     0.081834
     42 H                     0.090742
     43 H                     0.078285
     44 H                     0.072136
     45 H                     0.078007
     46 H                     0.072998
     47 H                     0.083124
     48 H                     0.081707
     49 H                     0.121318
     50 H                     0.088809
     51 H                     0.079851
     52 H                     0.109990
     53 H                     0.100447
     54 H                     0.087134
     55 H                     0.103925
     56 H                     0.084942
  ----------------------------------------
  Sum of atomic charges =    -0.000000

                    Cartesian Multipole Moments
 -----------------------------------------------------------------
    Charge (ESU x 10^10)
                -0.0000
    Dipole Moment (Debye)
         X       2.0016      Y      -1.9382      Z       1.9933
       Tot       3.4258
    Quadrupole Moments (Debye-Ang)
        XX    -146.0044     XY      -0.1936     YY    -158.9215
        XZ     -13.7277     YZ      -4.8997     ZZ    -166.4098

 Total job time:  248.22s(wall), 11853.64s(cpu)
        *  Thank you very much for using Q-Chem.  Have a nice day.  *
