 Q-Chem 5.0, Q-Chem, Inc., Pleasanton, CA (2017)
 Q-Chem 5.0.1 for Intel X86 EM64T Linux

User input:
--------------------------------------------------------------
$molecule
0  1
O -3.94934 -3.66094 2.70899
C -3.26408 -4.56952 2.26188
C -3.36658 -6.02376 2.66595
C -2.23283 -6.95965 2.21587
C -1.03527 -6.30378 1.5649
O -0.63505 -7.03694 0.48428
C -0.16289 -6.23021 -0.59992
C -0.53899 -4.76996 -0.37118
O -0.2579 -4.00149 -1.55157
C -1.3427 -3.50287 -2.19479
C -1.54591 -2.02685 -1.94835
C -2.85647 -1.66412 -1.23481
C -3.58418 -2.81262 -0.56541
O -3.29207 -3.99496 -0.67175
O -2.04989 -4.0751 1.93699
O -4.75745 -2.47941 0.03523
O -2.02617 -4.17482 -2.95425
C -5.80865 -3.35366 0.23244
C -0.52783 -1.29799 -1.04384
C -0.51871 0.19579 -1.37353
C -1.86196 0.61995 -0.81319
C -2.31988 -0.69445 -0.17178
O -1.11973 -1.30845 0.22579
H -1.48358 -1.55924 -2.95687
H -3.58965 -1.18993 -1.92434
H 0.50597 -1.69961 -1.11067
H 0.2837 0.66081 -0.75671
H -0.34821 0.44964 -2.44191
H -1.68807 1.39663 -0.0357
H -2.59526 0.98896 -1.5628
H -3.06065 -0.49737 0.63373
O -0.2064 -5.70063 2.24204
C -1.46893 -2.96583 2.53965
C -3.26639 -6.18868 4.19682
C -3.90962 -7.50807 4.62259
C -2.87789 -8.49702 4.12422
C -1.81343 -7.5372 3.58335
O -1.90145 -6.42224 4.43561
H -4.36823 -6.36914 2.32592
H -2.6099 -7.76819 1.54802
H -1.35433 -3.152 3.6288
H -3.72261 -5.34563 4.76066
H -3.91439 -7.53383 5.73591
H -4.9431 -7.66753 4.24653
H -2.47682 -9.05674 4.99849
H -3.23563 -9.20967 3.34998
H -0.8239 -8.04422 3.54097
H -2.09292 -2.05965 2.39713
H -0.45787 -2.79477 2.12202
H -6.62403 -2.827 0.7691
H -5.50167 -4.23803 0.82229
H -6.19554 -3.7003 -0.7493
H -1.54 -4.83043 -0.14553
H 0.04852 -4.29795 0.43727
H -0.68721 -6.5755 -1.51729
H 0.92994 -6.36046 -0.7476
$end

$opt
CONSTRAINT
tors           1           2           3           4    -167.494
tors           3           4           5           6    -137.731
tors           4           5           6           7    +143.801
tors           5           6           7           8     -13.144
tors           6           7           8           9    -170.752
tors           7           8           9          10    +112.999
tors           8           9          10          11    +103.561
tors           9          10          11          12    -117.443
tors          11          12          13          14      -8.300
ENDCONSTRAINT
$end

$rem
JOBTYPE                   OPT
METHOD                    B3LYP
DFT_D                     d3_op
BASIS                     STO-3G
GEOM_OPT_MAX_CYCLES       100
GEOM_OPT_TOL_GRADIENT     300
GEOM_OPT_TOL_DISPLACEMENT 1200
GEOM_OPT_TOL_ENERGY       100
SYMMETRY                  False
THRESH                    12
SCF_CONVERGENCE           8
MAX_SUB_FILE_NUM          128
MEM_STATIC                400
MEM_TOTAL                 4000
$end
--------------------------------------------------------------

   15   -1510.0611635735      9.83E-09 Convergence criterion met
 Total energy in the final basis set = -1510.06116357
   14   -1510.1359577052      8.22E-09 Convergence criterion met
 Total energy in the final basis set = -1510.13595771
   15   -1510.1859519876      2.63E-09 Convergence criterion met
 Total energy in the final basis set = -1510.18595199
   14   -1510.2099752387      7.79E-09 Convergence criterion met
 Total energy in the final basis set = -1510.20997524
   14   -1510.2268867803      6.91E-09 Convergence criterion met
 Total energy in the final basis set = -1510.22688678
   13   -1510.2377583112      7.47E-09 Convergence criterion met
 Total energy in the final basis set = -1510.23775831
   14   -1510.2428768022      3.84E-09 Convergence criterion met
 Total energy in the final basis set = -1510.24287680
   13   -1510.2482948591      3.46E-09 Convergence criterion met
   11   -1510.2547050619      7.43E-09 Convergence criterion met
 Total energy in the final basis set = -1510.25470506
   11   -1510.2547378657      6.81E-09 Convergence criterion met
 Total energy in the final basis set = -1510.25473787
   11   -1510.2547750411      9.99E-09 Convergence criterion met
 Total energy in the final basis set = -1510.25477504
   11   -1510.2547940812      4.02E-09 Convergence criterion met
 Total energy in the final basis set = -1510.25479408
   11   -1510.2548090791      2.72E-09 Convergence criterion met
 Total energy in the final basis set = -1510.25480908
   11   -1510.2548139796      3.40E-09 Convergence criterion met
 Total energy in the final basis set = -1510.25481398

             Standard Nuclear Orientation (Angstroms)
    I     Atom           X                Y                Z
 ----------------------------------------------------------------
    1      O      -1.7518874742    -2.8031509279    -0.5537638659
    2      C      -1.8205771095    -1.5677596917    -0.3381461322
    3      C      -3.0760578328    -0.8913765198     0.3428650931
    4      C      -3.2794027304     0.6875271809     0.3461308199
    5      C      -2.1622785129     1.5508718300    -0.3353473012
    6      O      -1.9046288576     2.6999738444     0.4962293690
    7      C      -0.4740359513     3.1122563949     0.5273572735
    8      C       0.5618881409     2.0793255672    -0.0624129095
    9      O       1.9275537726     2.5555643658     0.2551818400
   10      C       2.6052729967     1.6748654478     1.1929630595
   11      C       3.6918264157     0.7341179241     0.5219265132
   12      C       3.4175791757    -0.8245581979     0.6240578024
   13      C       1.9672723085    -1.2108659736     1.0933605431
   14      O       1.0679377068    -0.4531463294     1.5249592045
   15      O      -0.7485847471    -0.6706605431    -0.5914568825
   16      O       1.8609425910    -2.6311802707     1.0257970756
   17      O       2.4897014300     1.8151186939     2.4290363727
   18      C       0.5503569617    -3.1004442298     1.5414074432
   19      C       3.8055166062     0.9209915108    -1.0494939653
   20      C       5.2468808001     0.4690817027    -1.4928693062
   21      C       5.1451985025    -1.0890101378    -1.2878074514
   22      C       3.6275902676    -1.2555539543    -0.8894508892
   23      O       2.9463132396    -0.1541189592    -1.6120052554
   24      H       4.6554002080     0.9647393373     1.0118302606
   25      H       4.1378227573    -1.3242232694     1.2973932577
   26      H       3.4621374212     1.9120276826    -1.4037590618
   27      H       5.4201530751     0.7236345515    -2.5507370477
   28      H       6.0382731112     0.9317823016    -0.8822354882
   29      H       5.3625476410    -1.6370014848    -2.2182663111
   30      H       5.8167090269    -1.4575653058    -0.4957948522
   31      H       3.1735172426    -2.2329652204    -1.1422106409
   32      O      -1.7107525595     1.4175177204    -1.4937682094
   33      C       0.2215784036    -1.2576350291    -1.5488153254
   34      C      -4.3905753837    -1.3605275948    -0.4222061854
   35      C      -5.6289997831    -1.1936065526     0.5422299698
   36      C      -5.8299980691     0.3666988382     0.5120538149
   37      C      -4.6577836092     0.8029342088    -0.4522278338
   38      O      -4.5870705514    -0.2994317823    -1.4352946670
   39      H      -3.0937085017    -1.2607598022     1.3857720041
   40      H      -3.3925974057     1.0541122318     1.3808901723
   41      H      -0.2012772143    -1.2246402713    -2.5727593713
   42      H      -4.2922915888    -2.3528905975    -0.9042575952
   43      H      -6.5062875771    -1.7229546123     0.1374787586
   44      H      -5.4206529428    -1.5780607469     1.5535120733
   45      H      -6.8048817759     0.6393760613     0.0773177019
   46      H      -5.7446062994     0.8292793002     1.5080924426
   47      H      -4.8066239859     1.7718854350    -0.9672875264
   48      H       0.4527521290    -2.3099825160    -1.2957532337
   49      H       1.1507785868    -0.6409193372    -1.5102059937
   50      H       0.7342747238    -4.0631932929     2.0534870236
   51      H      -0.1701857678    -3.2510583141     0.7062376925
   52      H       0.1266333471    -2.3615408965     2.2494849419
   53      H       0.3760467595     1.0663124465     0.3608941455
   54      H       0.4562230613     2.0278502432    -1.1661444270
   55      H      -0.2326546878     3.2839981249     1.5989056169
   56      H      -0.3639652915     4.0827224079    -0.0061389463
 ----------------------------------------------------------------

   10   -1510.2548130378      7.28E-09 Convergence criterion met
 Total energy in the final basis set = -1510.25481304
 Final energy is   -1510.25481303779
 **  OPTIMIZATION CONVERGED  **

                    Orbital Energies (a.u.)
 --------------------------------------------------------------

 Alpha MOs
 -- Occupied --
-18.945 -18.935 -18.908 -18.906 -18.893 -18.892 -18.891 -18.887
-18.873 -18.869 -10.113 -10.104 -10.101 -10.094 -10.072 -10.066
-10.059 -10.058 -10.057 -10.057 -10.051 -10.050 -10.042 -10.040
-10.038 -10.032 -10.030 -10.028 -10.019 -10.018  -1.023  -1.011
 -0.999  -0.994  -0.984  -0.969  -0.948  -0.934  -0.929  -0.922
 -0.771  -0.759  -0.731  -0.720  -0.715  -0.705  -0.686  -0.666
 -0.653  -0.610  -0.601  -0.578  -0.553  -0.546  -0.540  -0.535
 -0.519  -0.509  -0.484  -0.471  -0.468  -0.453  -0.449  -0.445
 -0.441  -0.432  -0.428  -0.422  -0.416  -0.407  -0.399  -0.392
 -0.387  -0.384  -0.375  -0.369  -0.359  -0.358  -0.352  -0.349
 -0.345  -0.343  -0.339  -0.330  -0.328  -0.326  -0.321  -0.317
 -0.313  -0.310  -0.307  -0.305  -0.296  -0.289  -0.285  -0.282
 -0.268  -0.259  -0.252  -0.246  -0.236  -0.232  -0.226  -0.186
 -0.174  -0.167  -0.163  -0.161  -0.151  -0.150  -0.147  -0.144
 -0.136

          Ground-State Mulliken Net Atomic Charges

     Atom                 Charge (a.u.)
  ----------------------------------------
      1 O                    -0.225610
      2 C                     0.214262
      3 C                    -0.078009
      4 C                    -0.081440
      5 C                     0.216074
      6 O                    -0.185797
      7 C                    -0.050177
      8 C                    -0.061089
      9 O                    -0.206501
     10 C                     0.224959
     11 C                    -0.085300
     12 C                    -0.077520
     13 C                     0.215397
     14 O                    -0.210383
     15 O                    -0.167549
     16 O                    -0.170822
     17 O                    -0.184241
     18 C                    -0.141132
     19 C                     0.023062
     20 C                    -0.142466
     21 C                    -0.144055
     22 C                     0.024898
     23 O                    -0.191903
     24 H                     0.085523
     25 H                     0.090269
     26 H                     0.097760
     27 H                     0.080597
     28 H                     0.076270
     29 H                     0.080804
     30 H                     0.076150
     31 H                     0.090523
     32 O                    -0.198340
     33 C                    -0.146998
     34 C                     0.024798
     35 C                    -0.144060
     36 C                    -0.143821
     37 C                     0.026449
     38 O                    -0.188422
     39 H                     0.083603
     40 H                     0.086351
     41 H                     0.085590
     42 H                     0.088588
     43 H                     0.078146
     44 H                     0.073317
     45 H                     0.078054
     46 H                     0.074581
     47 H                     0.084268
     48 H                     0.083464
     49 H                     0.111805
     50 H                     0.088583
     51 H                     0.099702
     52 H                     0.094506
     53 H                     0.105211
     54 H                     0.093289
     55 H                     0.088184
     56 H                     0.080593
  ----------------------------------------
  Sum of atomic charges =     0.000000

                    Cartesian Multipole Moments
 -----------------------------------------------------------------
    Charge (ESU x 10^10)
                 0.0000
    Dipole Moment (Debye)
         X       1.8371      Y      -1.6544      Z       1.0705
       Tot       2.6940
    Quadrupole Moments (Debye-Ang)
        XX    -139.3283     XY      -3.2162     YY    -162.9939
        XZ     -10.7181     YZ      -5.2404     ZZ    -166.6965

 Total job time:  72.34s(wall), 3448.26s(cpu)
        *  Thank you very much for using Q-Chem.  Have a nice day.  *
