 Q-Chem 5.0, Q-Chem, Inc., Pleasanton, CA (2017)
 Q-Chem 5.0.1 for Intel X86 EM64T Linux

User input:
--------------------------------------------------------------
$molecule
0  1
O -3.94934 -3.66094 2.70899
C -3.26408 -4.56952 2.26188
C -3.36658 -6.02376 2.66595
C -2.07844 -6.71195 3.1465
C -0.86996 -5.82266 3.33839
O -0.65847 -5.60827 4.67058
C 0.54995 -4.88984 4.94045
C 1.70751 -5.8633 5.13681
O 2.02326 -5.97287 6.53365
C 2.00362 -4.8087 7.22897
C 0.7084 -4.049 7.06798
C 0.86887 -2.54552 6.79948
C 2.25351 -2.09303 6.38148
O 2.87667 -2.5157 5.41837
O -2.43006 -4.29783 1.22422
O 2.87139 -1.17059 7.17495
O 2.87421 -4.54222 8.05074
C 4.1372 -0.66995 6.95184
C -0.8847 -4.08238 7.10056
C -1.54315 -3.24427 8.23366
C -1.4054 -1.82512 7.66554
C -0.57466 -2.10445 6.40326
O -1.22789 -3.28299 5.9848
H 0.66077 -4.17677 8.17097
H 0.93999 -2.09361 7.81694
H -1.27514 -5.12306 7.08384
H -2.6285 -3.47796 8.30525
H -1.07452 -3.40349 9.22837
H -2.40746 -1.47728 7.32546
H -0.98929 -1.07118 8.36819
H -0.58953 -1.25987 5.68261
O -0.24967 -5.345 2.39468
C -2.2339 -3.04109 0.69104
C -4.30288 -6.26459 3.86709
C -4.83706 -7.69455 3.82967
C -3.59262 -8.46788 4.20352
C -2.61896 -7.31453 4.47291
O -3.4399 -6.28912 4.97575
H -3.77473 -6.54123 1.76861
H -1.74752 -7.53822 2.47903
H -1.83074 -2.35602 1.46738
H -5.15201 -5.54922 3.92182
H -5.57733 -7.79322 4.65593
H -5.31387 -7.99483 2.87185
H -3.79784 -9.02708 5.14363
H -3.21165 -9.16339 3.42485
H -1.80901 -7.67359 5.14547
H -3.19057 -2.63919 0.29411
H -1.50243 -3.10902 -0.14007
H 4.3851 0.06073 7.74879
H 4.17676 -0.15436 5.96852
H 4.88355 -1.49259 6.97567
H 1.49547 -6.8692 4.71402
H 2.64909 -5.50543 4.64615
H 0.55205 -3.80025 4.75664
H 0.98579 -4.5645 3.97579
$end

$opt
CONSTRAINT
tors           1           2           3           4    -125.711
tors           3           4           5           6    +104.646
tors           4           5           6           7    +173.858
tors           5           6           7           8     -90.487
tors           6           7           8           9    -103.980
tors           7           8           9          10     -41.123
tors           8           9          10          11     +53.198
tors           9          10          11          12    -134.470
tors          11          12          13          14     +56.914
ENDCONSTRAINT
$end

$rem
JOBTYPE                   OPT
METHOD                    B3LYP
DFT_D                     d3_op
BASIS                     STO-3G
GEOM_OPT_MAX_CYCLES       100
GEOM_OPT_TOL_GRADIENT     300
GEOM_OPT_TOL_DISPLACEMENT 1200
GEOM_OPT_TOL_ENERGY       100
SYMMETRY                  False
THRESH                    12
SCF_CONVERGENCE           8
MAX_SUB_FILE_NUM          128
MEM_STATIC                400
MEM_TOTAL                 4000
$end
--------------------------------------------------------------

   16   -1509.8978291483      4.22E-09 Convergence criterion met
 Total energy in the final basis set = -1509.89782915
   14   -1509.9812662541      7.07E-09 Convergence criterion met
 Total energy in the final basis set = -1509.98126625
   14   -1510.0408359264      8.41E-09 Convergence criterion met
 Total energy in the final basis set = -1510.04083593
   14   -1510.0811812430      5.22E-09 Convergence criterion met
 Total energy in the final basis set = -1510.08118124
   14   -1510.1116212686      3.13E-09 Convergence criterion met
 Total energy in the final basis set = -1510.11162127
   14   -1510.1356040108      5.31E-09 Convergence criterion met
 Total energy in the final basis set = -1510.13560401
   14   -1510.1552766732      4.70E-09 Convergence criterion met
 Total energy in the final basis set = -1510.15527667
   13   -1510.1720032066      6.60E-09 Convergence criterion met
   12   -1510.2340618810      2.67E-09 Convergence criterion met
 Total energy in the final basis set = -1510.23406188
   11   -1510.2340927579      8.42E-09 Convergence criterion met
 Total energy in the final basis set = -1510.23409276
   12   -1510.2341555973      6.74E-09 Convergence criterion met
 Total energy in the final basis set = -1510.23415560
   12   -1510.2341932001      5.03E-09 Convergence criterion met
 Total energy in the final basis set = -1510.23419320
   11   -1510.2342159229      8.56E-09 Convergence criterion met
 Total energy in the final basis set = -1510.23421592
   11   -1510.2342240739      5.26E-09 Convergence criterion met
 Total energy in the final basis set = -1510.23422407

             Standard Nuclear Orientation (Angstroms)
    I     Atom           X                Y                Z
 ----------------------------------------------------------------
    1      O      -4.1314792329     2.1586361531     1.2286257163
    2      C      -4.0381106379     1.7685684237     0.0442438461
    3      C      -4.5409570770     0.3958795405    -0.5353329093
    4      C      -3.4638694159    -0.4842237992    -1.3140519906
    5      C      -2.0509204172     0.1794533550    -1.4918207056
    6      O      -1.1223666095    -0.4201363445    -0.5816647523
    7      C       0.2468557817     0.0851747239    -0.8323608844
    8      C       1.0214307400    -0.8139256261    -1.8747595824
    9      O       2.0922622185    -1.8145489671    -1.6114538404
   10      C       3.1473345767    -1.6051392176    -0.6725250340
   11      C       2.9847585497    -1.1926182699     0.8684391527
   12      C       3.9819046442    -0.0353022773     1.2880963976
   13      C       4.4964401832     0.7741219762     0.0489977052
   14      O       3.8017998806     1.3753454392    -0.7999885421
   15      O      -3.5317848971     2.5685859025    -1.0253008646
   16      O       5.9256003519     0.7302079857     0.0371207360
   17      O       4.2890981994    -1.9735792803    -1.0396912949
   18      C       6.4423243205     1.4509999350    -1.1506964638
   19      C       1.6871526766    -0.8326436845     1.6886298666
   20      C       1.9720585815    -1.1112215885     3.2183512752
   21      C       2.8909321984     0.1084087864     3.5988076269
   22      C       3.0117810810     0.8388760693     2.2061943842
   23      O       1.6556500805     0.6484470401     1.6216701912
   24      H       3.3786715730    -2.1170706605     1.3374887220
   25      H       4.8483489617    -0.4166185244     1.8529540876
   26      H       0.7452866778    -1.2793528535     1.3216756154
   27      H       1.0258289673    -1.0937728746     3.7821010823
   28      H       2.4624951528    -2.0841552259     3.3816229160
   29      H       2.4063824980     0.7634935939     4.3401785194
   30      H       3.8736740763    -0.2022710561     3.9876590931
   31      H       3.2560099135     1.9179633855     2.2500326011
   32      O      -1.7340370178     1.0456870810    -2.3373808255
   33      C      -3.0494090428     3.8693573647    -0.5065628541
   34      C      -4.9303896450    -0.5858693644     0.6481950690
   35      C      -5.8461288787    -1.7358957158     0.0765164735
   36      C      -4.7917915311    -2.5947227449    -0.7157595313
   37      C      -3.4594363857    -1.7953978182    -0.4214914774
   38      O      -3.6556401556    -1.2779716712     0.9521141451
   39      H      -5.4037966057     0.6064431307    -1.1943187898
   40      H      -3.8337261010    -0.6957223601    -2.3341680333
   41      H      -2.2303218943     3.7349149229     0.2289596644
   42      H      -5.3094248053    -0.0627026973     1.5476591317
   43      H      -6.2971309815    -2.3115727097     0.9003971762
   44      H      -6.6527165099    -1.3484208713    -0.5661307432
   45      H      -4.7233887452    -3.6199599898    -0.3187533703
   46      H      -5.0114227184    -2.6477921634    -1.7939835032
   47      H      -2.5262280783    -2.3865076431    -0.4841058831
   48      H      -3.8656338842     4.4457154768    -0.0248568902
   49      H      -2.6703155982     4.4227267226    -1.3851636726
   50      H       7.5438536151     1.3754325197    -1.0982905250
   51      H       6.1407116648     2.5184025731    -1.1435119915
   52      H       6.0819716622     0.9886247403    -2.0921344596
   53      H       0.2596844311    -1.4113391495    -2.4209090802
   54      H       1.4642919780    -0.1054140210    -2.6110912060
   55      H       0.7835051174     0.3212726219     0.1082633420
   56      H       0.1144443322     1.0492705804    -1.3725295521
 ----------------------------------------------------------------

   11   -1510.2342250323      5.23E-09 Convergence criterion met
 Total energy in the final basis set = -1510.23422503
 Final energy is   -1510.23422503231
 **  OPTIMIZATION CONVERGED  **

                    Orbital Energies (a.u.)
 --------------------------------------------------------------

 Alpha MOs
 -- Occupied --
-18.937 -18.933 -18.926 -18.923 -18.907 -18.883 -18.874 -18.873
-18.873 -18.872 -10.104 -10.100 -10.096 -10.096 -10.071 -10.069
-10.068 -10.064 -10.061 -10.056 -10.055 -10.045 -10.042 -10.038
-10.037 -10.036 -10.028 -10.027 -10.019 -10.017  -1.012  -1.011
 -1.006  -1.000  -0.985  -0.967  -0.936  -0.935  -0.932  -0.928
 -0.771  -0.760  -0.726  -0.722  -0.713  -0.709  -0.694  -0.664
 -0.660  -0.613  -0.599  -0.584  -0.557  -0.548  -0.543  -0.535
 -0.515  -0.506  -0.482  -0.471  -0.466  -0.462  -0.451  -0.441
 -0.438  -0.430  -0.422  -0.413  -0.411  -0.410  -0.407  -0.404
 -0.398  -0.377  -0.373  -0.369  -0.365  -0.355  -0.349  -0.347
 -0.344  -0.340  -0.337  -0.332  -0.329  -0.326  -0.324  -0.317
 -0.311  -0.306  -0.304  -0.294  -0.293  -0.291  -0.280  -0.278
 -0.275  -0.256  -0.250  -0.247  -0.239  -0.231  -0.225  -0.181
 -0.178  -0.173  -0.168  -0.157  -0.153  -0.152  -0.150  -0.145
 -0.141

          Ground-State Mulliken Net Atomic Charges

     Atom                 Charge (a.u.)
  ----------------------------------------
      1 O                    -0.213095
      2 C                     0.207064
      3 C                    -0.078030
      4 C                    -0.077988
      5 C                     0.207679
      6 O                    -0.177215
      7 C                    -0.081817
      8 C                    -0.051859
      9 O                    -0.176838
     10 C                     0.211854
     11 C                    -0.085409
     12 C                    -0.080023
     13 C                     0.207480
     14 O                    -0.218231
     15 O                    -0.165392
     16 O                    -0.165407
     17 O                    -0.200823
     18 C                    -0.128293
     19 C                     0.019904
     20 C                    -0.142612
     21 C                    -0.142641
     22 C                     0.027576
     23 O                    -0.189171
     24 H                     0.085182
     25 H                     0.091281
     26 H                     0.095360
     27 H                     0.083100
     28 H                     0.076450
     29 H                     0.080970
     30 H                     0.076779
     31 H                     0.087032
     32 O                    -0.209482
     33 C                    -0.127466
     34 C                     0.023306
     35 C                    -0.144310
     36 C                    -0.144492
     37 C                     0.024698
     38 O                    -0.189328
     39 H                     0.084811
     40 H                     0.084358
     41 H                     0.090019
     42 H                     0.090117
     43 H                     0.077699
     44 H                     0.072788
     45 H                     0.077101
     46 H                     0.072414
     47 H                     0.087838
     48 H                     0.087958
     49 H                     0.093360
     50 H                     0.091504
     51 H                     0.088241
     52 H                     0.092882
     53 H                     0.088846
     54 H                     0.088070
     55 H                     0.120297
     56 H                     0.095903
  ----------------------------------------
  Sum of atomic charges =     0.000000

                    Cartesian Multipole Moments
 -----------------------------------------------------------------
    Charge (ESU x 10^10)
                 0.0000
    Dipole Moment (Debye)
         X      -0.3575      Y       0.2195      Z       1.1868
       Tot       1.2588
    Quadrupole Moments (Debye-Ang)
        XX    -148.0747     XY      11.2913     YY    -156.8699
        XZ      13.4466     YZ      -2.3110     ZZ    -160.5383

 Total job time:  77.81s(wall), 3707.69s(cpu)
        *  Thank you very much for using Q-Chem.  Have a nice day.  *
