 Q-Chem 5.0, Q-Chem, Inc., Pleasanton, CA (2017)
 Q-Chem 5.0.1 for Intel X86 EM64T Linux

User input:
--------------------------------------------------------------
$molecule
0  1
O -4.1314792329 2.1586361531 1.2286257163
C -4.0381106379 1.7685684237 0.0442438461
C -4.540957077 0.3958795405 -0.5353329093
C -3.4638694159 -0.4842237992 -1.3140519906
C -2.0509204172 0.179453355 -1.4918207056
O -1.1223666095 -0.4201363445 -0.5816647523
C 0.2468557817 0.0851747239 -0.8323608844
C 1.02143074 -0.8139256261 -1.8747595824
O 2.0922622185 -1.8145489671 -1.6114538404
C 3.1473345767 -1.6051392176 -0.672525034
C 2.9847585497 -1.1926182699 0.8684391527
C 3.9819046442 -0.0353022773 1.2880963976
C 4.4964401832 0.7741219762 0.0489977052
O 3.8017998806 1.3753454392 -0.7999885421
O -3.5317848971 2.5685859025 -1.0253008646
O 5.9256003519 0.7302079857 0.037120736
O 4.2890981994 -1.9735792803 -1.0396912949
C 6.4423243205 1.450999935 -1.1506964638
C 1.6871526766 -0.8326436845 1.6886298666
C 1.9720585815 -1.1112215885 3.2183512752
C 2.8909321984 0.1084087864 3.5988076269
C 3.011781081 0.8388760693 2.2061943842
O 1.6556500805 0.6484470401 1.6216701912
H 3.378671573 -2.1170706605 1.337488722
H 4.8483489617 -0.4166185244 1.8529540876
H 0.7452866778 -1.2793528535 1.3216756154
H 1.0258289673 -1.0937728746 3.7821010823
H 2.4624951528 -2.0841552259 3.381622916
H 2.406382498 0.7634935939 4.3401785194
H 3.8736740763 -0.2022710561 3.9876590931
H 3.2560099135 1.9179633855 2.2500326011
O -1.7340370178 1.045687081 -2.3373808255
C -3.0494090428 3.8693573647 -0.5065628541
C -4.930389645 -0.5858693644 0.648195069
C -5.8461288787 -1.7358957158 0.0765164735
C -4.7917915311 -2.5947227449 -0.7157595313
C -3.4594363857 -1.7953978182 -0.4214914774
O -3.6556401556 -1.2779716712 0.9521141451
H -5.4037966057 0.6064431307 -1.1943187898
H -3.833726101 -0.6957223601 -2.3341680333
H -2.2303218943 3.7349149229 0.2289596644
H -5.3094248053 -0.0627026973 1.5476591317
H -6.2971309815 -2.3115727097 0.9003971762
H -6.6527165099 -1.3484208713 -0.5661307432
H -4.7233887452 -3.6199599898 -0.3187533703
H -5.0114227184 -2.6477921634 -1.7939835032
H -2.5262280783 -2.3865076431 -0.4841058831
H -3.8656338842 4.4457154768 -0.0248568902
H -2.6703155982 4.4227267226 -1.3851636726
H 7.5438536151 1.3754325197 -1.098290525
H 6.1407116648 2.5184025731 -1.1435119915
H 6.0819716622 0.9886247403 -2.0921344596
H 0.2596844311 -1.4113391495 -2.4209090802
H 1.464291978 -0.105414021 -2.611091206
H 0.7835051174 0.3212726219 0.108263342
H 0.1144443322 1.0492705804 -1.3725295521
$end

$rem
JOBTYPE                   OPT
METHOD                    B3LYP
DFT_D                     d3_op
BASIS                     STO-3G
GEOM_OPT_MAX_CYCLES       100
GEOM_OPT_TOL_GRADIENT     300
GEOM_OPT_TOL_DISPLACEMENT 1200
GEOM_OPT_TOL_ENERGY       100
SYMMETRY                  False
THRESH                    12
SCF_CONVERGENCE           8
MAX_SUB_FILE_NUM          128
MEM_STATIC                400
MEM_TOTAL                 4000
$end
--------------------------------------------------------------

   16   -1510.2341922204      7.85E-09 Convergence criterion met
 Total energy in the final basis set = -1510.23419222
   14   -1510.2396922145      9.30E-09 Convergence criterion met
 Total energy in the final basis set = -1510.23969221
   15   -1510.2409722204      3.42E-09 Convergence criterion met
 Total energy in the final basis set = -1510.24097222
   13   -1510.2497444507      7.14E-09 Convergence criterion met
 Total energy in the final basis set = -1510.24974445
   14   -1510.2537114379      4.34E-09 Convergence criterion met
 Total energy in the final basis set = -1510.25371144
   14   -1510.2569027032      6.01E-09 Convergence criterion met
 Total energy in the final basis set = -1510.25690270
   14   -1510.2600699492      5.79E-09 Convergence criterion met
 Total energy in the final basis set = -1510.26006995
   15   -1510.2073920705      9.38E-09 Convergence criterion met
   12   -1510.3009613183      8.85E-09 Convergence criterion met
 Total energy in the final basis set = -1510.30096132
   12   -1510.3010000668      5.20E-09 Convergence criterion met
 Total energy in the final basis set = -1510.30100007
   11   -1510.3009952013      2.89E-09 Convergence criterion met
 Total energy in the final basis set = -1510.30099520
    9   -1510.3009922845      7.86E-09 Convergence criterion met
 Total energy in the final basis set = -1510.30099228
   11   -1510.3009936899      1.75E-09 Convergence criterion met
 Total energy in the final basis set = -1510.30099369
    9   -1510.3009942514      7.91E-09 Convergence criterion met
 Total energy in the final basis set = -1510.30099425

             Standard Nuclear Orientation (Angstroms)
    I     Atom           X                Y                Z
 ----------------------------------------------------------------
    1      O      -1.9973629375     0.9204398266     2.2714953817
    2      C      -2.5393964458     0.9319311599     1.1424897789
    3      C      -3.5258064408    -0.1616510898     0.5933418774
    4      C      -3.4318934409    -0.4642179379    -0.9612988126
    5      C      -2.4783320325     0.4526438950    -1.8015400080
    6      O      -1.1118122691     0.0986709774    -1.5266234638
    7      C      -0.1951661951     0.8250550456    -2.4392194641
    8      C       0.8263727032    -0.2254151051    -3.0058297284
    9      O       1.3449681467    -1.0339811842    -1.8749110100
   10      C       2.2492564582    -0.2429333847    -1.0908648862
   11      C       2.1574772401    -0.7161845372     0.3966833289
   12      C       3.1181369946     0.1086052887     1.3429866933
   13      C       4.1961623022     0.9714325277     0.5873570509
   14      O       4.3124930963     2.2150313082     0.6040758798
   15      O      -2.3604489043     1.9557976202     0.1738664161
   16      O       5.1312392200     0.0728585196    -0.0292685581
   17      O       2.8879780615     0.7402431771    -1.5290757800
   18      C       6.1158980125     0.8449411390    -0.8179362652
   19      C       0.7324254020    -0.2293861936     0.9087319788
   20      C       0.4595547914    -0.7701967390     2.3613885382
   21      C       1.3871815585     0.1589500044     3.2284788689
   22      C       2.0758444623     1.0271128823     2.1093665961
   23      O       0.9948907507     1.2179853061     1.1118108871
   24      H       2.2908683339    -1.8096201605     0.4723072627
   25      H       3.6432829674    -0.5685557264     2.0401042101
   26      H      -0.0903651463    -0.3758268445     0.1712293165
   27      H      -0.6010306252    -0.6004061933     2.6105103963
   28      H       0.7022010047    -1.8399316389     2.4596803143
   29      H       0.7931180441     0.7978698232     3.9016249399
   30      H       2.1223472671    -0.4025763514     3.8268554977
   31      H       2.4852787700     2.0067530036     2.4244769418
   32      O      -2.8195170478     1.2680865029    -2.6863003411
   33      C      -1.3036091559     2.9025562669     0.6206271738
   34      C      -3.1328546926    -1.5709903052     1.2009938525
   35      C      -4.3177730338    -2.5863232795     0.9695583483
   36      C      -4.1563870297    -2.8980343007    -0.5644196809
   37      C      -2.9296848600    -1.9759488663    -0.9339489311
   38      O      -2.0744355445    -2.0381640777     0.2735938522
   39      H      -4.5558736476     0.1323652003     0.8690644186
   40      H      -4.4308556370    -0.3820309325    -1.4247521529
   41      H      -0.3705767147     2.3439173147     0.8983388411
   42      H      -2.7450768032    -1.5104068454     2.2362720460
   43      H      -4.1796684301    -3.4901753272     1.5840176782
   44      H      -5.2958634013    -2.1407591197     1.2122055549
   45      H      -3.9050851105    -3.9566954161    -0.7368844072
   46      H      -5.0564750825    -2.6482200109    -1.1484013048
   47      H      -2.3577191635    -2.2863939045    -1.8293349336
   48      H      -1.6563246665     3.5034604566     1.4826741207
   49      H      -1.1221809254     3.5694408781    -0.2414702541
   50      H       6.8507657815     0.1116541001    -1.1983662040
   51      H       6.6338159170     1.6059016506    -0.1991487596
   52      H       5.6271663241     1.3579843267    -1.6719659690
   53      H       0.3188853368    -0.9414125093    -3.6821159418
   54      H       1.6434686538     0.2938138084    -3.5522166480
   55      H       0.3464765603     1.6041839293    -1.8614681781
   56      H      -0.7909470186     1.3117446558    -3.2419097970
 ----------------------------------------------------------------

    8   -1510.3009951935      9.38E-09 Convergence criterion met
 Total energy in the final basis set = -1510.30099519
 Final energy is   -1510.30099519354
 **  OPTIMIZATION CONVERGED  **

                    Orbital Energies (a.u.)
 --------------------------------------------------------------

 Alpha MOs
 -- Occupied --
-18.936 -18.932 -18.932 -18.917 -18.891 -18.891 -18.886 -18.874
-18.873 -18.858 -10.104 -10.103 -10.100 -10.088 -10.077 -10.068
-10.063 -10.060 -10.055 -10.052 -10.047 -10.040 -10.039 -10.037
-10.035 -10.030 -10.023 -10.022 -10.012 -10.006  -1.019  -1.013
 -1.006  -0.995  -0.973  -0.970  -0.944  -0.935  -0.933  -0.922
 -0.765  -0.758  -0.728  -0.720  -0.712  -0.704  -0.693  -0.652
 -0.649  -0.618  -0.597  -0.578  -0.546  -0.540  -0.539  -0.530
 -0.515  -0.502  -0.487  -0.469  -0.466  -0.454  -0.450  -0.448
 -0.437  -0.430  -0.423  -0.414  -0.408  -0.404  -0.401  -0.396
 -0.386  -0.379  -0.374  -0.365  -0.357  -0.354  -0.351  -0.347
 -0.344  -0.339  -0.334  -0.333  -0.329  -0.325  -0.321  -0.311
 -0.308  -0.305  -0.302  -0.297  -0.292  -0.290  -0.277  -0.275
 -0.261  -0.258  -0.252  -0.242  -0.241  -0.237  -0.226  -0.185
 -0.174  -0.169  -0.162  -0.158  -0.157  -0.152  -0.147  -0.146
 -0.140

          Ground-State Mulliken Net Atomic Charges

     Atom                 Charge (a.u.)
  ----------------------------------------
      1 O                    -0.216158
      2 C                     0.213129
      3 C                    -0.078908
      4 C                    -0.080389
      5 C                     0.219457
      6 O                    -0.176371
      7 C                    -0.058559
      8 C                    -0.048799
      9 O                    -0.171351
     10 C                     0.217752
     11 C                    -0.076808
     12 C                    -0.081531
     13 C                     0.215797
     14 O                    -0.219003
     15 O                    -0.170188
     16 O                    -0.176920
     17 O                    -0.206370
     18 C                    -0.128533
     19 C                     0.016042
     20 C                    -0.149171
     21 C                    -0.143600
     22 C                     0.026466
     23 O                    -0.197590
     24 H                     0.089943
     25 H                     0.083953
     26 H                     0.108308
     27 H                     0.091322
     28 H                     0.072535
     29 H                     0.080079
     30 H                     0.071680
     31 H                     0.090345
     32 O                    -0.215705
     33 C                    -0.148667
     34 C                     0.023247
     35 C                    -0.144362
     36 C                    -0.143746
     37 C                     0.026012
     38 O                    -0.189388
     39 H                     0.085576
     40 H                     0.085433
     41 H                     0.121906
     42 H                     0.088821
     43 H                     0.078466
     44 H                     0.074129
     45 H                     0.078277
     46 H                     0.074233
     47 H                     0.084122
     48 H                     0.079623
     49 H                     0.082675
     50 H                     0.085851
     51 H                     0.087261
     52 H                     0.090193
     53 H                     0.090133
     54 H                     0.095383
     55 H                     0.091628
     56 H                     0.102337
  ----------------------------------------
  Sum of atomic charges =    -0.000000

                    Cartesian Multipole Moments
 -----------------------------------------------------------------
    Charge (ESU x 10^10)
                -0.0000
    Dipole Moment (Debye)
         X      -1.2957      Y      -2.3871      Z      -0.1816
       Tot       2.7222
    Quadrupole Moments (Debye-Ang)
        XX    -150.7191     XY       2.1844     YY    -163.4721
        XZ      -2.3863     YZ       1.1026     ZZ    -155.7397

 Total job time:  141.42s(wall), 6725.15s(cpu)
        *  Thank you very much for using Q-Chem.  Have a nice day.  *
