 Q-Chem 5.0, Q-Chem, Inc., Pleasanton, CA (2017)
 Q-Chem 5.0.1 for Intel X86 EM64T Linux

User input:
--------------------------------------------------------------
$molecule
0  1
O -3.94934 -3.66094 2.70899
C -3.26408 -4.56952 2.26188
C -3.36658 -6.02376 2.66595
C -2.15308 -6.92143 2.37365
C -0.90599 -6.22746 1.87237
O -1.05367 -4.87384 1.97878
C 0.15706 -4.15358 1.7246
C 0.80749 -4.65569 0.4397
O -0.2023 -5.11217 -0.474
C 0.14665 -5.09589 -1.78439
C -0.64156 -6.08013 -2.61543
C 0.16724 -6.80361 -3.70203
C 1.67461 -6.71572 -3.5724
O 2.3997 -5.97447 -4.21998
O -3.07131 -4.46051 0.90465
O 2.22556 -7.38078 -2.52015
O 0.83346 -4.21153 -2.27907
C 3.56388 -7.34997 -2.18934
C -1.26128 -7.29388 -1.88178
C -2.45656 -7.81746 -2.67813
C -1.75687 -8.43767 -3.87171
C -0.29254 -8.2517 -3.46019
O -0.32351 -8.32874 -2.05338
H -1.45913 -5.48017 -3.07568
H -0.08432 -6.41517 -4.71412
H -1.57888 -7.08686 -0.83888
H -2.91581 -8.6336 -2.07498
H -3.23582 -7.0639 -2.92257
H -2.02067 -9.51787 -3.91096
H -1.97036 -7.95659 -4.85082
H 0.36005 -8.98894 -3.9778
O 0.14431 -6.84618 1.75341
C -3.12353 -3.30047 0.15052
C -3.43694 -6.17391 4.20198
C -4.08059 -7.51088 4.56791
C -2.97 -8.46928 4.19568
C -1.87791 -7.47866 3.78096
O -2.10175 -6.35982 4.60187
H -4.31066 -6.41542 2.22415
H -2.39437 -7.71481 1.63227
H -3.30889 -2.39606 0.76809
H -3.98387 -5.34546 4.70309
H -4.2029 -7.52603 5.67486
H -5.0628 -7.71003 4.08802
H -2.66254 -9.02341 5.1105
H -3.21225 -9.18529 3.38069
H -0.87642 -7.95446 3.8677
H -3.92859 -3.39338 -0.6065
H -2.15586 -3.1651 -0.37451
H 3.73115 -7.98233 -1.29341
H 3.87661 -6.30976 -1.95617
H 4.17396 -7.74825 -3.02807
H 1.42441 -3.81848 0.04217
H 1.53651 -5.47578 0.60426
H 0.87048 -4.19392 2.57606
H -0.1501 -3.09563 1.58159
$end

$opt
CONSTRAINT
tors           1           2           3           4    -159.911
tors           3           4           5           6      +9.521
tors           4           5           6           7    +170.694
tors           5           6           7           8     +48.347
tors           6           7           8           9     +30.682
tors           7           8           9          10    +155.650
tors           8           9          10          11    +155.501
tors           9          10          11          12    -141.032
tors          11          12          13          14    -101.704
ENDCONSTRAINT
$end

$rem
JOBTYPE                   OPT
METHOD                    B3LYP
DFT_D                     d3_op
BASIS                     STO-3G
GEOM_OPT_MAX_CYCLES       100
GEOM_OPT_TOL_GRADIENT     300
GEOM_OPT_TOL_DISPLACEMENT 1200
GEOM_OPT_TOL_ENERGY       100
SYMMETRY                  False
THRESH                    12
SCF_CONVERGENCE           8
MAX_SUB_FILE_NUM          128
MEM_STATIC                400
MEM_TOTAL                 4000
$end
--------------------------------------------------------------

   16   -1510.1177035604      2.22E-09 Convergence criterion met
 Total energy in the final basis set = -1510.11770356
   14   -1510.1893172711      7.06E-09 Convergence criterion met
 Total energy in the final basis set = -1510.18931727
   14   -1510.2265315627      3.85E-09 Convergence criterion met
 Total energy in the final basis set = -1510.22653156
   14   -1510.2473159608      6.40E-09 Convergence criterion met
 Total energy in the final basis set = -1510.24731596
   14   -1510.2575091642      5.80E-09 Convergence criterion met
 Total energy in the final basis set = -1510.25750916
   13   -1510.2631374617      5.16E-09 Convergence criterion met
 Total energy in the final basis set = -1510.26313746
   13   -1510.2664708516      7.14E-09 Convergence criterion met
 Total energy in the final basis set = -1510.26647085
   12   -1510.2686519328      8.88E-09 Convergence criterion met
   11   -1510.2721500487      5.10E-09 Convergence criterion met
 Total energy in the final basis set = -1510.27215005
   11   -1510.2721671721      3.68E-09 Convergence criterion met
 Total energy in the final basis set = -1510.27216717
   10   -1510.2721738659      7.07E-09 Convergence criterion met
 Total energy in the final basis set = -1510.27217387
   10   -1510.2721811305      6.42E-09 Convergence criterion met
 Total energy in the final basis set = -1510.27218113
    9   -1510.2721857331      8.27E-09 Convergence criterion met
 Total energy in the final basis set = -1510.27218573
    9   -1510.2721879779      8.37E-09 Convergence criterion met
 Total energy in the final basis set = -1510.27218798

             Standard Nuclear Orientation (Angstroms)
    I     Atom           X                Y                Z
 ----------------------------------------------------------------
    1      O       3.5579840827    -1.7190179275    -2.0229670955
    2      C       2.9992094836    -0.7519958267    -1.4613995001
    3      C       3.6812638348     0.4122952167    -0.6643342042
    4      C       2.7249189631     1.1819839561     0.3197594215
    5      C       1.6444599596     0.2625593989     1.0125474482
    6      O       1.9464302640    -1.1130062352     0.7341548306
    7      C       1.1301383386    -2.0793372244     1.5093568654
    8      C      -0.4171536179    -1.7863713735     1.4963585795
    9      O      -0.7028602990    -1.1424816190     0.1914090750
   10      C      -2.0663874151    -1.3204967595    -0.2027616996
   11      C      -2.4708618581    -0.1593315721    -1.1882197070
   12      C      -3.9493548329     0.3673160966    -0.9447702590
   13      C      -4.7673429568    -0.4767654836     0.0947378778
   14      O      -5.6413023972    -1.3326780331    -0.1625866443
   15      O       1.6430057107    -0.3450049244    -1.7266229939
   16      O      -4.3528245660    -0.1152238917     1.4174511646
   17      O      -2.8090858750    -2.2258868710     0.2366932271
   18      C      -5.0256415523    -0.9863799328     2.4066907845
   19      C      -1.6322380488     1.1573096095    -0.9092569082
   20      C      -1.8613299540     2.1675475635    -2.1008317600
   21      C      -3.3041010655     2.7038736650    -1.7763250200
   22      C      -3.6565596489     1.8615547705    -0.4868771994
   23      O      -2.3614674994     1.7708442407     0.2251194013
   24      H      -2.3440229054    -0.5144194160    -2.2280435014
   25      H      -4.5193915434     0.3458465561    -1.8905104982
   26      H      -0.5772299547     0.9606970394    -0.6386365222
   27      H      -1.1123132646     2.9747230151    -2.0715514952
   28      H      -1.8032926750     1.6694303006    -3.0817117916
   29      H      -3.2899783120     3.7794601353    -1.5383507288
   30      H      -4.0194475875     2.5321733376    -2.5963564213
   31      H      -4.4313283915     2.3018070272     0.1696045721
   32      O       0.7458765504     0.6631053952     1.7817811803
   33      C       0.9237256238    -1.3945005275    -2.4803156839
   34      C       4.9197476655     0.0760813707     0.2723272423
   35      C       5.8611361766     1.3394046916     0.2208120202
   36      C       4.9524849736     2.3962401557     0.9559793728
   37      C       3.7705626652     1.4881251084     1.4840664758
   38      O       4.3858044073     0.1461165198     1.6543666412
   39      H       4.0181118215     1.1218781021    -1.4453666688
   40      H       2.2497213902     2.0775634584    -0.1160009108
   41      H       1.6438903819    -2.1525812048    -2.8490808508
   42      H       5.3993959517    -0.9032016322     0.0800722331
   43      H       6.7891073564     1.1493401344     0.7842404813
   44      H       6.1217643857     1.6364227990    -0.8077125855
   45      H       5.4790901413     2.8756346152     1.7961950698
   46      H       4.5866538847     3.1830064666     0.2764066840
   47      H       3.3049416940     1.8249720245     2.4307678218
   48      H       0.3999533209    -0.9173759223    -3.3309870882
   49      H       0.1812686237    -1.8636651758    -1.8037590787
   50      H      -4.6704389727    -0.6536153505     3.3993163294
   51      H      -4.7550344306    -2.0509181374     2.2502579187
   52      H      -6.1295920606    -0.8912627575     2.3554245842
   53      H      -0.9924602885    -2.7319994967     1.6039783003
   54      H      -0.6947831340    -1.0862882836     2.3108983286
   55      H       1.4839026724    -2.1190514814     2.5636899372
   56      H       1.3383159736    -3.0561363917     1.0282747308
 ----------------------------------------------------------------

    9   -1510.2721885634      3.80E-09 Convergence criterion met
 Total energy in the final basis set = -1510.27218856
 Final energy is   -1510.27218856337
 **  OPTIMIZATION CONVERGED  **

                    Orbital Energies (a.u.)
 --------------------------------------------------------------

 Alpha MOs
 -- Occupied --
-18.938 -18.935 -18.924 -18.921 -18.887 -18.884 -18.882 -18.875
-18.869 -18.863 -10.106 -10.103 -10.098 -10.090 -10.081 -10.075
-10.061 -10.060 -10.056 -10.055 -10.052 -10.052 -10.039 -10.038
-10.036 -10.032 -10.022 -10.021 -10.017 -10.016  -1.021  -1.010
 -1.001  -0.999  -0.971  -0.965  -0.944  -0.938  -0.929  -0.926
 -0.765  -0.760  -0.731  -0.721  -0.712  -0.703  -0.696  -0.655
 -0.653  -0.618  -0.597  -0.583  -0.546  -0.542  -0.538  -0.534
 -0.515  -0.506  -0.486  -0.476  -0.465  -0.459  -0.455  -0.437
 -0.435  -0.430  -0.429  -0.414  -0.408  -0.406  -0.405  -0.400
 -0.394  -0.379  -0.370  -0.366  -0.363  -0.357  -0.354  -0.342
 -0.341  -0.339  -0.332  -0.332  -0.327  -0.322  -0.319  -0.313
 -0.311  -0.306  -0.304  -0.299  -0.297  -0.292  -0.280  -0.274
 -0.271  -0.258  -0.246  -0.243  -0.239  -0.235  -0.229  -0.181
 -0.178  -0.168  -0.163  -0.161  -0.154  -0.147  -0.145  -0.143
 -0.138

          Ground-State Mulliken Net Atomic Charges

     Atom                 Charge (a.u.)
  ----------------------------------------
      1 O                    -0.220797
      2 C                     0.220970
      3 C                    -0.078728
      4 C                    -0.073918
      5 C                     0.221560
      6 O                    -0.165569
      7 C                    -0.045061
      8 C                    -0.050958
      9 O                    -0.174913
     10 C                     0.215067
     11 C                    -0.077072
     12 C                    -0.081190
     13 C                     0.210501
     14 O                    -0.213838
     15 O                    -0.176889
     16 O                    -0.170577
     17 O                    -0.209304
     18 C                    -0.128539
     19 C                     0.022314
     20 C                    -0.144761
     21 C                    -0.143821
     22 C                     0.025688
     23 O                    -0.186410
     24 H                     0.083084
     25 H                     0.082720
     26 H                     0.098415
     27 H                     0.076664
     28 H                     0.071201
     29 H                     0.076930
     30 H                     0.072506
     31 H                     0.084706
     32 O                    -0.211330
     33 C                    -0.137819
     34 C                     0.024651
     35 C                    -0.140897
     36 C                    -0.145585
     37 C                     0.022485
     38 O                    -0.192794
     39 H                     0.082608
     40 H                     0.088467
     41 H                     0.098337
     42 H                     0.089588
     43 H                     0.078103
     44 H                     0.073903
     45 H                     0.078663
     46 H                     0.073987
     47 H                     0.084714
     48 H                     0.079624
     49 H                     0.086514
     50 H                     0.088218
     51 H                     0.091978
     52 H                     0.086810
     53 H                     0.094423
     54 H                     0.103451
     55 H                     0.089515
     56 H                     0.092404
  ----------------------------------------
  Sum of atomic charges =     0.000000

                    Cartesian Multipole Moments
 -----------------------------------------------------------------
    Charge (ESU x 10^10)
                 0.0000
    Dipole Moment (Debye)
         X       1.2061      Y       1.5639      Z      -0.6970
       Tot       2.0943
    Quadrupole Moments (Debye-Ang)
        XX    -165.7285     XY       1.1765     YY    -158.3719
        XZ       0.2662     YZ      -8.0413     ZZ    -154.2213

 Total job time:  65.53s(wall), 3122.61s(cpu)
        *  Thank you very much for using Q-Chem.  Have a nice day.  *
