 Q-Chem 5.0, Q-Chem, Inc., Pleasanton, CA (2017)
 Q-Chem 5.0.1 for Intel X86 EM64T Linux

User input:
--------------------------------------------------------------
$molecule
0  1
O 3.5579840827 -1.7190179275 -2.0229670955
C 2.9992094836 -0.7519958267 -1.4613995001
C 3.6812638348 0.4122952167 -0.6643342042
C 2.7249189631 1.1819839561 0.3197594215
C 1.6444599596 0.2625593989 1.0125474482
O 1.946430264 -1.1130062352 0.7341548306
C 1.1301383386 -2.0793372244 1.5093568654
C -0.4171536179 -1.7863713735 1.4963585795
O -0.702860299 -1.142481619 0.191409075
C -2.0663874151 -1.3204967595 -0.2027616996
C -2.4708618581 -0.1593315721 -1.188219707
C -3.9493548329 0.3673160966 -0.944770259
C -4.7673429568 -0.4767654836 0.0947378778
O -5.6413023972 -1.3326780331 -0.1625866443
O 1.6430057107 -0.3450049244 -1.7266229939
O -4.352824566 -0.1152238917 1.4174511646
O -2.809085875 -2.225886871 0.2366932271
C -5.0256415523 -0.9863799328 2.4066907845
C -1.6322380488 1.1573096095 -0.9092569082
C -1.861329954 2.1675475635 -2.10083176
C -3.3041010655 2.703873665 -1.77632502
C -3.6565596489 1.8615547705 -0.4868771994
O -2.3614674994 1.7708442407 0.2251194013
H -2.3440229054 -0.514419416 -2.2280435014
H -4.5193915434 0.3458465561 -1.8905104982
H -0.5772299547 0.9606970394 -0.6386365222
H -1.1123132646 2.9747230151 -2.0715514952
H -1.803292675 1.6694303006 -3.0817117916
H -3.289978312 3.7794601353 -1.5383507288
H -4.0194475875 2.5321733376 -2.5963564213
H -4.4313283915 2.3018070272 0.1696045721
O 0.7458765504 0.6631053952 1.7817811803
C 0.9237256238 -1.3945005275 -2.4803156839
C 4.9197476655 0.0760813707 0.2723272423
C 5.8611361766 1.3394046916 0.2208120202
C 4.9524849736 2.3962401557 0.9559793728
C 3.7705626652 1.4881251084 1.4840664758
O 4.3858044073 0.1461165198 1.6543666412
H 4.0181118215 1.1218781021 -1.4453666688
H 2.2497213902 2.0775634584 -0.1160009108
H 1.6438903819 -2.1525812048 -2.8490808508
H 5.3993959517 -0.9032016322 0.0800722331
H 6.7891073564 1.1493401344 0.7842404813
H 6.1217643857 1.636422799 -0.8077125855
H 5.4790901413 2.8756346152 1.7961950698
H 4.5866538847 3.1830064666 0.276406684
H 3.304941694 1.8249720245 2.4307678218
H 0.3999533209 -0.9173759223 -3.3309870882
H 0.1812686237 -1.8636651758 -1.8037590787
H -4.6704389727 -0.6536153505 3.3993163294
H -4.7550344306 -2.0509181374 2.2502579187
H -6.1295920606 -0.8912627575 2.3554245842
H -0.9924602885 -2.7319994967 1.6039783003
H -0.694783134 -1.0862882836 2.3108983286
H 1.4839026724 -2.1190514814 2.5636899372
H 1.3383159736 -3.0561363917 1.0282747308
$end

$rem
JOBTYPE                   OPT
METHOD                    B3LYP
DFT_D                     d3_op
BASIS                     STO-3G
GEOM_OPT_MAX_CYCLES       100
GEOM_OPT_TOL_GRADIENT     300
GEOM_OPT_TOL_DISPLACEMENT 1200
GEOM_OPT_TOL_ENERGY       100
SYMMETRY                  False
THRESH                    12
SCF_CONVERGENCE           8
MAX_SUB_FILE_NUM          128
MEM_STATIC                400
MEM_TOTAL                 4000
$end
--------------------------------------------------------------

   16   -1510.2719619888      5.24E-09 Convergence criterion met
 Total energy in the final basis set = -1510.27196199
   14   -1510.2711146722      9.40E-09 Convergence criterion met
 Total energy in the final basis set = -1510.27111467
   14   -1510.2775423702      4.00E-09 Convergence criterion met
 Total energy in the final basis set = -1510.27754237
   15   -1510.2779249291      3.03E-09 Convergence criterion met
 Total energy in the final basis set = -1510.27792493
   13   -1510.2808378711      2.06E-09 Convergence criterion met
 Total energy in the final basis set = -1510.28083787
   14   -1510.2842482256      3.38E-09 Convergence criterion met
 Total energy in the final basis set = -1510.28424823
   14   -1510.2812594309      6.91E-09 Convergence criterion met
 Total energy in the final basis set = -1510.28125943
   14   -1510.2869250836      4.87E-09 Convergence criterion met
    9   -1510.3086689373      4.75E-09 Convergence criterion met
 Total energy in the final basis set = -1510.30866894
    9   -1510.3086714148      7.46E-09 Convergence criterion met
 Total energy in the final basis set = -1510.30867141
    9   -1510.3086720349      4.76E-09 Convergence criterion met
 Total energy in the final basis set = -1510.30867203
    9   -1510.3086725392      8.78E-09 Convergence criterion met
 Total energy in the final basis set = -1510.30867254
    9   -1510.3086728189      8.70E-09 Convergence criterion met
 Total energy in the final basis set = -1510.30867282
    9   -1510.3086733653      7.28E-09 Convergence criterion met
 Total energy in the final basis set = -1510.30867337

             Standard Nuclear Orientation (Angstroms)
    I     Atom           X                Y                Z
 ----------------------------------------------------------------
    1      O       3.3463884428     0.9144353749     1.7087470620
    2      C       2.4479392192     0.1106780640     1.3814657758
    3      C       2.1408084610    -0.4783015429    -0.0357238446
    4      C       1.2762915153     0.4610834562    -0.9807278588
    5      C       0.9458016297     1.8727558293    -0.4009901900
    6      O       0.6823076014     1.7183863442     1.0051875586
    7      C       0.2541820833     2.9849429904     1.6318916706
    8      C      -1.3122297450     2.9371195108     1.8473560113
    9      O      -1.7532330440     1.5300604212     2.0278935297
   10      C      -1.9239935045     0.9228934682     0.7437348828
   11      C      -2.2324593097    -0.5973720609     0.9107731697
   12      C      -2.7303903969    -1.2643217694    -0.4392031989
   13      C      -2.6495836600    -0.3107351178    -1.6909741651
   14      O      -3.6168001257     0.2595187579    -2.2408955317
   15      O       1.5632869266    -0.5206208470     2.3401406305
   16      O      -1.3110025215    -0.3278693886    -2.2361366588
   17      O      -1.8716105817     1.5523671743    -0.3398741034
   18      C      -1.2150728954     0.6346629193    -3.3581309440
   19      C      -0.9429419205    -1.4814656029     1.2350846968
   20      C      -1.4545773749    -2.8445914671     1.8426173402
   21      C      -2.0643635084    -3.5397529541     0.5677889560
   22      C      -1.7242026819    -2.4812338368    -0.5554856621
   23      O      -0.4484163855    -1.8874578884    -0.0999946772
   24      H      -2.9816009152    -0.7095380543     1.7148144031
   25      H      -3.7803146059    -1.5952699183    -0.3520352232
   26      H      -0.1140766235    -0.9761575963     1.7904775188
   27      H      -0.6076426719    -3.4208292374     2.2480487671
   28      H      -2.1962299541    -2.6958366781     2.6434206652
   29      H      -1.5711262409    -4.5012276187     0.3542354732
   30      H      -3.1491706130    -3.7116545146     0.6553504371
   31      H      -1.6203677817    -2.8930750149    -1.5777657910
   32      O       0.8706307006     2.9622218204    -1.0055728204
   33      C       1.7337778795     0.0811259381     3.6795009715
   34      C       3.4546687299    -0.6491737337    -0.9139367522
   35      C       3.1328236172    -1.6812490125    -2.0640046298
   36      C       2.2160362464    -0.8091521415    -3.0002635650
   37      C       2.2258925967     0.5751013422    -2.2385397511
   38      O       3.5781876383     0.6383393338    -1.6340665165
   39      H       1.6003117045    -1.4348784848     0.0873122722
   40      H       0.3068865047    -0.0342976889    -1.2341081987
   41      H       2.6062162317     0.7655901627     3.6585646609
   42      H       4.3740782254    -0.8544251766    -0.3319303473
   43      H       4.0585611524    -1.9881854720    -2.5764244198
   44      H       2.6194334964    -2.5794656726    -1.6856285758
   45      H       2.6480474664    -0.7030973234    -4.0079825085
   46      H       1.1978002586    -1.2198535763    -3.0888701310
   47      H       2.0392985109     1.4693225542    -2.8648929676
   48      H       1.8977564688    -0.7289116397     4.4161638669
   49      H       0.8165392215     0.6426080698     3.9479539862
   50      H      -0.6140726076     0.1669452455    -4.1602160763
   51      H      -0.7144507066     1.5611556486    -3.0111925100
   52      H      -2.2323034864     0.8801833718    -3.7225225332
   53      H      -1.5981140398     3.4785078736     2.7703700441
   54      H      -1.8263610923     3.3792362651     0.9683886461
   55      H       0.5269979404     3.8402961083     0.9772284680
   56      H       0.7840784945     3.0582133322     2.6027577751
 ----------------------------------------------------------------

    9   -1510.3086737550      5.35E-09 Convergence criterion met
 Total energy in the final basis set = -1510.30867375
 Final energy is   -1510.30867375498
 **  OPTIMIZATION CONVERGED  **

                    Orbital Energies (a.u.)
 --------------------------------------------------------------

 Alpha MOs
 -- Occupied --
-18.946 -18.936 -18.931 -18.928 -18.890 -18.887 -18.880 -18.875
-18.871 -18.867 -10.111 -10.100 -10.098 -10.097 -10.078 -10.075
-10.063 -10.057 -10.051 -10.049 -10.047 -10.046 -10.041 -10.038
-10.022 -10.021 -10.018 -10.017 -10.010 -10.009  -1.029  -1.012
 -1.004  -1.002  -0.972  -0.959  -0.949  -0.938  -0.932  -0.930
 -0.765  -0.753  -0.727  -0.719  -0.709  -0.701  -0.693  -0.658
 -0.652  -0.621  -0.595  -0.579  -0.546  -0.540  -0.535  -0.529
 -0.513  -0.502  -0.491  -0.477  -0.468  -0.452  -0.449  -0.443
 -0.433  -0.427  -0.423  -0.420  -0.411  -0.410  -0.407  -0.400
 -0.395  -0.385  -0.372  -0.366  -0.364  -0.360  -0.348  -0.344
 -0.341  -0.338  -0.335  -0.332  -0.329  -0.321  -0.318  -0.313
 -0.306  -0.303  -0.301  -0.297  -0.294  -0.284  -0.281  -0.278
 -0.266  -0.259  -0.243  -0.243  -0.242  -0.236  -0.220  -0.193
 -0.176  -0.171  -0.168  -0.163  -0.160  -0.151  -0.150  -0.146
 -0.134

          Ground-State Mulliken Net Atomic Charges

     Atom                 Charge (a.u.)
  ----------------------------------------
      1 O                    -0.216767
      2 C                     0.220564
      3 C                    -0.086287
      4 C                    -0.092810
      5 C                     0.217444
      6 O                    -0.178847
      7 C                    -0.053700
      8 C                    -0.053936
      9 O                    -0.166951
     10 C                     0.216919
     11 C                    -0.081387
     12 C                    -0.081094
     13 C                     0.218238
     14 O                    -0.217426
     15 O                    -0.174683
     16 O                    -0.174986
     17 O                    -0.213638
     18 C                    -0.135794
     19 C                     0.007839
     20 C                    -0.144077
     21 C                    -0.145152
     22 C                     0.026704
     23 O                    -0.195943
     24 H                     0.086855
     25 H                     0.084915
     26 H                     0.114537
     27 H                     0.077126
     28 H                     0.072124
     29 H                     0.076822
     30 H                     0.073177
     31 H                     0.083972
     32 O                    -0.210033
     33 C                    -0.135901
     34 C                     0.024606
     35 C                    -0.142842
     36 C                    -0.144919
     37 C                     0.022491
     38 O                    -0.191685
     39 H                     0.100875
     40 H                     0.120168
     41 H                     0.101838
     42 H                     0.081680
     43 H                     0.074841
     44 H                     0.074665
     45 H                     0.073681
     46 H                     0.077542
     47 H                     0.084523
     48 H                     0.084217
     49 H                     0.083022
     50 H                     0.083501
     51 H                     0.091237
     52 H                     0.101439
     53 H                     0.090735
     54 H                     0.099206
     55 H                     0.103595
     56 H                     0.087759
  ----------------------------------------
  Sum of atomic charges =    -0.000000

                    Cartesian Multipole Moments
 -----------------------------------------------------------------
    Charge (ESU x 10^10)
                -0.0000
    Dipole Moment (Debye)
         X      -1.7401      Y      -2.0630      Z       2.3552
       Tot       3.5820
    Quadrupole Moments (Debye-Ang)
        XX    -172.4618     XY      -2.7259     YY    -154.5941
        XZ      -4.4246     YZ       6.9723     ZZ    -151.0568

 Total job time:  171.65s(wall), 8190.05s(cpu)
        *  Thank you very much for using Q-Chem.  Have a nice day.  *
