 Q-Chem 5.0, Q-Chem, Inc., Pleasanton, CA (2017)
 Q-Chem 5.0.1 for Intel X86 EM64T Linux

User input:
--------------------------------------------------------------
$molecule
0  1
O -1.5146853087 -1.4158532361 1.268742349
C -2.6297552963 -0.860936068 1.1674714206
C -3.6555821222 -1.0019561231 -0.0167012376
C -3.9603017857 0.3764378178 -0.7489954609
C -3.433995672 1.6235171173 0.0379036625
O -2.005640578 1.578718628 -0.0033765991
C -1.4159197255 2.7527681221 0.6805740388
C 0.1323272635 2.6241117642 0.4609732223
O 0.3920670432 1.168705149 0.3306282927
C 1.700820784 0.9387159224 -0.1967379135
C 1.919060497 -0.6170521658 -0.3123204497
C 3.4512438421 -1.0033365983 -0.3705531323
C 4.3965624006 0.1124789644 -0.9475570852
O 4.3355641122 0.6187431678 -2.088921942
O -3.1703596944 0.0321464657 2.1467197867
O 5.3619823365 0.4885483483 0.0422829751
O 2.5151367878 1.8561805528 -0.4374005876
C 6.2076757626 1.5854807134 -0.4794316706
C 1.5222899406 -1.2775488998 1.0711554547
C 1.6916753068 -2.846775091 0.9949304472
C 3.2466450823 -3.0089565035 1.1752138298
C 3.6976934363 -1.4982314306 1.12349657
O 2.6483562019 -0.8260671106 1.9284972007
H 1.3416692722 -1.0121339188 -1.168206354
H 3.5615093403 -1.8640990134 -1.0566774099
H 0.5362604406 -0.9468238374 1.4567345137
H 1.1304471831 -3.3331276879 1.8080329058
H 1.3325973625 -3.2485220288 0.0338089816
H 3.4934195161 -3.4478953659 2.1553538444
H 3.7118220107 -3.6193469419 0.3847608822
H 4.7041591285 -1.27266203 1.5244335085
O -4.1016460933 2.5367821283 0.5683119875
C -2.1909980346 0.2258728014 3.2416127969
C -2.9683167924 -1.8113949152 -1.1897829381
C -4.0481722819 -2.1603987812 -2.2884781269
C -4.2048271767 -0.7742925231 -3.0184389251
C -3.2462507245 0.1315117539 -2.1503861398
O -2.1221745253 -0.7772625847 -1.8333633137
H -4.5827793845 -1.4744136678 0.3558989531
H -5.0492189426 0.5090343356 -0.8776013121
H -1.2012273814 0.5361295638 2.8493332694
H -2.3418466948 -2.655377863 -0.8417894522
H -3.6705470189 -2.9381653136 -2.9708473891
H -4.9916631817 -2.5106574717 -1.8401334304
H -3.8439749044 -0.8244066995 -4.0583273911
H -5.2433120446 -0.4063175668 -3.0214756104
H -2.8763579104 1.0479287098 -2.6491560555
H -2.0583501121 -0.7020527371 3.834958206
H -2.6071132041 1.0202900668 3.8879044248
H 6.8871403541 1.8677259559 0.3457416213
H 5.5942603655 2.4607111702 -0.7755085705
H 6.8049339114 1.2616961216 -1.3565681797
H 0.4509502992 3.1556365138 -0.4607676025
H 0.6921529817 3.0568716951 1.3188741669
H -1.6692191997 2.7350312342 1.7624575283
H -1.8011334814 3.7053674977 0.2564224048
$end

$rem
JOBTYPE                   OPT
METHOD                    B3LYP
DFT_D                     d3_op
BASIS                     STO-3G
GEOM_OPT_MAX_CYCLES       100
GEOM_OPT_TOL_GRADIENT     300
GEOM_OPT_TOL_DISPLACEMENT 1200
GEOM_OPT_TOL_ENERGY       100
SYMMETRY                  False
THRESH                    12
SCF_CONVERGENCE           8
MAX_SUB_FILE_NUM          128
MEM_STATIC                400
MEM_TOTAL                 4000
$end
--------------------------------------------------------------

   16   -1510.2814505705      5.78E-09 Convergence criterion met
 Total energy in the final basis set = -1510.28145057
   14   -1510.2788355723      3.59E-09 Convergence criterion met
 Total energy in the final basis set = -1510.27883557
   13   -1510.2832704743      9.49E-09 Convergence criterion met
 Total energy in the final basis set = -1510.28327047
   14   -1510.2838128693      6.96E-09 Convergence criterion met
 Total energy in the final basis set = -1510.28381287
   13   -1510.2856722085      6.04E-09 Convergence criterion met
 Total energy in the final basis set = -1510.28567221
   13   -1510.2873721667      4.32E-09 Convergence criterion met
 Total energy in the final basis set = -1510.28737217
   13   -1510.2881056121      9.25E-09 Convergence criterion met
 Total energy in the final basis set = -1510.28810561
   13   -1510.2891975932      5.52E-09 Convergence criterion met
   11   -1510.3011332759      8.82E-09 Convergence criterion met
 Total energy in the final basis set = -1510.30113328
   12   -1510.3011401161      7.02E-09 Convergence criterion met
 Total energy in the final basis set = -1510.30114012
   11   -1510.3011517443      4.98E-09 Convergence criterion met
 Total energy in the final basis set = -1510.30115174
   11   -1510.3011427968      3.05E-09 Convergence criterion met
 Total energy in the final basis set = -1510.30114280
   10   -1510.3011318631      7.19E-09 Convergence criterion met
 Total energy in the final basis set = -1510.30113186
   11   -1510.3011128608      5.67E-09 Convergence criterion met
 Total energy in the final basis set = -1510.30111286

             Standard Nuclear Orientation (Angstroms)
    I     Atom           X                Y                Z
 ----------------------------------------------------------------
    1      O       0.9430852490    -1.8335297101    -0.7186227137
    2      C       2.0144078328    -1.1800828083    -0.7393370466
    3      C       3.0888070107    -1.1632374971     0.4035511857
    4      C       3.7031406665     0.2645139046     0.7260889764
    5      C       3.2804031104     1.4197258415    -0.2458707156
    6      O       1.8852759287     1.7088313402    -0.0668179766
    7      C       1.4833616175     2.8024336497    -0.9852344590
    8      C      -0.0795664282     2.8298920689    -1.0043714077
    9      O      -0.5959457180     1.5011257908    -1.4098387605
   10      C      -1.2902746602     0.8799163741    -0.3056303111
   11      C      -1.6494881315    -0.5794610089    -0.7065765000
   12      C      -2.6701194869    -1.2840899087     0.2761613110
   13      C      -3.1919735425    -0.3670078928     1.4399239350
   14      O      -2.9099639900    -0.4665573032     2.6535425190
   15      O       2.4479432639    -0.3792276580    -1.8293229330
   16      O      -4.1388662131     0.5683705658     0.9049059594
   17      O      -1.5057339572     1.4631532619     0.7787167204
   18      C      -4.5941787388     1.4825874101     1.9742897333
   19      C      -2.4268266220    -0.6790741948    -2.0875428177
   20      C      -2.3013354800    -2.1709213135    -2.5922719508
   21      C      -3.3020803053    -2.9000647762    -1.6204221567
   22      C      -3.8191076838    -1.6892217764    -0.7454890479
   23      O      -3.8497870365    -0.5585713465    -1.7010113638
   24      H      -0.6860250333    -1.1412212049    -0.7575663586
   25      H      -2.2087146137    -2.1724579157     0.7424239371
   26      H      -2.1523584832     0.1001605833    -2.8246422970
   27      H      -2.6223646599    -2.2554517541    -3.6428109293
   28      H      -1.2696894525    -2.5469083741    -2.5013344177
   29      H      -4.1369750616    -3.3610599613    -2.1719866317
   30      H      -2.8121550756    -3.6742108787    -1.0086180777
   31      H      -4.8154948883    -1.8323974197    -0.2849098658
   32      O       4.0310741901     2.0595169427    -1.0139975653
   33      C       1.3585368000    -0.2200781786    -2.8286626632
   34      C       2.3839982908    -1.5105331673     1.7792728787
   35      C       3.4884495850    -1.8379870609     2.8572871228
   36      C       4.0298536284    -0.3973654862     3.1870333972
   37      C       3.1601733555     0.4844846036     2.2079120242
   38      O       1.8462190512    -0.1971978692     2.2056846221
   39      H       3.8863944490    -1.8854077332     0.1469068157
   40      H       4.8062617793     0.2207293227     0.7039993261
   41      H       0.5461208487     0.4193712015    -2.4014353277
   42      H       1.5658457082    -2.2502491606     1.6797793921
   43      H       3.0354692055    -2.3134850412     3.7416892838
   44      H       4.2705404524    -2.5044325574     2.4594462976
   45      H       3.8258627794    -0.1199336328     4.2335174826
   46      H       5.1097903515    -0.2925269444     2.9966020416
   47      H       3.0449938187     1.5455353908     2.5017618097
   48      H       0.9464444111    -1.2024444682    -3.1327004560
   49      H       1.8221813216     0.2761558091    -3.7000953351
   50      H      -5.3695321290     2.1256338021     1.5186949625
   51      H      -3.7595254660     2.1127841655     2.3447515726
   52      H      -5.0259742201     0.9294280809     2.8333703759
   53      H      -0.4837174838     3.0554400951     0.0068029614
   54      H      -0.4350336499     3.5846571364    -1.7367793699
   55      H       1.8902476845     2.6256666552    -2.0037417630
   56      H       1.8699248194     3.7835583160    -0.6290552206
 ----------------------------------------------------------------

    9   -1510.3011133420      7.64E-09 Convergence criterion met
 Total energy in the final basis set = -1510.30111334
 Final energy is   -1510.30111334195
 **  OPTIMIZATION CONVERGED  **

                    Orbital Energies (a.u.)
 --------------------------------------------------------------

 Alpha MOs
 -- Occupied --
-18.950 -18.941 -18.931 -18.913 -18.889 -18.889 -18.888 -18.879
-18.872 -18.853 -10.114 -10.104 -10.100 -10.081 -10.076 -10.075
-10.061 -10.060 -10.055 -10.052 -10.051 -10.048 -10.044 -10.039
-10.023 -10.021 -10.020 -10.019 -10.013 -10.012  -1.026  -1.019
 -1.008  -0.991  -0.971  -0.962  -0.948  -0.945  -0.933  -0.916
 -0.766  -0.754  -0.729  -0.721  -0.711  -0.704  -0.693  -0.664
 -0.645  -0.616  -0.598  -0.574  -0.547  -0.539  -0.537  -0.530
 -0.519  -0.507  -0.489  -0.482  -0.470  -0.460  -0.447  -0.443
 -0.434  -0.425  -0.419  -0.414  -0.411  -0.408  -0.404  -0.397
 -0.395  -0.384  -0.375  -0.370  -0.360  -0.354  -0.352  -0.348
 -0.340  -0.335  -0.334  -0.329  -0.326  -0.322  -0.317  -0.314
 -0.310  -0.307  -0.305  -0.298  -0.294  -0.281  -0.279  -0.275
 -0.265  -0.257  -0.253  -0.250  -0.235  -0.235  -0.226  -0.190
 -0.177  -0.176  -0.168  -0.162  -0.157  -0.151  -0.145  -0.136
 -0.132

          Ground-State Mulliken Net Atomic Charges

     Atom                 Charge (a.u.)
  ----------------------------------------
      1 O                    -0.218921
      2 C                     0.223124
      3 C                    -0.077898
      4 C                    -0.080282
      5 C                     0.213302
      6 O                    -0.175565
      7 C                    -0.048602
      8 C                    -0.054432
      9 O                    -0.177792
     10 C                     0.221940
     11 C                    -0.096270
     12 C                    -0.080954
     13 C                     0.212212
     14 O                    -0.217675
     15 O                    -0.165543
     16 O                    -0.171092
     17 O                    -0.201978
     18 C                    -0.127998
     19 C                     0.023168
     20 C                    -0.144211
     21 C                    -0.143968
     22 C                     0.026560
     23 O                    -0.188781
     24 H                     0.114795
     25 H                     0.083860
     26 H                     0.082477
     27 H                     0.074150
     28 H                     0.075836
     29 H                     0.075439
     30 H                     0.074064
     31 H                     0.082749
     32 O                    -0.215952
     33 C                    -0.146823
     34 C                     0.024244
     35 C                    -0.144339
     36 C                    -0.143536
     37 C                     0.026273
     38 O                    -0.184626
     39 H                     0.086749
     40 H                     0.085291
     41 H                     0.111489
     42 H                     0.090980
     43 H                     0.079913
     44 H                     0.072978
     45 H                     0.079338
     46 H                     0.073677
     47 H                     0.084617
     48 H                     0.085470
     49 H                     0.087051
     50 H                     0.085897
     51 H                     0.090084
     52 H                     0.085702
     53 H                     0.108099
     54 H                     0.087559
     55 H                     0.091728
     56 H                     0.086420
  ----------------------------------------
  Sum of atomic charges =    -0.000000

                    Cartesian Multipole Moments
 -----------------------------------------------------------------
    Charge (ESU x 10^10)
                -0.0000
    Dipole Moment (Debye)
         X       2.0172      Y      -0.4448      Z      -1.1517
       Tot       2.3650
    Quadrupole Moments (Debye-Ang)
        XX    -160.5224     XY      -4.7707     YY    -149.6024
        XZ       6.3352     YZ       1.0249     ZZ    -160.6052

 Total job time:  114.95s(wall), 5483.34s(cpu)
        *  Thank you very much for using Q-Chem.  Have a nice day.  *
