 Q-Chem 5.0, Q-Chem, Inc., Pleasanton, CA (2017)
 Q-Chem 5.0.1 for Intel X86 EM64T Linux

User input:
--------------------------------------------------------------
$molecule
0  1
O -3.94934 -3.66094 2.70899
C -3.26408 -4.56952 2.26188
C -3.36658 -6.02376 2.66595
C -2.11997 -6.66796 3.29431
C -0.96852 -5.73977 3.61169
O -1.31583 -4.90193 4.63287
C -0.25783 -4.0196 5.02194
C -0.68253 -3.18988 6.22914
O -2.10797 -3.01387 6.22501
C -2.64295 -2.56094 7.38596
C -4.14266 -2.39688 7.31816
C -4.73808 -1.44728 8.36793
C -3.74972 -0.54466 9.07865
O -2.80451 -0.92263 9.75562
O -2.34293 -4.28496 1.30464
O -3.90585 0.79931 8.92057
O -2.10217 -2.84749 8.44577
C -3.08293 1.75546 9.47864
C -4.67523 -1.73702 6.02218
C -6.11134 -2.19436 5.78001
C -6.82625 -1.48348 6.91133
C -5.6796 -0.62481 7.46394
O -4.85932 -0.38075 6.34819
H -4.56781 -3.42421 7.38982
H -5.27567 -2.00558 9.16521
H -4.06066 -1.93957 5.11903
H -6.42953 -1.73804 4.81479
H -6.27416 -3.29269 5.73132
H -7.63411 -0.85563 6.47447
H -7.24014 -2.14652 7.70182
H -6.09343 0.27071 7.97662
O 0.15011 -5.8348 3.12109
C -2.09329 -3.0184 0.82001
C -4.39665 -6.28804 3.78753
C -4.8633 -7.74319 3.73453
C -3.62957 -8.4572 4.24925
C -2.73216 -7.26018 4.5778
O -3.64167 -6.26064 4.97487
H -3.68538 -6.5649 1.74668
H -1.70714 -7.45559 2.6246
H -1.75052 -2.35563 1.64341
H -5.27585 -5.60854 3.74925
H -5.67611 -7.85805 4.48717
H -5.23178 -8.08379 2.74305
H -3.90101 -9.00033 5.18179
H -3.14908 -9.15522 3.53
H -1.95512 -7.5432 5.32162
H -3.01079 -2.59798 0.3555
H -1.29604 -3.07397 0.0508
H -3.44427 2.76226 9.18499
H -2.04275 1.62707 9.11002
H -3.102 1.67729 10.58668
H -0.42689 -3.84613 7.09231
H -0.11468 -2.23957 6.33333
H -0.10342 -3.31248 4.17586
H 0.70551 -4.53741 5.2361
$end

$opt
CONSTRAINT
tors           1           2           3           4    -119.016
tors           3           4           5           6     +68.459
tors           4           5           6           7    +178.039
tors           5           6           7           8    -175.827
tors           6           7           8           9     -28.421
tors           7           8           9          10    +165.729
tors           8           9          10          11    -180.000
tors           9          10          11          12    -159.144
tors          11          12          13          14     -60.127
ENDCONSTRAINT
$end

$rem
JOBTYPE                   OPT
METHOD                    B3LYP
DFT_D                     d3_op
BASIS                     STO-3G
GEOM_OPT_MAX_CYCLES       100
GEOM_OPT_TOL_GRADIENT     300
GEOM_OPT_TOL_DISPLACEMENT 1200
GEOM_OPT_TOL_ENERGY       100
SYMMETRY                  False
THRESH                    12
SCF_CONVERGENCE           8
MAX_SUB_FILE_NUM          128
MEM_STATIC                400
MEM_TOTAL                 4000
$end
--------------------------------------------------------------

   15   -1510.1326383865      7.10E-09 Convergence criterion met
 Total energy in the final basis set = -1510.13263839
   14   -1510.2040145596      8.01E-09 Convergence criterion met
 Total energy in the final basis set = -1510.20401456
   14   -1510.2432161457      9.11E-09 Convergence criterion met
 Total energy in the final basis set = -1510.24321615
   14   -1510.2621333793      9.41E-09 Convergence criterion met
 Total energy in the final basis set = -1510.26213338
   14   -1510.2675601730      6.82E-09 Convergence criterion met
 Total energy in the final basis set = -1510.26756017
   14   -1510.2717403579      3.27E-09 Convergence criterion met
 Total energy in the final basis set = -1510.27174036
   13   -1510.2739216955      7.07E-09 Convergence criterion met
 Total energy in the final basis set = -1510.27392170
   13   -1510.2754359302      4.58E-09 Convergence criterion met
   11   -1510.2814198944      4.50E-09 Convergence criterion met
 Total energy in the final basis set = -1510.28141989
   11   -1510.2814540011      6.02E-09 Convergence criterion met
 Total energy in the final basis set = -1510.28145400
    9   -1510.2814654525      7.46E-09 Convergence criterion met
 Total energy in the final basis set = -1510.28146545
   10   -1510.2814733634      8.23E-09 Convergence criterion met
 Total energy in the final basis set = -1510.28147336
   10   -1510.2814801985      6.71E-09 Convergence criterion met
 Total energy in the final basis set = -1510.28148020
    9   -1510.2814863460      6.78E-09 Convergence criterion met
 Total energy in the final basis set = -1510.28148635

             Standard Nuclear Orientation (Angstroms)
    I     Atom           X                Y                Z
 ----------------------------------------------------------------
    1      O      -1.5146853087    -1.4158532361     1.2687423490
    2      C      -2.6297552963    -0.8609360680     1.1674714206
    3      C      -3.6555821222    -1.0019561231    -0.0167012376
    4      C      -3.9603017857     0.3764378178    -0.7489954609
    5      C      -3.4339956720     1.6235171173     0.0379036625
    6      O      -2.0056405780     1.5787186280    -0.0033765991
    7      C      -1.4159197255     2.7527681221     0.6805740388
    8      C       0.1323272635     2.6241117642     0.4609732223
    9      O       0.3920670432     1.1687051490     0.3306282927
   10      C       1.7008207840     0.9387159224    -0.1967379135
   11      C       1.9190604970    -0.6170521658    -0.3123204497
   12      C       3.4512438421    -1.0033365983    -0.3705531323
   13      C       4.3965624006     0.1124789644    -0.9475570852
   14      O       4.3355641122     0.6187431678    -2.0889219420
   15      O      -3.1703596944     0.0321464657     2.1467197867
   16      O       5.3619823365     0.4885483483     0.0422829751
   17      O       2.5151367878     1.8561805528    -0.4374005876
   18      C       6.2076757626     1.5854807134    -0.4794316706
   19      C       1.5222899406    -1.2775488998     1.0711554547
   20      C       1.6916753068    -2.8467750910     0.9949304472
   21      C       3.2466450823    -3.0089565035     1.1752138298
   22      C       3.6976934363    -1.4982314306     1.1234965700
   23      O       2.6483562019    -0.8260671106     1.9284972007
   24      H       1.3416692722    -1.0121339188    -1.1682063540
   25      H       3.5615093403    -1.8640990134    -1.0566774099
   26      H       0.5362604406    -0.9468238374     1.4567345137
   27      H       1.1304471831    -3.3331276879     1.8080329058
   28      H       1.3325973625    -3.2485220288     0.0338089816
   29      H       3.4934195161    -3.4478953659     2.1553538444
   30      H       3.7118220107    -3.6193469419     0.3847608822
   31      H       4.7041591285    -1.2726620300     1.5244335085
   32      O      -4.1016460933     2.5367821283     0.5683119875
   33      C      -2.1909980346     0.2258728014     3.2416127969
   34      C      -2.9683167924    -1.8113949152    -1.1897829381
   35      C      -4.0481722819    -2.1603987812    -2.2884781269
   36      C      -4.2048271767    -0.7742925231    -3.0184389251
   37      C      -3.2462507245     0.1315117539    -2.1503861398
   38      O      -2.1221745253    -0.7772625847    -1.8333633137
   39      H      -4.5827793845    -1.4744136678     0.3558989531
   40      H      -5.0492189426     0.5090343356    -0.8776013121
   41      H      -1.2012273814     0.5361295638     2.8493332694
   42      H      -2.3418466948    -2.6553778630    -0.8417894522
   43      H      -3.6705470189    -2.9381653136    -2.9708473891
   44      H      -4.9916631817    -2.5106574717    -1.8401334304
   45      H      -3.8439749044    -0.8244066995    -4.0583273911
   46      H      -5.2433120446    -0.4063175668    -3.0214756104
   47      H      -2.8763579104     1.0479287098    -2.6491560555
   48      H      -2.0583501121    -0.7020527371     3.8349582060
   49      H      -2.6071132041     1.0202900668     3.8879044248
   50      H       6.8871403541     1.8677259559     0.3457416213
   51      H       5.5942603655     2.4607111702    -0.7755085705
   52      H       6.8049339114     1.2616961216    -1.3565681797
   53      H       0.4509502992     3.1556365138    -0.4607676025
   54      H       0.6921529817     3.0568716951     1.3188741669
   55      H      -1.6692191997     2.7350312342     1.7624575283
   56      H      -1.8011334814     3.7053674977     0.2564224048
 ----------------------------------------------------------------

    9   -1510.2814890503      5.13E-09 Convergence criterion met
 Total energy in the final basis set = -1510.28148905
 Final energy is   -1510.28148905028
 **  OPTIMIZATION CONVERGED  **

                    Orbital Energies (a.u.)
 --------------------------------------------------------------

 Alpha MOs
 -- Occupied --
-18.940 -18.934 -18.931 -18.920 -18.888 -18.882 -18.874 -18.872
-18.871 -18.855 -10.104 -10.100 -10.094 -10.086 -10.077 -10.075
-10.067 -10.062 -10.059 -10.052 -10.046 -10.041 -10.041 -10.038
-10.028 -10.024 -10.022 -10.021 -10.009 -10.007  -1.020  -1.012
 -1.005  -0.995  -0.971  -0.957  -0.941  -0.940  -0.928  -0.919
 -0.765  -0.752  -0.729  -0.719  -0.709  -0.701  -0.689  -0.666
 -0.649  -0.612  -0.595  -0.574  -0.548  -0.539  -0.534  -0.526
 -0.517  -0.503  -0.487  -0.472  -0.469  -0.454  -0.448  -0.444
 -0.433  -0.430  -0.422  -0.417  -0.410  -0.405  -0.398  -0.396
 -0.383  -0.381  -0.374  -0.363  -0.359  -0.355  -0.354  -0.349
 -0.341  -0.333  -0.331  -0.329  -0.323  -0.316  -0.312  -0.308
 -0.307  -0.302  -0.298  -0.293  -0.290  -0.289  -0.278  -0.268
 -0.267  -0.257  -0.254  -0.246  -0.238  -0.235  -0.222  -0.182
 -0.177  -0.173  -0.164  -0.160  -0.152  -0.146  -0.144  -0.137
 -0.130

          Ground-State Mulliken Net Atomic Charges

     Atom                 Charge (a.u.)
  ----------------------------------------
      1 O                    -0.210178
      2 C                     0.218237
      3 C                    -0.077153
      4 C                    -0.079728
      5 C                     0.211374
      6 O                    -0.167651
      7 C                    -0.045662
      8 C                    -0.046048
      9 O                    -0.165153
     10 C                     0.215574
     11 C                    -0.074533
     12 C                    -0.082626
     13 C                     0.213125
     14 O                    -0.217406
     15 O                    -0.170543
     16 O                    -0.171826
     17 O                    -0.212872
     18 C                    -0.127648
     19 C                     0.018657
     20 C                    -0.144150
     21 C                    -0.142728
     22 C                     0.021813
     23 O                    -0.197481
     24 H                     0.091893
     25 H                     0.080348
     26 H                     0.102615
     27 H                     0.076783
     28 H                     0.072545
     29 H                     0.074641
     30 H                     0.070641
     31 H                     0.089438
     32 O                    -0.213444
     33 C                    -0.129550
     34 C                     0.024617
     35 C                    -0.145025
     36 C                    -0.142985
     37 C                     0.026484
     38 O                    -0.185987
     39 H                     0.085612
     40 H                     0.084163
     41 H                     0.094187
     42 H                     0.088293
     43 H                     0.078188
     44 H                     0.073290
     45 H                     0.078269
     46 H                     0.073875
     47 H                     0.084310
     48 H                     0.088702
     49 H                     0.091552
     50 H                     0.086922
     51 H                     0.093582
     52 H                     0.084962
     53 H                     0.092830
     54 H                     0.087612
     55 H                     0.085681
     56 H                     0.089562
  ----------------------------------------
  Sum of atomic charges =    -0.000000

                    Cartesian Multipole Moments
 -----------------------------------------------------------------
    Charge (ESU x 10^10)
                 0.0000
    Dipole Moment (Debye)
         X      -1.9852      Y      -1.1250      Z       0.3306
       Tot       2.3056
    Quadrupole Moments (Debye-Ang)
        XX    -154.8022     XY       4.6370     YY    -152.5141
        XZ       6.0261     YZ       2.6840     ZZ    -159.0709

 Total job time:  79.92s(wall), 3811.02s(cpu)
        *  Thank you very much for using Q-Chem.  Have a nice day.  *
