 Q-Chem 5.0, Q-Chem, Inc., Pleasanton, CA (2017)
 Q-Chem 5.0.1 for Intel X86 EM64T Linux

User input:
--------------------------------------------------------------
$molecule
0  1
O -3.94934 -3.66094 2.70899
C -3.26408 -4.56952 2.26188
C -3.36658 -6.02376 2.66595
C -2.31155 -6.5557 3.64972
C -1.37882 -5.53148 4.25724
O -1.50549 -5.53749 5.61715
C -0.25272 -5.66036 6.29886
C -0.48089 -5.76361 7.80332
O -1.79723 -6.2753 8.0647
C -1.97283 -7.59423 7.80255
C -3.37513 -8.07107 8.09721
C -3.51299 -9.58606 8.30711
C -2.22048 -10.34034 8.54626
O -1.91106 -11.40049 8.02195
O -2.25252 -4.26608 1.40717
O -1.40695 -9.86143 9.5296
O -1.08133 -8.30372 7.34954
C -0.21958 -10.44607 9.91737
C -3.93064 -7.57843 9.46277
C -5.45934 -7.59174 9.42725
C -5.72738 -9.08243 9.43309
C -4.30155 -9.61104 9.62774
O -3.6595 -8.61004 10.37552
H -4.04915 -7.64876 7.32186
H -4.05333 -10.09343 7.47768
H -3.5782 -6.56742 9.75959
H -5.80451 -7.16622 10.39725
H -5.93404 -7.02709 8.59614
H -6.37003 -9.32049 10.30947
H -6.18124 -9.4873 8.5025
H -4.31647 -10.62519 10.08559
O -0.50163 -4.93736 3.64525
C -1.96756 -2.99265 0.96113
C -4.6602 -6.32713 3.46386
C -5.06125 -7.78273 3.24786
C -3.9496 -8.48365 3.99242
C -3.24542 -7.27588 4.6289
O -4.26443 -6.33032 4.81293
H -3.41841 -6.60184 1.71528
H -1.64174 -7.29266 3.154
H -1.71619 -2.33379 1.81968
H -5.51532 -5.66385 3.20787
H -6.01579 -7.93444 3.802
H -5.19825 -8.10229 2.19245
H -4.40574 -9.1438 4.76361
H -3.24628 -9.06511 3.3577
H -2.69577 -7.62381 5.4976
H -2.83785 -2.57673 0.40977
H -1.09641 -3.03389 0.27567
H 0.23205 -9.84458 10.73259
H 0.48792 -10.47724 9.06138
H -0.40382 -11.47564 10.29172
H 0.33449 -6.28424 8.35289
H -0.50903 -4.71808 8.17692
H 0.46804 -4.84624 6.0607
H 0.20249 -6.62239 5.97276
$end

$opt
CONSTRAINT
tors           1           2           3           4    -101.389
tors           3           4           5           6    +120.203
tors           4           5           6           7    +128.571
tors           5           6           7           8    -175.827
tors           6           7           8           9     +24.633
tors           7           8           9          10     +72.731
tors           8           9          10          11    -180.000
tors           9          10          11          12    -159.144
tors          11          12          13          14    -135.321
ENDCONSTRAINT
$end

$rem
JOBTYPE                   OPT
METHOD                    B3LYP
DFT_D                     d3_op
BASIS                     STO-3G
GEOM_OPT_MAX_CYCLES       100
GEOM_OPT_TOL_GRADIENT     300
GEOM_OPT_TOL_DISPLACEMENT 1200
GEOM_OPT_TOL_ENERGY       100
SYMMETRY                  False
THRESH                    12
SCF_CONVERGENCE           8
MAX_SUB_FILE_NUM          128
MEM_STATIC                400
MEM_TOTAL                 4000
$end
--------------------------------------------------------------

   15   -1510.1366923484      7.38E-09 Convergence criterion met
 Total energy in the final basis set = -1510.13669235
   14   -1510.2071319520      5.46E-09 Convergence criterion met
 Total energy in the final basis set = -1510.20713195
   14   -1510.2440093829      6.68E-09 Convergence criterion met
 Total energy in the final basis set = -1510.24400938
   14   -1510.2596394063      8.06E-09 Convergence criterion met
 Total energy in the final basis set = -1510.25963941
   14   -1510.2652183954      6.49E-09 Convergence criterion met
 Total energy in the final basis set = -1510.26521840
   12   -1510.2668875838      5.34E-09 Convergence criterion met
 Total energy in the final basis set = -1510.26688758
   12   -1510.2677111185      9.88E-09 Convergence criterion met
 Total energy in the final basis set = -1510.26771112
   12   -1510.2678228682      3.91E-09 Convergence criterion met
   11   -1510.2682294964      9.51E-09 Convergence criterion met
 Total energy in the final basis set = -1510.26822950
   10   -1510.2682384048      9.14E-09 Convergence criterion met
 Total energy in the final basis set = -1510.26823840
   11   -1510.2682433463      3.62E-09 Convergence criterion met
 Total energy in the final basis set = -1510.26824335
   10   -1510.2682467496      6.79E-09 Convergence criterion met
 Total energy in the final basis set = -1510.26824675
   10   -1510.2682485081      5.88E-09 Convergence criterion met
 Total energy in the final basis set = -1510.26824851
    9   -1510.2682502432      9.04E-09 Convergence criterion met
 Total energy in the final basis set = -1510.26825024

             Standard Nuclear Orientation (Angstroms)
    I     Atom           X                Y                Z
 ----------------------------------------------------------------
    1      O      -4.8966178385    -0.8815028201     1.4075018899
    2      C      -4.7937041010    -0.5229682238     0.2146262436
    3      C      -3.7416895238    -1.0051136190    -0.8425485582
    4      C      -2.5510976684     0.0241074055    -1.0804697771
    5      C      -2.6051675073     1.3110926721    -0.1639275257
    6      O      -1.4208971492     1.4267133198     0.6617117891
    7      C      -0.8300914003     2.7769936706     0.5138721663
    8      C       0.5062266043     2.7844358866     1.3539707744
    9      O       1.0808614657     1.4301113127     1.5304816033
   10      C       1.6528481373     0.9545056269     0.3113037409
   11      C       2.2428167409    -0.4777853888     0.5593933942
   12      C       3.3341259006    -0.9049917673    -0.5016026856
   13      C       3.8722102219     0.2686970090    -1.3953462981
   14      O       4.0490925346     0.2439509109    -2.6327670975
   15      O      -5.6845028572     0.3898237899    -0.4342004066
   16      O       4.2988338647     1.3409493916    -0.5445099998
   17      O       1.6084293901     1.5764387559    -0.7742598303
   18      C       4.8010949369     2.4639595176    -1.3653820611
   19      C       3.0337789654    -0.6616659659     1.9257484588
   20      C       3.0268006654    -2.2029654857     2.2647350401
   21      C       4.0214679807    -2.7494809046     1.1740514814
   22      C       4.4859022204    -1.4075205996     0.4759871378
   23      O       4.4465318206    -0.4061558326     1.5659283283
   24      H       1.3903948138    -1.1822094694     0.5343460295
   25      H       2.9721435095    -1.7044484649    -1.1711491057
   26      H       2.7018964957     0.0138832489     2.7374886528
   27      H       3.4121012581    -2.3730997606     3.2827051122
   28      H       2.0199676677    -2.6434377971     2.1874186214
   29      H       4.8816162194    -3.2663372456     1.6284067794
   30      H       3.5337616892    -3.4349292927     0.4624110115
   31      H       5.4929455746    -1.4411449207     0.0167078718
   32      O      -3.5075622872     2.1753001845    -0.1879564832
   33      C      -6.6623766794     0.9260375918     0.5397694001
   34      C      -2.9342904970    -2.2795936329    -0.3472800702
   35      C      -2.2794084927    -2.9650617272    -1.6102695271
   36      C      -1.1317332403    -1.9407570146    -1.9445733730
   37      C      -1.3036341113    -0.8930889868    -0.7759419796
   38      O      -1.7699720689    -1.7089789454     0.3699692518
   39      H      -4.2736388865    -1.2016002536    -1.7907120482
   40      H      -2.5560508216     0.3880304353    -2.1251048668
   41      H      -6.1634990589     1.5481929013     1.3106792961
   42      H      -3.5088736504    -2.9492827998     0.3216488763
   43      H      -1.8723137332    -3.9529366003    -1.3418329149
   44      H      -2.9950278842    -3.0902300426    -2.4383691694
   45      H      -0.1376364490    -2.4130102316    -1.8968243264
   46      H      -1.2521092092    -1.4760080189    -2.9361746309
   47      H      -0.3985395683    -0.3208072034    -0.5075121051
   48      H      -7.2217888758     0.1139017185     1.0475748969
   49      H      -7.3614297725     1.5534544452    -0.0430017965
   50      H       5.1686359064     3.2238408761    -0.6514117797
   51      H       3.9927606095     2.9001118325    -1.9878743303
   52      H       5.6289135063     2.1485155455    -2.0327877728
   53      H       1.2368070778     3.4676281142     0.8700818915
   54      H       0.3054041391     3.1344404467     2.3859073508
   55      H      -1.5129171443     3.5756517165     0.8809285117
   56      H      -0.5981599444     2.9740107042    -0.5554602922
 ----------------------------------------------------------------

    9   -1510.2682510797      5.69E-09 Convergence criterion met
 Total energy in the final basis set = -1510.26825108
 Final energy is   -1510.26825107967
 **  OPTIMIZATION CONVERGED  **

                    Orbital Energies (a.u.)
 --------------------------------------------------------------

 Alpha MOs
 -- Occupied --
-18.943 -18.931 -18.924 -18.919 -18.893 -18.886 -18.886 -18.879
-18.872 -18.864 -10.106 -10.106 -10.096 -10.091 -10.080 -10.076
-10.060 -10.059 -10.058 -10.057 -10.057 -10.057 -10.040 -10.037
-10.037 -10.034 -10.021 -10.020 -10.019 -10.017  -1.021  -1.011
 -1.005  -1.001  -0.969  -0.968  -0.946  -0.936  -0.932  -0.926
 -0.763  -0.762  -0.727  -0.722  -0.715  -0.704  -0.696  -0.659
 -0.654  -0.617  -0.598  -0.581  -0.547  -0.544  -0.538  -0.535
 -0.517  -0.508  -0.486  -0.474  -0.464  -0.461  -0.448  -0.447
 -0.431  -0.431  -0.429  -0.415  -0.409  -0.408  -0.405  -0.403
 -0.392  -0.379  -0.372  -0.366  -0.362  -0.356  -0.354  -0.347
 -0.345  -0.342  -0.335  -0.331  -0.330  -0.328  -0.319  -0.313
 -0.308  -0.306  -0.302  -0.298  -0.297  -0.286  -0.282  -0.278
 -0.274  -0.260  -0.251  -0.245  -0.243  -0.233  -0.232  -0.184
 -0.175  -0.171  -0.166  -0.159  -0.157  -0.149  -0.144  -0.143
 -0.141

          Ground-State Mulliken Net Atomic Charges

     Atom                 Charge (a.u.)
  ----------------------------------------
      1 O                    -0.211787
      2 C                     0.206906
      3 C                    -0.079373
      4 C                    -0.077147
      5 C                     0.213420
      6 O                    -0.181799
      7 C                    -0.049326
      8 C                    -0.044979
      9 O                    -0.162776
     10 C                     0.216258
     11 C                    -0.079526
     12 C                    -0.080005
     13 C                     0.211769
     14 O                    -0.217598
     15 O                    -0.166545
     16 O                    -0.169010
     17 O                    -0.218345
     18 C                    -0.127831
     19 C                     0.025730
     20 C                    -0.143002
     21 C                    -0.144732
     22 C                     0.026038
     23 O                    -0.186534
     24 H                     0.089920
     25 H                     0.083280
     26 H                     0.091309
     27 H                     0.077968
     28 H                     0.076623
     29 H                     0.077721
     30 H                     0.073426
     31 H                     0.082367
     32 O                    -0.194654
     33 C                    -0.127347
     34 C                     0.024284
     35 C                    -0.143787
     36 C                    -0.144890
     37 C                     0.021878
     38 O                    -0.190002
     39 H                     0.085309
     40 H                     0.087030
     41 H                     0.090536
     42 H                     0.087653
     43 H                     0.077103
     44 H                     0.073483
     45 H                     0.075567
     46 H                     0.074528
     47 H                     0.087907
     48 H                     0.088367
     49 H                     0.090532
     50 H                     0.088079
     51 H                     0.088756
     52 H                     0.087954
     53 H                     0.092154
     54 H                     0.092661
     55 H                     0.088095
     56 H                     0.086385
  ----------------------------------------
  Sum of atomic charges =     0.000000

                    Cartesian Multipole Moments
 -----------------------------------------------------------------
    Charge (ESU x 10^10)
                 0.0000
    Dipole Moment (Debye)
         X      -0.4352      Y       0.0106      Z      -0.7526
       Tot       0.8695
    Quadrupole Moments (Debye-Ang)
        XX    -159.6118     XY      -0.0690     YY    -147.1168
        XZ       6.7384     YZ       4.8031     ZZ    -166.3259

 Total job time:  53.58s(wall), 2551.43s(cpu)
        *  Thank you very much for using Q-Chem.  Have a nice day.  *
