 Q-Chem 5.0, Q-Chem, Inc., Pleasanton, CA (2017)
 Q-Chem 5.0.1 for Intel X86 EM64T Linux

User input:
--------------------------------------------------------------
$molecule
0  1
O -5.9378489702 0.4268338936 0.4504725895
C -4.8253348191 0.4267143173 -0.1197849158
C -3.9986396142 -0.8482598146 -0.520662637
C -2.4399508711 -0.6726511163 -0.7631644795
C -1.8668672042 0.7835448534 -0.6365451492
O -1.7675928192 1.1110244187 0.7605951797
C -1.1867219995 2.4602921206 0.9321653008
C 0.3070866481 2.5575718989 0.4049751708
O 0.6925490302 1.1989373321 -0.0433980111
C 1.9904831665 1.2022488244 -0.6486035057
C 2.4489612383 -0.2958539075 -0.7630866463
C 4.0006951724 -0.5373160056 -0.9129279392
C 4.9294882992 0.5711776063 -0.2961163093
O 6.1450641797 0.7362567569 -0.5400944343
O -4.1739415673 1.6102730165 -0.5844132748
O 4.240285436 1.2236502322 0.774713093
O 2.5744842225 2.2262642418 -1.0604100333
C 5.1332263576 2.2011534646 1.4341955553
C 2.0888484489 -1.2465213525 0.4638660442
C 1.8699606614 -2.6892418071 -0.1328478704
C 3.3421388575 -3.0372804442 -0.5720122818
C 4.1496046927 -1.8154889524 0.0290129657
O 3.3569650808 -1.4023797008 1.211965381
H 1.9443306749 -0.6885024317 -1.6671896855
H 4.3078462885 -0.7311513498 -1.9552519467
H 1.2871754184 -0.8574954528 1.1203826865
H 1.5110261951 -3.3771743946 0.6496819089
H 1.1554644965 -2.701066594 -0.971438658
H 3.6878009008 -3.9847701074 -0.129649384
H 3.451657867 -3.0999852546 -1.6668601914
H 5.1937809438 -2.0434399276 0.3193177297
O -1.5100727873 1.531589909 -1.5711385294
C -4.94683908 2.8125068547 -0.2001383754
C -4.0034108761 -1.9026515468 0.6670277347
C -3.6023489907 -3.3175613528 0.0910230697
C -2.0528560848 -3.1332174962 -0.1169128414
C -1.8595878174 -1.6397780783 0.35888563
O -2.8263669074 -1.5046923714 1.4718479681
H -4.4791849927 -1.2714328855 -1.4232879713
H -2.1763408788 -1.0293190289 -1.7746864386
H -5.0077293976 2.9199379954 0.9021986073
H -4.9264855593 -1.8767462782 1.2785996043
H -3.820338849 -4.1083124591 0.8261958581
H -4.1334749344 -3.5498607491 -0.8457485012
H -1.4746282739 -3.8175875947 0.5242189761
H -1.7400258216 -3.2808939774 -1.1628545552
H -0.83949975 -1.3791557678 0.6974168129
H -5.9768482795 2.7819194366 -0.6102192695
H -4.4007080414 3.6730511724 -0.628454969
H 4.5446320703 2.6427026025 2.2591994281
H 5.4483847113 3.0016690434 0.7339854389
H 6.0408213776 1.7127833693 1.8443651859
H 0.3811792089 3.2794588181 -0.4358903824
H 0.9867891757 2.8950068633 1.2169723443
H -1.2223508676 2.6471565958 2.0233248831
H -1.8093040564 3.2212657366 0.4141546331
$end

$rem
JOBTYPE                   OPT
METHOD                    B3LYP
DFT_D                     d3_op
BASIS                     STO-3G
GEOM_OPT_MAX_CYCLES       100
GEOM_OPT_TOL_GRADIENT     300
GEOM_OPT_TOL_DISPLACEMENT 1200
GEOM_OPT_TOL_ENERGY       100
SYMMETRY                  False
THRESH                    12
SCF_CONVERGENCE           8
MAX_SUB_FILE_NUM          128
MEM_STATIC                400
MEM_TOTAL                 4000
$end
--------------------------------------------------------------

   16   -1510.2744596696      4.13E-09 Convergence criterion met
 Total energy in the final basis set = -1510.27445967
   14   -1510.2763023361      2.48E-09 Convergence criterion met
 Total energy in the final basis set = -1510.27630234
   13   -1510.2781533032      5.53E-09 Convergence criterion met
 Total energy in the final basis set = -1510.27815330
   13   -1510.2800078426      3.34E-09 Convergence criterion met
 Total energy in the final basis set = -1510.28000784
   13   -1510.2813947798      3.26E-09 Convergence criterion met
 Total energy in the final basis set = -1510.28139478
   13   -1510.2826137860      5.64E-09 Convergence criterion met
 Total energy in the final basis set = -1510.28261379
   13   -1510.2840021449      3.03E-09 Convergence criterion met
 Total energy in the final basis set = -1510.28400214
   13   -1510.2850763702      4.70E-09 Convergence criterion met
   12   -1510.2967183073      6.10E-09 Convergence criterion met
 Total energy in the final basis set = -1510.29671831
   11   -1510.2967068972      6.81E-09 Convergence criterion met
 Total energy in the final basis set = -1510.29670690
   10   -1510.2967058567      7.39E-09 Convergence criterion met
 Total energy in the final basis set = -1510.29670586
   10   -1510.2967018877      9.63E-09 Convergence criterion met
 Total energy in the final basis set = -1510.29670189
   10   -1510.2966981381      3.11E-09 Convergence criterion met
 Total energy in the final basis set = -1510.29669814
   10   -1510.2966944321      3.30E-09 Convergence criterion met
 Total energy in the final basis set = -1510.29669443

             Standard Nuclear Orientation (Angstroms)
    I     Atom           X                Y                Z
 ----------------------------------------------------------------
    1      O      -2.2564000307     0.5205897157     2.2910086523
    2      C      -3.0393185528     0.5443698939     1.3193729579
    3      C      -3.4270147899    -0.6500238138     0.3746558139
    4      C      -3.2660852158    -0.3323105124    -1.1705044557
    5      C      -2.6154602749     1.0608378669    -1.4592135359
    6      O      -1.4902065243     1.2028666086    -0.5819958388
    7      C      -0.7412853211     2.4436612844    -0.8764532606
    8      C       0.2460873932     2.2046221184    -2.0792449774
    9      O       0.9091978207     0.8814081104    -1.9813898669
   10      C       1.8732117275     0.8795890543    -0.9225249239
   11      C       2.5039587341    -0.5456249964    -0.8273149661
   12      C       3.7713420194    -0.6063029050     0.1235774872
   13      C       4.1191380147     0.7640520642     0.8183722284
   14      O       4.9643626803     1.5994716846     0.4281330908
   15      O      -3.8011481356     1.6923593690     0.9153149639
   16      O       3.3954285145     0.8630262624     2.0515500574
   17      O       2.1372850319     1.8835971528    -0.2227461692
   18      C       3.6488933789     2.1804872765     2.6726177271
   19      C       1.5342192677    -1.5972020987    -0.1187945420
   20      C       2.0731829207    -3.0414424156    -0.4665177590
   21      C       3.3537637678    -3.1227898587     0.4429636524
   22      C       3.3072625529    -1.7148942743     1.1598990751
   23      O       1.8594245157    -1.4496501032     1.3166259754
   24      H       2.7508290015    -0.8756804066    -1.8524963552
   25      H       4.6647692756    -0.9204961703    -0.4447272784
   26      H       0.4396826232    -1.4532059336    -0.2928139596
   27      H       1.3280482295    -3.8021576109    -0.1833896723
   28      H       2.3019122869    -3.1563534948    -1.5380834893
   29      H       3.2749283011    -3.9345681595     1.1833872492
   30      H       4.2803610009    -3.2631606233    -0.1365575265
   31      H       3.8199206127    -1.6669734457     2.1394775328
   32      O      -2.9535901722     1.9027296181    -2.3182704289
   33      C      -3.4370455661     2.8572592458     1.7519137026
   34      C      -2.4348971653    -1.8714324574     0.5498260797
   35      C      -3.1280494093    -3.1617284599    -0.0354658835
   36      C      -3.0504257214    -2.8714233806    -1.5820380815
   37      C      -2.2707628010    -1.4972036680    -1.6022447141
   38      O      -1.3674669331    -1.5937836184    -0.4384464743
   39      H      -4.4684493839    -0.9446298165     0.5999142487
   40      H      -4.2273308985    -0.3868972432    -1.7103400306
   41      H      -2.3528207127     3.0807732971     1.6868166912
   42      H      -2.0036974166    -1.9595045623     1.5661852525
   43      H      -2.5544158108    -4.0629686558     0.2337114168
   44      H      -4.1624619157    -3.2785755496     0.3249919669
   45      H      -2.4755022456    -3.6473306250    -2.1119948749
   46      H      -4.0444432847    -2.7866269938    -2.0491858432
   47      H      -1.6919654845    -1.2919797235    -2.5240034023
   48      H      -3.6977831998     2.6932903763     2.8175904895
   49      H      -4.0168528380     3.7115745081     1.3567850485
   50      H       3.1053327010     2.1751324484     3.6352838530
   51      H       3.2653523237     3.0020134789     2.0333182710
   52      H       4.7301104389     2.3497472226     2.8551041256
   53      H      -0.3187728659     2.1769445480    -3.0321608866
   54      H       0.9922439035     3.0280088192    -2.1115479340
   55      H      -0.1644236324     2.6732897149     0.0410912762
   56      H      -1.4292011690     3.2811996543    -1.1212527089
 ----------------------------------------------------------------

   10   -1510.2966889907      3.78E-09 Convergence criterion met
 Total energy in the final basis set = -1510.29668899
 Final energy is   -1510.29668899067
 **  OPTIMIZATION CONVERGED  **

                    Orbital Energies (a.u.)
 --------------------------------------------------------------

 Alpha MOs
 -- Occupied --
-18.938 -18.935 -18.932 -18.912 -18.905 -18.880 -18.877 -18.876
-18.870 -18.847 -10.104 -10.101 -10.099 -10.080 -10.075 -10.074
-10.071 -10.066 -10.065 -10.046 -10.045 -10.044 -10.041 -10.032
-10.027 -10.027 -10.026 -10.022 -10.008 -10.005  -1.022  -1.012
 -1.006  -0.988  -0.982  -0.953  -0.944  -0.936  -0.935  -0.914
 -0.770  -0.750  -0.732  -0.717  -0.711  -0.704  -0.687  -0.663
 -0.643  -0.620  -0.598  -0.578  -0.553  -0.544  -0.531  -0.525
 -0.516  -0.498  -0.485  -0.470  -0.466  -0.456  -0.445  -0.438
 -0.436  -0.429  -0.422  -0.419  -0.411  -0.406  -0.397  -0.394
 -0.394  -0.376  -0.370  -0.365  -0.363  -0.354  -0.351  -0.347
 -0.343  -0.341  -0.330  -0.328  -0.324  -0.322  -0.316  -0.314
 -0.309  -0.305  -0.298  -0.295  -0.294  -0.289  -0.279  -0.268
 -0.267  -0.257  -0.255  -0.247  -0.236  -0.231  -0.215  -0.188
 -0.177  -0.172  -0.160  -0.157  -0.154  -0.152  -0.150  -0.131
 -0.127

          Ground-State Mulliken Net Atomic Charges

     Atom                 Charge (a.u.)
  ----------------------------------------
      1 O                    -0.208490
      2 C                     0.217193
      3 C                    -0.078099
      4 C                    -0.077834
      5 C                     0.214162
      6 O                    -0.169366
      7 C                    -0.053208
      8 C                    -0.051046
      9 O                    -0.170117
     10 C                     0.215915
     11 C                    -0.080132
     12 C                    -0.081666
     13 C                     0.212610
     14 O                    -0.225416
     15 O                    -0.175796
     16 O                    -0.167625
     17 O                    -0.212615
     18 C                    -0.126865
     19 C                     0.007849
     20 C                    -0.144442
     21 C                    -0.145458
     22 C                     0.026352
     23 O                    -0.189090
     24 H                     0.083095
     25 H                     0.080032
     26 H                     0.113856
     27 H                     0.073266
     28 H                     0.068370
     29 H                     0.074116
     30 H                     0.069983
     31 H                     0.083461
     32 O                    -0.214438
     33 C                    -0.128707
     34 C                     0.027934
     35 C                    -0.143278
     36 C                    -0.143911
     37 C                     0.028711
     38 O                    -0.186104
     39 H                     0.085305
     40 H                     0.087136
     41 H                     0.088787
     42 H                     0.098030
     43 H                     0.079932
     44 H                     0.075380
     45 H                     0.079518
     46 H                     0.075906
     47 H                     0.087022
     48 H                     0.088713
     49 H                     0.090063
     50 H                     0.086563
     51 H                     0.089778
     52 H                     0.084490
     53 H                     0.092927
     54 H                     0.092744
     55 H                     0.100617
     56 H                     0.093886
  ----------------------------------------
  Sum of atomic charges =     0.000000

                    Cartesian Multipole Moments
 -----------------------------------------------------------------
    Charge (ESU x 10^10)
                 0.0000
    Dipole Moment (Debye)
         X      -2.7702      Y      -1.3656      Z      -1.0954
       Tot       3.2770
    Quadrupole Moments (Debye-Ang)
        XX    -159.6870     XY      -2.0814     YY    -148.9414
        XZ      -2.6097     YZ       6.3346     ZZ    -159.8644

 Total job time:  214.44s(wall), 10236.08s(cpu)
        *  Thank you very much for using Q-Chem.  Have a nice day.  *
