 Q-Chem 5.0, Q-Chem, Inc., Pleasanton, CA (2017)
 Q-Chem 5.0.1 for Intel X86 EM64T Linux

User input:
--------------------------------------------------------------
$molecule
0  1
O -3.94934 -3.66094 2.70899
C -3.26408 -4.56952 2.26188
C -3.36658 -6.02376 2.66595
C -2.14702 -6.91783 2.38816
C -0.89652 -6.22032 1.9005
O -0.27618 -5.59599 2.94492
C 0.94388 -4.94816 2.56941
C 1.96338 -5.97994 2.09803
O 1.42201 -7.30277 2.23913
C 2.19544 -8.30441 1.75163
C 1.74544 -9.67134 2.20953
C 2.81814 -10.76717 2.12732
C 4.24377 -10.28438 1.95063
O 5.18553 -10.97363 1.5865
O -2.45324 -4.25834 1.21546
O 4.57467 -9.13528 2.60708
O 2.92201 -8.14062 0.77805
C 5.84776 -8.6104 2.6939
C 1.44594 -9.74057 3.73424
C 0.47515 -10.88694 4.00718
C 1.37442 -12.07901 3.74648
C 2.71685 -11.36511 3.53813
O 2.62498 -10.21402 4.33336
H 0.80944 -9.91339 1.65752
H 2.61491 -11.5084 1.32366
H 1.05982 -8.79882 4.16868
H 0.23989 -10.85121 5.09546
H -0.47504 -10.86994 3.43104
H 1.38934 -12.71375 4.65996
H 1.10629 -12.69056 2.85768
H 3.56689 -12.04595 3.76624
O -0.48559 -6.2857 0.74626
C -2.27807 -2.99023 0.70095
C -3.46918 -6.21105 4.20049
C -4.16758 -7.53499 4.51221
C -3.09435 -8.52337 4.10374
C -1.94978 -7.5604 3.77027
O -2.15679 -6.47011 4.63332
H -4.31603 -6.40073 2.22386
H -2.40243 -7.6641 1.60299
H -1.86874 -2.31489 1.48233
H -3.99514 -5.37761 4.7152
H -4.28837 -7.58207 5.61854
H -5.15877 -7.68451 4.03272
H -2.84054 -9.15283 4.98545
H -3.34729 -9.16837 3.23449
H -0.97584 -8.07237 3.84967
H -3.24463 -2.59138 0.32568
H -1.55891 -3.03721 -0.1423
H 5.81259 -7.66912 3.27974
H 6.23758 -8.38603 1.67817
H 6.52399 -9.32616 3.20821
H 2.1472 -5.78057 1.01785
H 2.93032 -5.86958 2.63814
H 1.34147 -4.46866 3.48893
H 0.78149 -4.13891 1.82174
$end

$opt
CONSTRAINT
tors           1           2           3           4    -159.235
tors           3           4           5           6     +76.595
tors           4           5           6           7    +178.039
tors           5           6           7           8     -64.059
tors           6           7           8           9      -3.109
tors           7           8           9          10    +174.918
tors           8           9          10          11    +166.414
tors           9          10          11          12    -159.144
tors          11          12          13          14    -163.642
ENDCONSTRAINT
$end

$rem
JOBTYPE                   OPT
METHOD                    B3LYP
DFT_D                     d3_op
BASIS                     STO-3G
GEOM_OPT_MAX_CYCLES       100
GEOM_OPT_TOL_GRADIENT     300
GEOM_OPT_TOL_DISPLACEMENT 1200
GEOM_OPT_TOL_ENERGY       100
SYMMETRY                  False
THRESH                    12
SCF_CONVERGENCE           8
MAX_SUB_FILE_NUM          128
MEM_STATIC                400
MEM_TOTAL                 4000
$end
--------------------------------------------------------------

   16   -1510.1406639717      1.36E-09 Convergence criterion met
 Total energy in the final basis set = -1510.14066397
   13   -1510.2118708170      6.73E-09 Convergence criterion met
 Total energy in the final basis set = -1510.21187082
   13   -1510.2498727613      9.58E-09 Convergence criterion met
 Total energy in the final basis set = -1510.24987276
   13   -1510.2662632120      9.54E-09 Convergence criterion met
 Total energy in the final basis set = -1510.26626321
   13   -1510.2711154023      9.02E-09 Convergence criterion met
 Total energy in the final basis set = -1510.27111540
   13   -1510.2727269614      3.47E-09 Convergence criterion met
 Total energy in the final basis set = -1510.27272696
   12   -1510.2734360703      7.92E-09 Convergence criterion met
 Total energy in the final basis set = -1510.27343607
   12   -1510.2737216630      8.45E-09 Convergence criterion met
   11   -1510.2743526536      9.23E-09 Convergence criterion met
 Total energy in the final basis set = -1510.27435265
   11   -1510.2743957004      7.36E-09 Convergence criterion met
 Total energy in the final basis set = -1510.27439570
   11   -1510.2744209170      4.85E-09 Convergence criterion met
 Total energy in the final basis set = -1510.27442092
   10   -1510.2744462079      6.16E-09 Convergence criterion met
 Total energy in the final basis set = -1510.27444621
   10   -1510.2744568241      6.38E-09 Convergence criterion met
 Total energy in the final basis set = -1510.27445682
    9   -1510.2744640055      8.65E-09 Convergence criterion met
 Total energy in the final basis set = -1510.27446401

             Standard Nuclear Orientation (Angstroms)
    I     Atom           X                Y                Z
 ----------------------------------------------------------------
    1      O      -5.9378489702     0.4268338936     0.4504725895
    2      C      -4.8253348191     0.4267143173    -0.1197849158
    3      C      -3.9986396142    -0.8482598146    -0.5206626370
    4      C      -2.4399508711    -0.6726511163    -0.7631644795
    5      C      -1.8668672042     0.7835448534    -0.6365451492
    6      O      -1.7675928192     1.1110244187     0.7605951797
    7      C      -1.1867219995     2.4602921206     0.9321653008
    8      C       0.3070866481     2.5575718989     0.4049751708
    9      O       0.6925490302     1.1989373321    -0.0433980111
   10      C       1.9904831665     1.2022488244    -0.6486035057
   11      C       2.4489612383    -0.2958539075    -0.7630866463
   12      C       4.0006951724    -0.5373160056    -0.9129279392
   13      C       4.9294882992     0.5711776063    -0.2961163093
   14      O       6.1450641797     0.7362567569    -0.5400944343
   15      O      -4.1739415673     1.6102730165    -0.5844132748
   16      O       4.2402854360     1.2236502322     0.7747130930
   17      O       2.5744842225     2.2262642418    -1.0604100333
   18      C       5.1332263576     2.2011534646     1.4341955553
   19      C       2.0888484489    -1.2465213525     0.4638660442
   20      C       1.8699606614    -2.6892418071    -0.1328478704
   21      C       3.3421388575    -3.0372804442    -0.5720122818
   22      C       4.1496046927    -1.8154889524     0.0290129657
   23      O       3.3569650808    -1.4023797008     1.2119653810
   24      H       1.9443306749    -0.6885024317    -1.6671896855
   25      H       4.3078462885    -0.7311513498    -1.9552519467
   26      H       1.2871754184    -0.8574954528     1.1203826865
   27      H       1.5110261951    -3.3771743946     0.6496819089
   28      H       1.1554644965    -2.7010665940    -0.9714386580
   29      H       3.6878009008    -3.9847701074    -0.1296493840
   30      H       3.4516578670    -3.0999852546    -1.6668601914
   31      H       5.1937809438    -2.0434399276     0.3193177297
   32      O      -1.5100727873     1.5315899090    -1.5711385294
   33      C      -4.9468390800     2.8125068547    -0.2001383754
   34      C      -4.0034108761    -1.9026515468     0.6670277347
   35      C      -3.6023489907    -3.3175613528     0.0910230697
   36      C      -2.0528560848    -3.1332174962    -0.1169128414
   37      C      -1.8595878174    -1.6397780783     0.3588856300
   38      O      -2.8263669074    -1.5046923714     1.4718479681
   39      H      -4.4791849927    -1.2714328855    -1.4232879713
   40      H      -2.1763408788    -1.0293190289    -1.7746864386
   41      H      -5.0077293976     2.9199379954     0.9021986073
   42      H      -4.9264855593    -1.8767462782     1.2785996043
   43      H      -3.8203388490    -4.1083124591     0.8261958581
   44      H      -4.1334749344    -3.5498607491    -0.8457485012
   45      H      -1.4746282739    -3.8175875947     0.5242189761
   46      H      -1.7400258216    -3.2808939774    -1.1628545552
   47      H      -0.8394997500    -1.3791557678     0.6974168129
   48      H      -5.9768482795     2.7819194366    -0.6102192695
   49      H      -4.4007080414     3.6730511724    -0.6284549690
   50      H       4.5446320703     2.6427026025     2.2591994281
   51      H       5.4483847113     3.0016690434     0.7339854389
   52      H       6.0408213776     1.7127833693     1.8443651859
   53      H       0.3811792089     3.2794588181    -0.4358903824
   54      H       0.9867891757     2.8950068633     1.2169723443
   55      H      -1.2223508676     2.6471565958     2.0233248831
   56      H      -1.8093040564     3.2212657366     0.4141546331
 ----------------------------------------------------------------

    9   -1510.2744649377      2.89E-09 Convergence criterion met
 Total energy in the final basis set = -1510.27446494
 Final energy is   -1510.27446493773
 **  OPTIMIZATION CONVERGED  **

                    Orbital Energies (a.u.)
 --------------------------------------------------------------

 Alpha MOs
 -- Occupied --
-18.944 -18.930 -18.929 -18.926 -18.888 -18.887 -18.878 -18.874
-18.866 -18.863 -10.104 -10.101 -10.096 -10.094 -10.073 -10.071
-10.070 -10.061 -10.059 -10.059 -10.059 -10.058 -10.040 -10.037
-10.035 -10.035 -10.022 -10.021 -10.021 -10.020  -1.019  -1.014
 -1.005  -0.997  -0.971  -0.970  -0.941  -0.936  -0.929  -0.927
 -0.764  -0.762  -0.727  -0.723  -0.715  -0.704  -0.693  -0.667
 -0.657  -0.616  -0.600  -0.579  -0.547  -0.543  -0.539  -0.536
 -0.518  -0.506  -0.484  -0.478  -0.470  -0.463  -0.448  -0.437
 -0.436  -0.434  -0.430  -0.417  -0.411  -0.410  -0.407  -0.403
 -0.388  -0.382  -0.375  -0.367  -0.359  -0.355  -0.353  -0.349
 -0.338  -0.336  -0.335  -0.333  -0.327  -0.325  -0.317  -0.314
 -0.312  -0.307  -0.303  -0.299  -0.296  -0.291  -0.289  -0.279
 -0.271  -0.258  -0.247  -0.246  -0.239  -0.234  -0.234  -0.184
 -0.179  -0.169  -0.164  -0.158  -0.154  -0.146  -0.145  -0.142
 -0.141

          Ground-State Mulliken Net Atomic Charges

     Atom                 Charge (a.u.)
  ----------------------------------------
      1 O                    -0.213488
      2 C                     0.213108
      3 C                    -0.077925
      4 C                    -0.080417
      5 C                     0.223935
      6 O                    -0.167924
      7 C                    -0.046725
      8 C                    -0.047556
      9 O                    -0.177886
     10 C                     0.219906
     11 C                    -0.079423
     12 C                    -0.077240
     13 C                     0.213055
     14 O                    -0.217112
     15 O                    -0.166839
     16 O                    -0.166666
     17 O                    -0.210406
     18 C                    -0.126177
     19 C                     0.024620
     20 C                    -0.142519
     21 C                    -0.145151
     22 C                     0.024243
     23 O                    -0.188758
     24 H                     0.083025
     25 H                     0.086371
     26 H                     0.089746
     27 H                     0.077293
     28 H                     0.072314
     29 H                     0.078470
     30 H                     0.074056
     31 H                     0.083810
     32 O                    -0.219337
     33 C                    -0.126601
     34 C                     0.024478
     35 C                    -0.144155
     36 C                    -0.144428
     37 C                     0.025887
     38 O                    -0.187609
     39 H                     0.085288
     40 H                     0.081927
     41 H                     0.090837
     42 H                     0.088984
     43 H                     0.078286
     44 H                     0.073114
     45 H                     0.077061
     46 H                     0.071595
     47 H                     0.086258
     48 H                     0.092388
     49 H                     0.092350
     50 H                     0.088665
     51 H                     0.090343
     52 H                     0.089226
     53 H                     0.095141
     54 H                     0.083679
     55 H                     0.088984
     56 H                     0.085901
  ----------------------------------------
  Sum of atomic charges =     0.000000

                    Cartesian Multipole Moments
 -----------------------------------------------------------------
    Charge (ESU x 10^10)
                 0.0000
    Dipole Moment (Debye)
         X      -1.4296      Y      -0.8008      Z      -0.3516
       Tot       1.6759
    Quadrupole Moments (Debye-Ang)
        XX    -173.6339     XY      -5.7926     YY    -145.3763
        XZ       8.1672     YZ      11.6970     ZZ    -163.1255

 Total job time:  51.79s(wall), 2464.71s(cpu)
        *  Thank you very much for using Q-Chem.  Have a nice day.  *
