 Q-Chem 5.0, Q-Chem, Inc., Pleasanton, CA (2017)
 Q-Chem 5.0.1 for Intel X86 EM64T Linux

User input:
--------------------------------------------------------------
$molecule
0  1
O 2.1220686592 0.0127584325 1.807470364
C 2.8380141945 -0.747192425 1.1203807545
C 4.3537210956 -0.5298183601 0.7391557363
C 4.6791167557 -0.4227397726 -0.8140178808
C 3.4270207006 -0.4528563056 -1.7549161961
O 2.3346490107 0.0899667103 -1.0194483691
C 1.0820035832 0.1702722936 -1.7973394608
C 0.0616053156 0.8863786305 -0.8445278424
O -1.0656138014 -0.0576154591 -0.6426744997
C -1.8747282758 0.3722626618 0.4647711206
C -3.0647144768 -0.639745033 0.6537219668
C -4.471972516 0.032756746 0.8967302435
C -4.5706788657 1.4513991683 0.2225025971
O -3.6558777991 2.1079936701 -0.3198950647
O 2.4207384788 -2.0388037355 0.6472761383
O -5.9224796067 1.905687874 0.3344511387
O -1.5543870021 1.2979077619 1.2397167354
C -6.0646755748 3.2352259403 -0.3026158742
C -3.3956694456 -1.6417839822 -0.5363973613
C -3.9905182003 -2.9457101406 0.122998496
C -5.3758796698 -2.4010730402 0.6384438691
C -5.3848541815 -0.9407565473 0.0337078824
O -4.5789474812 -1.0538726839 -1.2080238324
H -2.7983888516 -1.2267430543 1.5534770432
H -4.7574603072 0.0883638818 1.9622342965
H -2.5687454816 -1.791805568 -1.2564638262
H -4.1269700796 -3.7316072903 -0.6371312347
H -3.35477393 -3.3388950508 0.932101689
H -6.2183780563 -2.9887253701 0.2411156866
H -5.4427234334 -2.389412636 1.7384285233
H -6.3873043627 -0.5262989968 -0.1885096143
O 3.3617008414 -0.8337759271 -2.9430757711
C 0.9850103896 -2.2455104486 0.9519921053
C 4.8539718436 0.8825284896 1.254875472
C 6.4297458357 0.8607115949 1.3224572831
C 6.7964378963 0.920503039 -0.2078801751
C 5.3609283593 1.0168096145 -0.863592642
O 4.5724662707 1.7913460446 0.1179697275
H 4.937694903 -1.3537545049 1.1887658452
H 5.3764181265 -1.2129527991 -1.1435846651
H 0.3315463393 -1.5592155432 0.3700998642
H 4.3292954708 1.2329661348 2.1647879385
H 6.8050000188 1.7454955032 1.8609528319
H 6.8141911833 -0.0447315748 1.8186925542
H 7.3903867018 1.8166357424 -0.4484034993
H 7.346410912 0.0293689884 -0.5501204218
H 5.3315547628 1.50148319 -1.8590866911
H 0.7713617318 -2.1011240587 2.0306149119
H 0.7612907195 -3.2902693839 0.6679264518
H -7.1189508593 3.5329468743 -0.1540771273
H -5.840412723 3.1926136798 -1.3881388864
H -5.3958474017 3.9856775483 0.1659493221
H 0.5597148679 1.1171910034 0.1238626782
H -0.3099110449 1.8359683143 -1.2853934186
H 0.7096736517 -0.8438102719 -2.0647774714
H 1.2413494131 0.7406806114 -2.7378385531
$end

$rem
JOBTYPE                   OPT
METHOD                    B3LYP
DFT_D                     d3_op
BASIS                     STO-3G
GEOM_OPT_MAX_CYCLES       100
GEOM_OPT_TOL_GRADIENT     300
GEOM_OPT_TOL_DISPLACEMENT 1200
GEOM_OPT_TOL_ENERGY       100
SYMMETRY                  False
THRESH                    12
SCF_CONVERGENCE           8
MAX_SUB_FILE_NUM          128
MEM_STATIC                400
MEM_TOTAL                 4000
$end
--------------------------------------------------------------

   16   -1510.2799938081      4.74E-09 Convergence criterion met
 Total energy in the final basis set = -1510.27999381
   14   -1510.2833253244      2.62E-09 Convergence criterion met
 Total energy in the final basis set = -1510.28332532
   14   -1510.2850068074      2.25E-09 Convergence criterion met
 Total energy in the final basis set = -1510.28500681
   13   -1510.2841665654      9.67E-09 Convergence criterion met
 Total energy in the final basis set = -1510.28416657
   14   -1510.2869553423      3.67E-09 Convergence criterion met
 Total energy in the final basis set = -1510.28695534
   13   -1510.2873309527      5.72E-09 Convergence criterion met
 Total energy in the final basis set = -1510.28733095
   13   -1510.2877731598      8.69E-09 Convergence criterion met
 Total energy in the final basis set = -1510.28777316
   13   -1510.2890574647      4.27E-09 Convergence criterion met
   11   -1510.3049482921      7.33E-09 Convergence criterion met
 Total energy in the final basis set = -1510.30494829
   10   -1510.3049522129      8.33E-09 Convergence criterion met
 Total energy in the final basis set = -1510.30495221
   10   -1510.3049484369      8.68E-09 Convergence criterion met
 Total energy in the final basis set = -1510.30494844
    9   -1510.3049493224      1.89E-09 Convergence criterion met
 Total energy in the final basis set = -1510.30494932
    9   -1510.3049494742      2.38E-09 Convergence criterion met
 Total energy in the final basis set = -1510.30494947
    8   -1510.3049491230      7.89E-09 Convergence criterion met
 Total energy in the final basis set = -1510.30494912

             Standard Nuclear Orientation (Angstroms)
    I     Atom           X                Y                Z
 ----------------------------------------------------------------
    1      O       0.5600598596    -1.7492388283     1.1447864863
    2      C       1.6137601396    -1.4309841000     0.5443425126
    3      C       2.5912806985    -0.2865858131     0.9804157831
    4      C       3.4511177311     0.3880285932    -0.1690733432
    5      C       3.0678529123    -0.0599704778    -1.6236561040
    6      O       1.6945495864     0.2834615357    -1.8639437151
    7      C       1.2823258840    -0.1748762031    -3.2108310274
    8      C      -0.2811687909    -0.1185135237    -3.2368371508
    9      O      -0.8503295559    -0.9586565806    -2.1542222158
   10      C      -1.3873657935    -0.1215678044    -1.1069753585
   11      C      -1.9584330641    -1.0395324273     0.0171080661
   12      C      -2.6691220271    -0.2351378068     1.1801914101
   13      C      -2.4904199347     1.3229607279     1.0985464396
   14      O      -3.3251972640     2.1779435361     0.7338032648
   15      O       2.1162244312    -2.1095747615    -0.6020123151
   16      O      -1.1916631309     1.6170846555     1.6316598070
   17      O      -1.3864690857     1.1268667302    -1.1604843170
   18      C      -0.8469127359     3.0457508874     1.4378076527
   19      C      -3.1687254249    -1.9081006148    -0.5244374741
   20      C      -3.5256520764    -3.0082460805     0.5525271655
   21      C      -4.3047672244    -2.1525111198     1.6197954842
   22      C      -4.1728774083    -0.7070945901     0.9990468393
   23      O      -4.3026943607    -0.9570773678    -0.4567927573
   24      H      -1.1121805849    -1.6413534370     0.4159641651
   25      H      -2.2609114690    -0.5612323444     2.1535121767
   26      H      -3.0316505558    -2.2825852364    -1.5575382289
   27      H      -4.1655158753    -3.7896593211     0.1128430564
   28      H      -2.6214122751    -3.4820723229     0.9669559181
   29      H      -5.3640050064    -2.4504186574     1.6768482977
   30      H      -3.8629847412    -2.2200311807     2.6266534191
   31      H      -4.9275373869     0.0325257022     1.3300207063
   32      O       3.8267219965    -0.5595232033    -2.4817198565
   33      C       1.0808780165    -3.0160106693    -1.1641225355
   34      C       1.7913908972     0.9651725606     1.5497453026
   35      C       2.7695084607     1.7738930542     2.4838152265
   36      C       3.7446409595     2.4055582624     1.4193916772
   37      C       3.0880242122     1.9176949734     0.0656992149
   38      O       1.6431697526     1.8563160606     0.3751241458
   39      H       3.2590463256    -0.7027293822     1.7580063214
   40      H       4.5288601677     0.1907372236    -0.0339268609
   41      H       0.2413093660    -2.4070342555    -1.5808644073
   42      H       0.7856061563     0.7322815728     1.9584592567
   43      H       2.2178427372     2.5516954614     3.0358318086
   44      H       3.2886655065     1.1262855112     3.2078547205
   45      H       3.7466531038     3.5057907175     1.4725465646
   46      H       4.7802578825     2.0450038434     1.5271064921
   47      H       3.2710165614     2.5707534184    -0.8095827759
   48      H       0.6988805047    -3.7171784520    -0.3958616412
   49      H       1.5831886747    -3.5816805471    -1.9694099961
   50      H       0.1395214525     3.0628783814     0.9251713252
   51      H      -0.7729273694     3.5427525871     2.4258794624
   52      H      -1.6274389994     3.5440418699     0.8307441226
   53      H      -0.6250785706     0.9264081439    -3.0778769672
   54      H      -0.6588490874    -0.5082820083    -4.2047920152
   55      H       1.6503845280    -1.2043560323    -3.4062551826
   56      H       1.6906500492     0.4916146151    -4.0034664008
 ----------------------------------------------------------------

    9   -1510.3049485473      2.18E-09 Convergence criterion met
 Total energy in the final basis set = -1510.30494855
 Final energy is   -1510.30494854733
 **  OPTIMIZATION CONVERGED  **

                    Orbital Energies (a.u.)
 --------------------------------------------------------------

 Alpha MOs
 -- Occupied --
-18.948 -18.941 -18.928 -18.909 -18.894 -18.890 -18.887 -18.879
-18.869 -18.854 -10.112 -10.104 -10.099 -10.083 -10.075 -10.074
-10.064 -10.057 -10.056 -10.054 -10.050 -10.043 -10.040 -10.031
-10.024 -10.023 -10.023 -10.021 -10.015 -10.013  -1.025  -1.018
 -1.006  -0.989  -0.974  -0.963  -0.947  -0.945  -0.932  -0.916
 -0.767  -0.755  -0.730  -0.721  -0.711  -0.705  -0.693  -0.664
 -0.642  -0.616  -0.598  -0.574  -0.547  -0.541  -0.538  -0.530
 -0.517  -0.506  -0.492  -0.479  -0.470  -0.452  -0.448  -0.443
 -0.435  -0.426  -0.420  -0.416  -0.412  -0.409  -0.406  -0.395
 -0.390  -0.383  -0.373  -0.369  -0.360  -0.354  -0.351  -0.347
 -0.340  -0.340  -0.334  -0.329  -0.327  -0.323  -0.318  -0.314
 -0.310  -0.307  -0.306  -0.297  -0.294  -0.285  -0.280  -0.270
 -0.266  -0.256  -0.250  -0.250  -0.239  -0.228  -0.227  -0.190
 -0.176  -0.174  -0.166  -0.161  -0.156  -0.149  -0.145  -0.138
 -0.137

          Ground-State Mulliken Net Atomic Charges

     Atom                 Charge (a.u.)
  ----------------------------------------
      1 O                    -0.218088
      2 C                     0.220323
      3 C                    -0.079204
      4 C                    -0.078594
      5 C                     0.215787
      6 O                    -0.175029
      7 C                    -0.048266
      8 C                    -0.054041
      9 O                    -0.177837
     10 C                     0.219782
     11 C                    -0.091909
     12 C                    -0.081750
     13 C                     0.217170
     14 O                    -0.218472
     15 O                    -0.166324
     16 O                    -0.181319
     17 O                    -0.196625
     18 C                    -0.143871
     19 C                     0.022723
     20 C                    -0.144168
     21 C                    -0.143056
     22 C                     0.023972
     23 O                    -0.191612
     24 H                     0.110999
     25 H                     0.084810
     26 H                     0.082307
     27 H                     0.075714
     28 H                     0.074531
     29 H                     0.076259
     30 H                     0.073338
     31 H                     0.087197
     32 O                    -0.217746
     33 C                    -0.144576
     34 C                     0.020799
     35 C                    -0.143764
     36 C                    -0.145058
     37 C                     0.026570
     38 O                    -0.184995
     39 H                     0.086265
     40 H                     0.085439
     41 H                     0.108763
     42 H                     0.105757
     43 H                     0.078660
     44 H                     0.073593
     45 H                     0.078197
     46 H                     0.074200
     47 H                     0.083698
     48 H                     0.086560
     49 H                     0.087839
     50 H                     0.103580
     51 H                     0.072092
     52 H                     0.096621
     53 H                     0.108255
     54 H                     0.087858
     55 H                     0.090559
     56 H                     0.086088
  ----------------------------------------
  Sum of atomic charges =    -0.000000

                    Cartesian Multipole Moments
 -----------------------------------------------------------------
    Charge (ESU x 10^10)
                 0.0000
    Dipole Moment (Debye)
         X       2.5810      Y      -1.6431      Z       0.7644
       Tot       3.1537
    Quadrupole Moments (Debye-Ang)
        XX    -169.0887     XY      12.0349     YY    -156.0688
        XZ       3.9233     YZ       1.5220     ZZ    -151.1476

 Total job time:  244.48s(wall), 11669.27s(cpu)
        *  Thank you very much for using Q-Chem.  Have a nice day.  *
