 Q-Chem 5.0, Q-Chem, Inc., Pleasanton, CA (2017)
 Q-Chem 5.0.1 for Intel X86 EM64T Linux

User input:
--------------------------------------------------------------
$molecule
0  1
O -3.94934 -3.66094 2.70899
C -3.26408 -4.56952 2.26188
C -3.36658 -6.02376 2.66595
C -2.11997 -6.66796 3.29431
C -0.96852 -5.73977 3.61169
O -1.44209 -4.48587 3.87417
C -0.4116 -3.55741 4.22817
C -1.02316 -2.21226 4.60592
O -0.52868 -1.18668 3.73039
C -1.21147 -0.01533 3.7603
C -0.64009 1.02282 2.82413
C -0.51167 2.43195 3.42092
C -0.62639 2.52371 4.92927
O -0.94731 1.60783 5.67274
O -2.37286 -4.29068 1.27299
O -0.39609 3.74964 5.46998
O -2.34707 0.08262 4.2143
C -0.46751 4.03094 6.81822
C 0.81526 0.79017 2.34936
C 1.05619 1.53699 1.03742
C 1.0749 2.96968 1.52481
C 0.94569 2.74761 3.03465
O 1.59884 1.52137 3.25851
H -1.31078 1.02618 1.93532
H -1.24335 3.15281 2.99399
H 1.0913 -0.27689 2.21185
H 2.08019 1.26934 0.69029
H 0.32786 1.31966 0.22673
H 2.06658 3.41087 1.27931
H 0.26157 3.61753 1.13183
H 1.35614 3.62266 3.58488
O 0.20584 -6.01162 3.39369
C -2.15615 -3.03099 0.75453
C -4.3962 -6.24062 3.79339
C -4.84611 -7.70235 3.82612
C -3.62116 -8.35868 4.4236
C -2.72571 -7.13598 4.63384
O -3.63481 -6.11548 4.96649
H -3.69148 -6.57081 1.75307
H -1.71951 -7.5406 2.73149
H -1.80526 -2.34312 1.55223
H -5.28495 -5.57756 3.7108
H -5.68482 -7.79388 4.55268
H -5.16543 -8.09903 2.83833
H -3.89769 -8.78148 5.41553
H -3.14767 -9.14599 3.79821
H -1.94761 -7.36096 5.39719
H -3.0917 -2.63596 0.30427
H -1.37714 -3.09058 -0.03274
H -0.23325 5.10321 6.97899
H 0.2701 3.41578 7.37671
H -1.49146 3.82733 7.19826
H -2.12867 -2.30955 4.50586
H -0.80158 -1.95004 5.66423
H 0.29834 -3.43094 3.37875
H 0.1588 -3.93704 5.10681
$end

$opt
CONSTRAINT
tors           1           2           3           4    -119.016
tors           3           4           5           6     +28.660
tors           4           5           6           7    +178.039
tors           5           6           7           8    -175.827
tors           6           7           8           9    -120.112
tors           7           8           9          10    +165.729
tors           8           9          10          11    +179.743
tors           9          10          11          12    -135.413
tors          11          12          13          14      -8.142
ENDCONSTRAINT
$end

$rem
JOBTYPE                   OPT
METHOD                    B3LYP
DFT_D                     d3_op
BASIS                     STO-3G
GEOM_OPT_MAX_CYCLES       100
GEOM_OPT_TOL_GRADIENT     300
GEOM_OPT_TOL_DISPLACEMENT 1200
GEOM_OPT_TOL_ENERGY       100
SYMMETRY                  False
THRESH                    12
SCF_CONVERGENCE           8
MAX_SUB_FILE_NUM          128
MEM_STATIC                400
MEM_TOTAL                 4000
$end
--------------------------------------------------------------

   15   -1510.1509067975      6.51E-09 Convergence criterion met
 Total energy in the final basis set = -1510.15090680
   13   -1510.2203581613      9.40E-09 Convergence criterion met
 Total energy in the final basis set = -1510.22035816
   14   -1510.2572133539      7.80E-09 Convergence criterion met
 Total energy in the final basis set = -1510.25721335
   13   -1510.2725734492      7.76E-09 Convergence criterion met
 Total energy in the final basis set = -1510.27257345
    2   -1510.2725734492      5.22E-09 Convergence criterion met
 Total energy in the final basis set = -1510.27257345
   14   -1510.2764740184      4.08E-09 Convergence criterion met
 Total energy in the final basis set = -1510.27647402
   13   -1510.2773351830      6.63E-09 Convergence criterion met
 Total energy in the final basis set = -1510.27733518
   13   -1510.2789078074      4.91E-09 Convergence criterion met
   10   -1510.2799715083      9.00E-09 Convergence criterion met
 Total energy in the final basis set = -1510.27997151
   11   -1510.2799751161      2.56E-09 Convergence criterion met
 Total energy in the final basis set = -1510.27997512
    9   -1510.2799779409      9.35E-09 Convergence criterion met
 Total energy in the final basis set = -1510.27997794
    9   -1510.2799812736      4.43E-09 Convergence criterion met
 Total energy in the final basis set = -1510.27998127
    9   -1510.2799842200      4.22E-09 Convergence criterion met
 Total energy in the final basis set = -1510.27998422
    9   -1510.2799854514      3.57E-09 Convergence criterion met
 Total energy in the final basis set = -1510.27998545

             Standard Nuclear Orientation (Angstroms)
    I     Atom           X                Y                Z
 ----------------------------------------------------------------
    1      O       2.1220686592     0.0127584325     1.8074703640
    2      C       2.8380141945    -0.7471924250     1.1203807545
    3      C       4.3537210956    -0.5298183601     0.7391557363
    4      C       4.6791167557    -0.4227397726    -0.8140178808
    5      C       3.4270207006    -0.4528563056    -1.7549161961
    6      O       2.3346490107     0.0899667103    -1.0194483691
    7      C       1.0820035832     0.1702722936    -1.7973394608
    8      C       0.0616053156     0.8863786305    -0.8445278424
    9      O      -1.0656138014    -0.0576154591    -0.6426744997
   10      C      -1.8747282758     0.3722626618     0.4647711206
   11      C      -3.0647144768    -0.6397450330     0.6537219668
   12      C      -4.4719725160     0.0327567460     0.8967302435
   13      C      -4.5706788657     1.4513991683     0.2225025971
   14      O      -3.6558777991     2.1079936701    -0.3198950647
   15      O       2.4207384788    -2.0388037355     0.6472761383
   16      O      -5.9224796067     1.9056878740     0.3344511387
   17      O      -1.5543870021     1.2979077619     1.2397167354
   18      C      -6.0646755748     3.2352259403    -0.3026158742
   19      C      -3.3956694456    -1.6417839822    -0.5363973613
   20      C      -3.9905182003    -2.9457101406     0.1229984960
   21      C      -5.3758796698    -2.4010730402     0.6384438691
   22      C      -5.3848541815    -0.9407565473     0.0337078824
   23      O      -4.5789474812    -1.0538726839    -1.2080238324
   24      H      -2.7983888516    -1.2267430543     1.5534770432
   25      H      -4.7574603072     0.0883638818     1.9622342965
   26      H      -2.5687454816    -1.7918055680    -1.2564638262
   27      H      -4.1269700796    -3.7316072903    -0.6371312347
   28      H      -3.3547739300    -3.3388950508     0.9321016890
   29      H      -6.2183780563    -2.9887253701     0.2411156866
   30      H      -5.4427234334    -2.3894126360     1.7384285233
   31      H      -6.3873043627    -0.5262989968    -0.1885096143
   32      O       3.3617008414    -0.8337759271    -2.9430757711
   33      C       0.9850103896    -2.2455104486     0.9519921053
   34      C       4.8539718436     0.8825284896     1.2548754720
   35      C       6.4297458357     0.8607115949     1.3224572831
   36      C       6.7964378963     0.9205030390    -0.2078801751
   37      C       5.3609283593     1.0168096145    -0.8635926420
   38      O       4.5724662707     1.7913460446     0.1179697275
   39      H       4.9376949030    -1.3537545049     1.1887658452
   40      H       5.3764181265    -1.2129527991    -1.1435846651
   41      H       0.3315463393    -1.5592155432     0.3700998642
   42      H       4.3292954708     1.2329661348     2.1647879385
   43      H       6.8050000188     1.7454955032     1.8609528319
   44      H       6.8141911833    -0.0447315748     1.8186925542
   45      H       7.3903867018     1.8166357424    -0.4484034993
   46      H       7.3464109120     0.0293689884    -0.5501204218
   47      H       5.3315547628     1.5014831900    -1.8590866911
   48      H       0.7713617318    -2.1011240587     2.0306149119
   49      H       0.7612907195    -3.2902693839     0.6679264518
   50      H      -7.1189508593     3.5329468743    -0.1540771273
   51      H      -5.8404127230     3.1926136798    -1.3881388864
   52      H      -5.3958474017     3.9856775483     0.1659493221
   53      H       0.5597148679     1.1171910034     0.1238626782
   54      H      -0.3099110449     1.8359683143    -1.2853934186
   55      H       0.7096736517    -0.8438102719    -2.0647774714
   56      H       1.2413494131     0.7406806114    -2.7378385531
 ----------------------------------------------------------------

    9   -1510.2799859066      2.78E-09 Convergence criterion met
 Total energy in the final basis set = -1510.27998591
 Final energy is   -1510.27998590660
 **  OPTIMIZATION CONVERGED  **

                    Orbital Energies (a.u.)
 --------------------------------------------------------------

 Alpha MOs
 -- Occupied --
-18.940 -18.936 -18.928 -18.921 -18.886 -18.886 -18.880 -18.877
-18.868 -18.860 -10.103 -10.101 -10.096 -10.094 -10.078 -10.068
-10.065 -10.060 -10.060 -10.058 -10.054 -10.054 -10.040 -10.038
-10.035 -10.033 -10.022 -10.020 -10.020 -10.018  -1.019  -1.014
 -1.005  -0.998  -0.970  -0.969  -0.942  -0.939  -0.929  -0.925
 -0.764  -0.761  -0.728  -0.723  -0.712  -0.704  -0.695  -0.663
 -0.656  -0.612  -0.596  -0.579  -0.545  -0.543  -0.538  -0.536
 -0.518  -0.511  -0.487  -0.479  -0.466  -0.459  -0.451  -0.441
 -0.435  -0.431  -0.424  -0.413  -0.409  -0.407  -0.403  -0.399
 -0.397  -0.378  -0.373  -0.367  -0.361  -0.357  -0.353  -0.346
 -0.340  -0.339  -0.334  -0.331  -0.329  -0.324  -0.317  -0.312
 -0.308  -0.305  -0.302  -0.299  -0.298  -0.293  -0.282  -0.275
 -0.270  -0.258  -0.248  -0.246  -0.242  -0.234  -0.233  -0.181
 -0.180  -0.174  -0.165  -0.156  -0.154  -0.148  -0.144  -0.142
 -0.141

          Ground-State Mulliken Net Atomic Charges

     Atom                 Charge (a.u.)
  ----------------------------------------
      1 O                    -0.222413
      2 C                     0.220123
      3 C                    -0.079242
      4 C                    -0.078533
      5 C                     0.214251
      6 O                    -0.169473
      7 C                    -0.043997
      8 C                    -0.050871
      9 O                    -0.178871
     10 C                     0.216050
     11 C                    -0.081695
     12 C                    -0.075957
     13 C                     0.215643
     14 O                    -0.207443
     15 O                    -0.177949
     16 O                    -0.171390
     17 O                    -0.209055
     18 C                    -0.128112
     19 C                     0.022082
     20 C                    -0.142163
     21 C                    -0.145473
     22 C                     0.023338
     23 O                    -0.193303
     24 H                     0.082309
     25 H                     0.088624
     26 H                     0.091123
     27 H                     0.077612
     28 H                     0.072471
     29 H                     0.078401
     30 H                     0.073921
     31 H                     0.087428
     32 O                    -0.211945
     33 C                    -0.134361
     34 C                     0.024274
     35 C                    -0.143907
     36 C                    -0.143801
     37 C                     0.025188
     38 O                    -0.188487
     39 H                     0.082457
     40 H                     0.085713
     41 H                     0.088137
     42 H                     0.091346
     43 H                     0.078016
     44 H                     0.073062
     45 H                     0.078094
     46 H                     0.073749
     47 H                     0.082367
     48 H                     0.086098
     49 H                     0.084851
     50 H                     0.090732
     51 H                     0.090195
     52 H                     0.091356
     53 H                     0.111503
     54 H                     0.091642
     55 H                     0.094223
     56 H                     0.092061
  ----------------------------------------
  Sum of atomic charges =     0.000000

                    Cartesian Multipole Moments
 -----------------------------------------------------------------
    Charge (ESU x 10^10)
                 0.0000
    Dipole Moment (Debye)
         X      -0.5617      Y      -1.6296      Z       0.8202
       Tot       1.9089
    Quadrupole Moments (Debye-Ang)
        XX    -134.7451     XY      -1.6259     YY    -156.9222
        XZ      -0.4702     YZ      -8.4101     ZZ    -165.1227

 Total job time:  59.05s(wall), 2805.99s(cpu)
        *  Thank you very much for using Q-Chem.  Have a nice day.  *
