 Q-Chem 5.0, Q-Chem, Inc., Pleasanton, CA (2017)
 Q-Chem 5.0.1 for Intel X86 EM64T Linux

User input:
--------------------------------------------------------------
$molecule
0  1
O -3.94934 -3.66094 2.70899
C -3.26408 -4.56952 2.26188
C -3.36658 -6.02376 2.66595
C -2.26462 -6.9716 2.16482
C -1.08839 -6.32789 1.46466
O -0.53416 -5.37419 2.27009
C 0.76039 -4.94923 1.83101
C 1.35758 -3.96459 2.831
O 0.40901 -2.92588 3.12115
C 0.81367 -2.00378 4.02951
C -0.22585 -0.94001 4.29113
C 0.21517 0.49231 3.9561
C 1.4563 0.61731 3.09548
O 2.5664 0.19638 3.38712
O -2.63349 -4.30609 1.08334
O 1.31332 1.21245 1.87884
O 1.87212 -2.06733 4.64308
C 2.33193 1.38112 0.96411
C -1.54572 -1.01714 3.49343
C -2.66228 -0.32423 4.27224
C -2.23815 1.123 4.14732
C -1.04056 0.97816 3.20081
O -1.35949 -0.14074 2.40873
H -0.47981 -1.04709 5.37016
H 0.4218 1.08451 4.87446
H -1.86116 -2.05284 3.2585
H -3.59934 -0.47192 3.68801
H -2.82272 -0.68312 5.31157
H -3.06483 1.68955 3.66388
H -1.94266 1.61543 5.09908
H -0.8768 1.93549 2.65998
O -0.67687 -6.64966 0.3566
C -2.63991 -3.10237 0.40889
C -3.19037 -6.20192 4.19135
C -3.83687 -7.5126 4.64038
C -2.85479 -8.51889 4.07689
C -1.79376 -7.57541 3.50146
O -1.82193 -6.4688 4.36876
H -4.39253 -6.35603 2.39117
H -2.66409 -7.75304 1.48069
H -2.17387 -2.30923 1.02103
H -3.60161 -5.35451 4.78269
H -3.77701 -7.54602 5.75199
H -4.89384 -7.65118 4.32665
H -2.43129 -9.10766 4.92085
H -3.26592 -9.20392 3.30411
H -0.81586 -8.09713 3.40512
H -3.68025 -2.81562 0.14608
H -2.05254 -3.20997 -0.52577
H 1.93213 1.8937 0.0653
H 2.74065 0.39356 0.66065
H 3.14035 2.0047 1.40211
H 1.57543 -4.52576 3.7678
H 2.3051 -3.54531 2.42471
H 0.65879 -4.43246 0.84989
H 1.45738 -5.81146 1.72397
$end

$opt
CONSTRAINT
tors           1           2           3           4    -170.063
tors           3           4           5           6     +54.964
tors           4           5           6           7    +165.687
tors           5           6           7           8    -175.827
tors           6           7           8           9     -50.451
tors           7           8           9          10    +178.348
tors           8           9          10          11    -180.000
tors           9          10          11          12    -119.363
tors          11          12          13          14     -60.127
ENDCONSTRAINT
$end

$rem
JOBTYPE                   OPT
METHOD                    B3LYP
DFT_D                     d3_op
BASIS                     STO-3G
GEOM_OPT_MAX_CYCLES       100
GEOM_OPT_TOL_GRADIENT     300
GEOM_OPT_TOL_DISPLACEMENT 1200
GEOM_OPT_TOL_ENERGY       100
SYMMETRY                  False
THRESH                    12
SCF_CONVERGENCE           8
MAX_SUB_FILE_NUM          128
MEM_STATIC                400
MEM_TOTAL                 4000
$end
--------------------------------------------------------------

   15   -1510.1516975492      6.22E-09 Convergence criterion met
 Total energy in the final basis set = -1510.15169755
   14   -1510.2211656082      2.89E-09 Convergence criterion met
 Total energy in the final basis set = -1510.22116561
   14   -1510.2579110351      8.42E-09 Convergence criterion met
 Total energy in the final basis set = -1510.25791104
   14   -1510.2710108095      7.46E-09 Convergence criterion met
 Total energy in the final basis set = -1510.27101081
   15   -1510.2719270747      3.14E-09 Convergence criterion met
 Total energy in the final basis set = -1510.27192707
   14   -1510.2755683725      3.55E-09 Convergence criterion met
 Total energy in the final basis set = -1510.27556837
   14   -1510.2762072480      4.55E-09 Convergence criterion met
 Total energy in the final basis set = -1510.27620725
   13   -1510.2770974843      5.05E-09 Convergence criterion met
   11   -1510.2784298456      1.98E-09 Convergence criterion met
 Total energy in the final basis set = -1510.27842985
   10   -1510.2784362984      5.86E-09 Convergence criterion met
 Total energy in the final basis set = -1510.27843630
   10   -1510.2784391114      4.76E-09 Convergence criterion met
 Total energy in the final basis set = -1510.27843911
    9   -1510.2784428721      4.70E-09 Convergence criterion met
 Total energy in the final basis set = -1510.27844287
   10   -1510.2784451996      5.10E-09 Convergence criterion met
 Total energy in the final basis set = -1510.27844520
    9   -1510.2784467030      5.91E-09 Convergence criterion met
 Total energy in the final basis set = -1510.27844670

             Standard Nuclear Orientation (Angstroms)
    I     Atom           X                Y                Z
 ----------------------------------------------------------------
    1      O      -1.4585253444    -2.4785612289     0.8221780817
    2      C      -2.1365483350    -1.4508622352     1.0474737824
    3      C      -3.4860135063    -1.0658368545     0.3376113044
    4      C      -4.0533411781     0.3912256248     0.5977637316
    5      C      -3.0101834102     1.3859238850     1.2225468048
    6      O      -1.8576262441     1.4040615482     0.3698100640
    7      C      -0.9852188554     2.5518331031     0.6934185549
    8      C       0.1605580507     2.5152789468    -0.3669744800
    9      O       0.6636595844     1.1212344527    -0.3337496678
   10      C       1.7051670095     0.9262059265    -1.2935648290
   11      C       2.1940862960    -0.5683420373    -1.2078360007
   12      C       3.7286753900    -0.7569146288    -0.8241509095
   13      C       4.5567778042     0.5741716095    -0.7085545178
   14      O       4.7486885294     1.4185810875    -1.6097699491
   15      O      -1.8932173838    -0.5663483950     2.1432034158
   16      O       5.0729684434     0.7130388576     0.6220047533
   17      O       2.0939210387     1.8122347611    -2.0842703093
   18      C       5.8496628807     1.9689638805     0.7301078949
   19      C       1.4928168914    -1.3995812087    -0.0656240459
   20      C       1.7612250222    -2.9375520934    -0.2942133604
   21      C       3.2535616793    -3.0667041668     0.1872038379
   22      C       3.5837015821    -1.5647992607     0.5421557534
   23      O       2.3131384775    -1.0673921700     1.1241113530
   24      H       2.0071452768    -1.0159537070    -2.2019881418
   25      H       4.2243225875    -1.3770225836    -1.5937632433
   26      H       0.4307006188    -1.1419189178     0.0976121845
   27      H       1.0731795162    -3.5338177830     0.3261033997
   28      H       1.6278031743    -3.2289042890    -1.3483120776
   29      H       3.3344708599    -3.6986016901     1.0860168074
   30      H       3.9221995250    -3.4697026887    -0.5900772171
   31      H       4.4211451296    -1.4099992011     1.2482245829
   32      O      -3.1807228999     2.1452924475     2.2001771586
   33      C      -0.6490642373    -0.9299588469     2.8619369595
   34      C      -3.4272121169    -1.1092519239    -1.2508368815
   35      C      -4.8905796581    -1.3937887335    -1.7695739371
   36      C      -5.5920267333    -0.0237216355    -1.4376727685
   37      C      -4.3723214812     0.8278729034    -0.8991489628
   38      O      -3.2095751601     0.2997291750    -1.6491311187
   39      H      -4.2227581787    -1.8132568617     0.6902384212
   40      H      -4.9514479726     0.3778752801     1.2387831160
   41      H       0.2550596986    -0.6144152521     2.3004228698
   42      H      -2.6347180433    -1.7641123755    -1.6626529350
   43      H      -4.8798685171    -1.5866684605    -2.8542952743
   44      H      -5.3606795314    -2.2510486080    -1.2615827325
   45      H      -6.0233185317     0.4411826845    -2.3383537036
   46      H      -6.3853766222    -0.1268129926    -0.6801608626
   47      H      -4.4629509131     1.9215422273    -1.0467646976
   48      H      -0.5933467387    -2.0230830154     3.0359433616
   49      H      -0.6892288300    -0.3941509542     3.8279283234
   50      H       6.1939137197     2.0247061126     1.7792250872
   51      H       5.2268020797     2.8559268145     0.4946240811
   52      H       6.7266678382     1.9670252699     0.0509069908
   53      H      -0.2296634027     2.7663401521    -1.3772357175
   54      H       0.9603930180     3.2435857081    -0.1085172745
   55      H      -0.5647600442     2.4530771989     1.7186902436
   56      H      -1.5390394362     3.5150195263     0.6380515457
 ----------------------------------------------------------------

    9   -1510.2784475411      5.40E-09 Convergence criterion met
 Total energy in the final basis set = -1510.27844754
 Final energy is   -1510.27844754111
 **  OPTIMIZATION CONVERGED  **

                    Orbital Energies (a.u.)
 --------------------------------------------------------------

 Alpha MOs
 -- Occupied --
-18.940 -18.932 -18.929 -18.921 -18.889 -18.880 -18.875 -18.872
-18.870 -18.862 -10.104 -10.094 -10.093 -10.093 -10.073 -10.071
-10.062 -10.061 -10.060 -10.059 -10.053 -10.049 -10.039 -10.035
-10.034 -10.033 -10.021 -10.020 -10.014 -10.011  -1.016  -1.010
 -1.006  -0.999  -0.970  -0.964  -0.938  -0.936  -0.931  -0.923
 -0.763  -0.757  -0.727  -0.718  -0.711  -0.704  -0.693  -0.660
 -0.657  -0.610  -0.596  -0.574  -0.545  -0.540  -0.538  -0.531
 -0.517  -0.507  -0.489  -0.475  -0.467  -0.464  -0.441  -0.436
 -0.432  -0.427  -0.424  -0.412  -0.410  -0.407  -0.404  -0.401
 -0.386  -0.381  -0.374  -0.369  -0.361  -0.350  -0.349  -0.343
 -0.341  -0.334  -0.331  -0.330  -0.328  -0.322  -0.317  -0.312
 -0.307  -0.305  -0.300  -0.296  -0.290  -0.284  -0.278  -0.276
 -0.275  -0.256  -0.248  -0.244  -0.241  -0.233  -0.229  -0.180
 -0.177  -0.170  -0.165  -0.157  -0.156  -0.143  -0.142  -0.139
 -0.137

          Ground-State Mulliken Net Atomic Charges

     Atom                 Charge (a.u.)
  ----------------------------------------
      1 O                    -0.217885
      2 C                     0.214167
      3 C                    -0.078260
      4 C                    -0.078806
      5 C                     0.217970
      6 O                    -0.171756
      7 C                    -0.042522
      8 C                    -0.042933
      9 O                    -0.169123
     10 C                     0.206464
     11 C                    -0.077507
     12 C                    -0.079309
     13 C                     0.204233
     14 O                    -0.205419
     15 O                    -0.165972
     16 O                    -0.170428
     17 O                    -0.207517
     18 C                    -0.128170
     19 C                     0.021482
     20 C                    -0.145165
     21 C                    -0.144303
     22 C                     0.022712
     23 O                    -0.196691
     24 H                     0.084777
     25 H                     0.084123
     26 H                     0.094715
     27 H                     0.084041
     28 H                     0.071933
     29 H                     0.076066
     30 H                     0.071599
     31 H                     0.090504
     32 O                    -0.220907
     33 C                    -0.132113
     34 C                     0.025717
     35 C                    -0.142527
     36 C                    -0.144904
     37 C                     0.025867
     38 O                    -0.185279
     39 H                     0.084375
     40 H                     0.084476
     41 H                     0.103292
     42 H                     0.087185
     43 H                     0.078106
     44 H                     0.073504
     45 H                     0.077949
     46 H                     0.073793
     47 H                     0.081327
     48 H                     0.092666
     49 H                     0.091844
     50 H                     0.089739
     51 H                     0.090033
     52 H                     0.088329
     53 H                     0.092689
     54 H                     0.087758
     55 H                     0.088420
     56 H                     0.085636
  ----------------------------------------
  Sum of atomic charges =    -0.000000

                    Cartesian Multipole Moments
 -----------------------------------------------------------------
    Charge (ESU x 10^10)
                 0.0000
    Dipole Moment (Debye)
         X      -0.8501      Y      -1.3239      Z       0.6726
       Tot       1.7110
    Quadrupole Moments (Debye-Ang)
        XX    -143.9637     XY       0.4401     YY    -156.1333
        XZ      10.7760     YZ       4.0742     ZZ    -166.2500

 Total job time:  71.14s(wall), 3390.47s(cpu)
        *  Thank you very much for using Q-Chem.  Have a nice day.  *
