 Q-Chem 5.0, Q-Chem, Inc., Pleasanton, CA (2017)
 Q-Chem 5.0.1 for Intel X86 EM64T Linux

User input:
--------------------------------------------------------------
$molecule
0  1
O -1.4585253444 -2.4785612289 0.8221780817
C -2.136548335 -1.4508622352 1.0474737824
C -3.4860135063 -1.0658368545 0.3376113044
C -4.0533411781 0.3912256248 0.5977637316
C -3.0101834102 1.385923885 1.2225468048
O -1.8576262441 1.4040615482 0.369810064
C -0.9852188554 2.5518331031 0.6934185549
C 0.1605580507 2.5152789468 -0.36697448
O 0.6636595844 1.1212344527 -0.3337496678
C 1.7051670095 0.9262059265 -1.293564829
C 2.194086296 -0.5683420373 -1.2078360007
C 3.72867539 -0.7569146288 -0.8241509095
C 4.5567778042 0.5741716095 -0.7085545178
O 4.7486885294 1.4185810875 -1.6097699491
O -1.8932173838 -0.566348395 2.1432034158
O 5.0729684434 0.7130388576 0.6220047533
O 2.0939210387 1.8122347611 -2.0842703093
C 5.8496628807 1.9689638805 0.7301078949
C 1.4928168914 -1.3995812087 -0.0656240459
C 1.7612250222 -2.9375520934 -0.2942133604
C 3.2535616793 -3.0667041668 0.1872038379
C 3.5837015821 -1.5647992607 0.5421557534
O 2.3131384775 -1.06739217 1.124111353
H 2.0071452768 -1.015953707 -2.2019881418
H 4.2243225875 -1.3770225836 -1.5937632433
H 0.4307006188 -1.1419189178 0.0976121845
H 1.0731795162 -3.533817783 0.3261033997
H 1.6278031743 -3.228904289 -1.3483120776
H 3.3344708599 -3.6986016901 1.0860168074
H 3.922199525 -3.4697026887 -0.5900772171
H 4.4211451296 -1.4099992011 1.2482245829
O -3.1807228999 2.1452924475 2.2001771586
C -0.6490642373 -0.9299588469 2.8619369595
C -3.4272121169 -1.1092519239 -1.2508368815
C -4.8905796581 -1.3937887335 -1.7695739371
C -5.5920267333 -0.0237216355 -1.4376727685
C -4.3723214812 0.8278729034 -0.8991489628
O -3.2095751601 0.299729175 -1.6491311187
H -4.2227581787 -1.8132568617 0.6902384212
H -4.9514479726 0.3778752801 1.238783116
H 0.2550596986 -0.6144152521 2.3004228698
H -2.6347180433 -1.7641123755 -1.662652935
H -4.8798685171 -1.5866684605 -2.8542952743
H -5.3606795314 -2.251048608 -1.2615827325
H -6.0233185317 0.4411826845 -2.3383537036
H -6.3853766222 -0.1268129926 -0.6801608626
H -4.4629509131 1.9215422273 -1.0467646976
H -0.5933467387 -2.0230830154 3.0359433616
H -0.68922883 -0.3941509542 3.8279283234
H 6.1939137197 2.0247061126 1.7792250872
H 5.2268020797 2.8559268145 0.4946240811
H 6.7266678382 1.9670252699 0.0509069908
H -0.2296634027 2.7663401521 -1.3772357175
H 0.960393018 3.2435857081 -0.1085172745
H -0.5647600442 2.4530771989 1.7186902436
H -1.5390394362 3.5150195263 0.6380515457
$end

$rem
JOBTYPE                   OPT
METHOD                    B3LYP
DFT_D                     d3_op
BASIS                     STO-3G
GEOM_OPT_MAX_CYCLES       100
GEOM_OPT_TOL_GRADIENT     300
GEOM_OPT_TOL_DISPLACEMENT 1200
GEOM_OPT_TOL_ENERGY       100
SYMMETRY                  False
THRESH                    12
SCF_CONVERGENCE           8
MAX_SUB_FILE_NUM          128
MEM_STATIC                400
MEM_TOTAL                 4000
$end
--------------------------------------------------------------

   16   -1510.2783056119      5.92E-09 Convergence criterion met
 Total energy in the final basis set = -1510.27830561
   15   -1510.2797018494      3.15E-09 Convergence criterion met
 Total energy in the final basis set = -1510.27970185
   15   -1510.2796761384      2.89E-09 Convergence criterion met
 Total energy in the final basis set = -1510.27967614
   15   -1510.2823442083      3.90E-09 Convergence criterion met
 Total energy in the final basis set = -1510.28234421
   14   -1510.2850957415      6.91E-09 Convergence criterion met
 Total energy in the final basis set = -1510.28509574
   14   -1510.2870604045      3.59E-09 Convergence criterion met
 Total energy in the final basis set = -1510.28706040
   13   -1510.2889134361      4.58E-09 Convergence criterion met
 Total energy in the final basis set = -1510.28891344
   13   -1510.2899245196      8.45E-09 Convergence criterion met
   11   -1510.2983173299      7.66E-09 Convergence criterion met
 Total energy in the final basis set = -1510.29831733
   12   -1510.2983192614      3.95E-09 Convergence criterion met
 Total energy in the final basis set = -1510.29831926
   11   -1510.2983180369      5.85E-09 Convergence criterion met
 Total energy in the final basis set = -1510.29831804
    9   -1510.2983221865      7.76E-09 Convergence criterion met
 Total energy in the final basis set = -1510.29832219
    9   -1510.2983228099      6.79E-09 Convergence criterion met
 Total energy in the final basis set = -1510.29832281
    9   -1510.2983218121      2.37E-09 Convergence criterion met
 Total energy in the final basis set = -1510.29832181

             Standard Nuclear Orientation (Angstroms)
    I     Atom           X                Y                Z
 ----------------------------------------------------------------
    1      O      -0.8366368077    -1.1857311341    -0.4439885162
    2      C      -1.6065644504    -0.8643233690     0.4847931090
    3      C      -3.1689760096    -0.6883292624     0.4015838375
    4      C      -3.6682023594     0.7373432743     0.8841569704
    5      C      -2.4969314651     1.7008961044     1.2683042290
    6      O      -1.5339152600     1.6701192621     0.2050355722
    7      C      -0.3755400245     2.5309796895     0.5363995630
    8      C       0.6956669538     2.3274032998    -0.5767160908
    9      O       1.3228981685     0.9871845906    -0.4615719439
   10      C       1.5123113105     0.4279144114    -1.7714768294
   11      C       2.4862452826    -0.7959727070    -1.7123600114
   12      C       3.6312514155    -0.7146380735    -0.6128640328
   13      C       3.6132720381     0.6016992543     0.2558328661
   14      O       4.0223610274     1.7281765077    -0.1027066386
   15      O      -1.2435803493    -0.6540131833     1.8478133112
   16      O       3.1736861255     0.2982277680     1.5867857862
   17      O       0.9823752591     0.8874732745    -2.8067581633
   18      C       3.1909380166     1.5275977155     2.4095952391
   19      C       1.7677435731    -2.1543161479    -1.3032283445
   20      C       2.6940912379    -3.3543185589    -1.7427415629
   21      C       3.8357541913    -3.2738477787    -0.6593100604
   22      C       3.3541554197    -2.0439307384     0.2062783130
   23      O       1.8794460199    -2.1777644116     0.1707125431
   24      H       2.9202561831    -0.8874722221    -2.7239704441
   25      H       4.6198544259    -0.7542814522    -1.1055937443
   26      H       0.7013898526    -2.2137222202    -1.5944273064
   27      H       2.1434969442    -4.3062502957    -1.6770209748
   28      H       3.0716226022    -3.2343487773    -2.7706167150
   29      H       3.8716442107    -4.1863693166    -0.0432928151
   30      H       4.8311779430    -3.1065565871    -1.1008345143
   31      H       3.7143303349    -2.0215086973     1.2521532533
   32      O      -2.3859316228     2.4075194077     2.2925915310
   33      C       0.2171282412    -0.7811382020     2.0725764857
   34      C      -3.6908537403    -0.7128676235    -1.0928984303
   35      C      -5.2466588612    -0.9766488248    -1.0686907904
   36      C      -5.7775951819     0.4119597652    -0.5509133585
   37      C      -4.4304504124     1.2295738326    -0.4245275721
   38      O      -3.5925479636     0.7024740235    -1.5231269428
   39      H      -3.6367369417    -1.4862743506     1.0070245365
   40      H      -4.3467676349     0.6649905032     1.7517536024
   41      H       0.7521320610    -1.2901696903     1.2306649008
   42      H      -3.0966601626    -1.3620280476    -1.7651896454
   43      H      -5.6167763161    -1.1960127007    -2.0828352496
   44      H      -5.5183604550    -1.8120787978    -0.4039123146
   45      H      -6.4493957958     0.8873017384    -1.2831727929
   46      H      -6.3047342445     0.3337750218     0.4133134164
   47      H      -4.5376790541     2.3285084617    -0.5096006658
   48      H       0.3493617375    -1.3542753760     3.0099767684
   49      H       0.6517169166     0.2268681477     2.2114331175
   50      H       2.9075424536     1.2162362081     3.4318501253
   51      H       2.4627544048     2.2766541586     2.0370928246
   52      H       4.1960673829     1.9961531254     2.4267860197
   53      H       0.2415674540     2.4167974219    -1.5876734145
   54      H       1.4945421358     3.0939252191    -0.4631874069
   55      H       0.0361088909     2.2719956937     1.5356346183
   56      H      -0.6764031972     3.6025628712     0.5587947372
 ----------------------------------------------------------------

    9   -1510.2983214459      1.66E-09 Convergence criterion met
 Total energy in the final basis set = -1510.29832145
 Final energy is   -1510.29832144593
 **  OPTIMIZATION CONVERGED  **

                    Orbital Energies (a.u.)
 --------------------------------------------------------------

 Alpha MOs
 -- Occupied --
-18.936 -18.931 -18.931 -18.915 -18.902 -18.883 -18.879 -18.871
-18.863 -18.860 -10.102 -10.098 -10.096 -10.090 -10.075 -10.070
-10.064 -10.063 -10.060 -10.057 -10.052 -10.040 -10.038 -10.033
-10.029 -10.023 -10.022 -10.021 -10.017 -10.016  -1.016  -1.009
 -1.004  -0.993  -0.978  -0.965  -0.940  -0.932  -0.930  -0.923
 -0.766  -0.758  -0.729  -0.721  -0.711  -0.704  -0.696  -0.661
 -0.640  -0.610  -0.595  -0.577  -0.548  -0.541  -0.539  -0.532
 -0.514  -0.510  -0.488  -0.479  -0.471  -0.454  -0.441  -0.435
 -0.432  -0.427  -0.421  -0.412  -0.410  -0.408  -0.404  -0.394
 -0.381  -0.377  -0.371  -0.364  -0.362  -0.355  -0.349  -0.346
 -0.343  -0.339  -0.333  -0.331  -0.326  -0.323  -0.320  -0.307
 -0.305  -0.305  -0.301  -0.296  -0.293  -0.288  -0.284  -0.277
 -0.269  -0.255  -0.250  -0.247  -0.243  -0.229  -0.217  -0.176
 -0.174  -0.171  -0.162  -0.157  -0.153  -0.151  -0.145  -0.141
 -0.138

          Ground-State Mulliken Net Atomic Charges

     Atom                 Charge (a.u.)
  ----------------------------------------
      1 O                    -0.224168
      2 C                     0.220625
      3 C                    -0.078556
      4 C                    -0.078496
      5 C                     0.213133
      6 O                    -0.168900
      7 C                    -0.044747
      8 C                    -0.053284
      9 O                    -0.168342
     10 C                     0.220001
     11 C                    -0.078648
     12 C                    -0.079893
     13 C                     0.216033
     14 O                    -0.226774
     15 O                    -0.181392
     16 O                    -0.169746
     17 O                    -0.205577
     18 C                    -0.127755
     19 C                     0.027442
     20 C                    -0.143692
     21 C                    -0.143874
     22 C                     0.026901
     23 O                    -0.184436
     24 H                     0.087570
     25 H                     0.084248
     26 H                     0.106536
     27 H                     0.079345
     28 H                     0.075247
     29 H                     0.078512
     30 H                     0.074092
     31 H                     0.091775
     32 O                    -0.214116
     33 C                    -0.152159
     34 C                     0.024332
     35 C                    -0.143867
     36 C                    -0.143977
     37 C                     0.025531
     38 O                    -0.186326
     39 H                     0.082553
     40 H                     0.084870
     41 H                     0.125775
     42 H                     0.088521
     43 H                     0.077197
     44 H                     0.072624
     45 H                     0.077192
     46 H                     0.073294
     47 H                     0.081049
     48 H                     0.073503
     49 H                     0.072544
     50 H                     0.089852
     51 H                     0.083880
     52 H                     0.089131
     53 H                     0.110212
     54 H                     0.087644
     55 H                     0.089620
     56 H                     0.087943
  ----------------------------------------
  Sum of atomic charges =     0.000000

                    Cartesian Multipole Moments
 -----------------------------------------------------------------
    Charge (ESU x 10^10)
                 0.0000
    Dipole Moment (Debye)
         X       0.6769      Y      -1.5362      Z       0.7109
       Tot       1.8230
    Quadrupole Moments (Debye-Ang)
        XX    -144.0675     XY      -2.9861     YY    -154.2164
        XZ       2.0230     YZ       3.8440     ZZ    -166.2874

 Total job time:  140.33s(wall), 6694.23s(cpu)
        *  Thank you very much for using Q-Chem.  Have a nice day.  *
