 Q-Chem 5.0, Q-Chem, Inc., Pleasanton, CA (2017)
 Q-Chem 5.0.1 for Intel X86 EM64T Linux

User input:
--------------------------------------------------------------
$molecule
0  1
O -3.94934 -3.66094 2.70899
C -3.26408 -4.56952 2.26188
C -3.36658 -6.02376 2.66595
C -3.1297 -6.35973 4.14746
C -2.99241 -5.18592 5.0916
O -3.85789 -5.3288 6.13848
C -3.58497 -4.43282 7.22106
C -4.06766 -5.03529 8.53642
O -5.50342 -5.06057 8.56543
C -6.05379 -5.7465 9.59778
C -6.61604 -4.84428 10.67041
C -6.78731 -5.50371 12.04667
C -6.05885 -6.81775 12.24502
O -6.31875 -7.64993 13.10205
O -2.33907 -4.27941 1.30916
O -4.83454 -6.92213 11.65511
O -6.56683 -6.83357 9.37758
C -3.96983 -7.98528 11.81232
C -5.76856 -3.61164 11.05909
C -6.6585 -2.54988 11.7102
C -6.93281 -3.19025 13.05227
C -6.08198 -4.45528 12.92844
O -4.98751 -4.05453 12.13847
H -7.58839 -4.47826 10.27003
H -7.84804 -5.65887 12.34381
H -5.23485 -3.13596 10.21331
H -6.03303 -1.64304 11.87492
H -7.55997 -2.26958 11.12388
H -6.52107 -2.53024 13.84817
H -7.99985 -3.41982 13.26256
H -5.83273 -4.85101 13.93835
O -2.10817 -4.34112 5.00835
C -2.10598 -3.0144 0.81163
C -4.78429 -6.59235 2.46148
C -4.70663 -8.10047 2.24525
C -4.31156 -8.56036 3.63179
C -4.38793 -7.23254 4.39946
O -5.38877 -6.50662 3.7298
H -2.6561 -6.58627 2.01671
H -2.19281 -6.9463 4.27347
H -1.7817 -2.33554 1.62921
H -5.33504 -6.11178 1.6231
H -5.74441 -8.44746 2.03694
H -4.03795 -8.43873 1.42471
H -5.08088 -9.27868 3.99293
H -3.29999 -9.01416 3.71142
H -4.57244 -7.45595 5.47222
H -3.0264 -2.61519 0.33427
H -1.30166 -3.06568 0.04944
H -3.05618 -7.80128 11.21073
H -4.44961 -8.9223 11.45746
H -3.68031 -8.09029 12.87964
H -3.65194 -6.0651 8.62373
H -3.67738 -4.4376 9.38524
H -4.03056 -3.43088 7.03846
H -2.48499 -4.31921 7.369
$end

$opt
CONSTRAINT
tors           1           2           3           4     -59.508
tors           3           4           5           6    +127.487
tors           4           5           6           7    +166.665
tors           5           6           7           8    -152.762
tors           6           7           8           9     -69.868
tors           7           8           9          10    +170.948
tors           8           9          10          11    +104.521
tors           9          10          11          12    -159.144
tors          11          12          13          14    -160.569
ENDCONSTRAINT
$end

$rem
JOBTYPE                   OPT
METHOD                    B3LYP
DFT_D                     d3_op
BASIS                     STO-3G
GEOM_OPT_MAX_CYCLES       100
GEOM_OPT_TOL_GRADIENT     300
GEOM_OPT_TOL_DISPLACEMENT 1200
GEOM_OPT_TOL_ENERGY       100
SYMMETRY                  False
THRESH                    12
SCF_CONVERGENCE           8
MAX_SUB_FILE_NUM          128
MEM_STATIC                400
MEM_TOTAL                 4000
$end
--------------------------------------------------------------

   15   -1510.1212729734      8.85E-09 Convergence criterion met
 Total energy in the final basis set = -1510.12127297
   14   -1510.1922975895      6.06E-09 Convergence criterion met
 Total energy in the final basis set = -1510.19229759
   14   -1510.2305320483      8.25E-09 Convergence criterion met
 Total energy in the final basis set = -1510.23053205
   14   -1510.2472536099      7.07E-09 Convergence criterion met
 Total energy in the final basis set = -1510.24725361
   14   -1510.2525970787      5.00E-09 Convergence criterion met
 Total energy in the final basis set = -1510.25259708
   13   -1510.2542381925      3.08E-09 Convergence criterion met
 Total energy in the final basis set = -1510.25423819
   12   -1510.2549356959      7.64E-09 Convergence criterion met
 Total energy in the final basis set = -1510.25493570
   12   -1510.2552441547      7.37E-09 Convergence criterion met
   11   -1510.2559546805      7.96E-09 Convergence criterion met
 Total energy in the final basis set = -1510.25595468
   10   -1510.2559781974      8.51E-09 Convergence criterion met
 Total energy in the final basis set = -1510.25597820
   11   -1510.2559900560      3.07E-09 Convergence criterion met
 Total energy in the final basis set = -1510.25599006
   11   -1510.2559966523      2.28E-09 Convergence criterion met
 Total energy in the final basis set = -1510.25599665
   11   -1510.2559988261      3.17E-09 Convergence criterion met
 Total energy in the final basis set = -1510.25599883
   10   -1510.2560003966      6.99E-09 Convergence criterion met
 Total energy in the final basis set = -1510.25600040

             Standard Nuclear Orientation (Angstroms)
    I     Atom           X                Y                Z
 ----------------------------------------------------------------
    1      O       4.5124428861    -1.7322976003     0.8321725488
    2      C       5.2256100722    -0.9918908296     0.1208573985
    3      C       5.0893773930     0.5546955885    -0.0825597361
    4      C       3.6807068992     0.9831820192    -0.6825576493
    5      C       2.7589630348    -0.2452991144    -1.0238892657
    6      O       1.4812877994    -0.0825733239    -0.4059774389
    7      C       0.5042770109    -1.0487775820    -0.9647451074
    8      C      -0.9154419401    -0.4128495244    -0.8193131238
    9      O      -1.2494371416    -0.3996148056     0.6222652928
   10      C      -2.4708365290     0.3843794025     0.7949504173
   11      C      -3.7414735327    -0.5153775392     1.0586829842
   12      C      -5.1196767211     0.1880576089     0.7426737897
   13      C      -5.0480360691     1.3508281307    -0.3116667803
   14      O      -5.8908917847     2.2590301608    -0.4776805751
   15      O       6.3434730384    -1.4528075343    -0.6482345541
   16      O      -3.9843089442     1.0765401565    -1.2338983364
   17      O      -2.4460605138     1.6276082625     0.8962110390
   18      C      -3.9463900534     2.1078115766    -2.2930560842
   19      C      -3.8789813843    -1.8824802246     0.2622094743
   20      C      -4.7332655475    -2.8582761818     1.1621560211
   21      C      -6.1483458744    -2.1748193066     1.0732542271
   22      C      -5.8725508622    -1.0231923974     0.0252360367
   23      O      -4.8089486006    -1.5733249282    -0.8489109241
   24      H      -3.6978118881    -0.7469788712     2.1411555173
   25      H      -5.6444657644     0.5447526084     1.6453138231
   26      H      -2.9285473033    -2.3032010574    -0.1148910755
   27      H      -4.7472410587    -3.8677069752     0.7205015558
   28      H      -4.3512962007    -2.9272228780     2.1932318768
   29      H      -6.9144815178    -2.8694916974     0.6942371534
   30      H      -6.4851250612    -1.7719240354     2.0419131379
   31      H      -6.7503881241    -0.7181754701    -0.5772213348
   32      O       3.0523253075    -1.1960487031    -1.7826598539
   33      C       6.4801927839    -2.9210844408    -0.5056919676
   34      C       5.0572787186     1.3210783005     1.3094706858
   35      C       5.2920061474     2.8584752570     1.0324581914
   36      C       3.8924151320     3.2784746729     0.4486442277
   37      C       3.1202781326     1.9012073013     0.4839509695
   38      O       3.6348295705     1.2470544401     1.7098093731
   39      H       5.9219256411     0.8961728700    -0.7216242828
   40      H       3.8176305714     1.5555918701    -1.6190945831
   41      H       5.5823698075    -3.4496640033    -0.8862315299
   42      H       5.7030863660     0.8780520803     2.0921277217
   43      H       5.5152064470     3.3898674239     1.9712145434
   44      H       6.1175785226     3.0290812655     0.3232016914
   45      H       3.3898772948     4.0156085188     1.0947662392
   46      H       3.9622267531     3.6919401478    -0.5703368113
   47      H       2.0160841885     1.9669598978     0.5138727355
   48      H       6.6408196406    -3.2163699023     0.5513320121
   49      H       7.3616358669    -3.2063980271    -1.1088010234
   50      H      -3.1713262541     1.7801900240    -3.0102021569
   51      H      -3.6733095902     3.1013281692    -1.8818006195
   52      H      -4.9222191813     2.1964137620    -2.8124358052
   53      H      -0.9016838001     0.6165172457    -1.2446824217
   54      H      -1.6487099492    -1.0141217936    -1.4052912407
   55      H       0.5487772725    -2.0080176552    -0.4032535649
   56      H       0.7328176164    -1.2612916044    -2.0317081674
 ----------------------------------------------------------------

    9   -1510.2560005953      3.42E-09 Convergence criterion met
 Total energy in the final basis set = -1510.25600060
 Final energy is   -1510.25600059530
 **  OPTIMIZATION CONVERGED  **

                    Orbital Energies (a.u.)
 --------------------------------------------------------------

 Alpha MOs
 -- Occupied --
-18.934 -18.933 -18.928 -18.901 -18.900 -18.892 -18.883 -18.872
-18.870 -18.866 -10.109 -10.098 -10.098 -10.092 -10.075 -10.073
-10.064 -10.064 -10.063 -10.058 -10.057 -10.053 -10.040 -10.038
-10.036 -10.032 -10.024 -10.022 -10.017 -10.016  -1.014  -1.011
 -1.003  -1.002  -0.974  -0.965  -0.941  -0.934  -0.930  -0.928
 -0.765  -0.759  -0.726  -0.722  -0.714  -0.706  -0.695  -0.661
 -0.658  -0.609  -0.599  -0.577  -0.548  -0.542  -0.540  -0.534
 -0.518  -0.509  -0.487  -0.478  -0.469  -0.456  -0.445  -0.441
 -0.437  -0.429  -0.421  -0.413  -0.412  -0.409  -0.406  -0.401
 -0.391  -0.387  -0.371  -0.370  -0.360  -0.356  -0.354  -0.346
 -0.342  -0.341  -0.337  -0.335  -0.327  -0.325  -0.321  -0.316
 -0.310  -0.306  -0.303  -0.300  -0.290  -0.288  -0.283  -0.276
 -0.271  -0.256  -0.252  -0.246  -0.241  -0.237  -0.229  -0.177
 -0.175  -0.170  -0.161  -0.158  -0.154  -0.150  -0.146  -0.144
 -0.139

          Ground-State Mulliken Net Atomic Charges

     Atom                 Charge (a.u.)
  ----------------------------------------
      1 O                    -0.212927
      2 C                     0.208593
      3 C                    -0.079866
      4 C                    -0.077798
      5 C                     0.211512
      6 O                    -0.166430
      7 C                    -0.045358
      8 C                    -0.043767
      9 O                    -0.194100
     10 C                     0.228938
     11 C                    -0.081846
     12 C                    -0.078392
     13 C                     0.212503
     14 O                    -0.214269
     15 O                    -0.169225
     16 O                    -0.171489
     17 O                    -0.183327
     18 C                    -0.127534
     19 C                     0.023895
     20 C                    -0.141857
     21 C                    -0.144898
     22 C                     0.024753
     23 O                    -0.190206
     24 H                     0.085923
     25 H                     0.087755
     26 H                     0.085285
     27 H                     0.078259
     28 H                     0.075091
     29 H                     0.078968
     30 H                     0.075112
     31 H                     0.083916
     32 O                    -0.218662
     33 C                    -0.128661
     34 C                     0.025772
     35 C                    -0.144070
     36 C                    -0.144342
     37 C                     0.023376
     38 O                    -0.185644
     39 H                     0.085234
     40 H                     0.083601
     41 H                     0.091636
     42 H                     0.082580
     43 H                     0.077598
     44 H                     0.072944
     45 H                     0.078274
     46 H                     0.071792
     47 H                     0.095544
     48 H                     0.087762
     49 H                     0.088843
     50 H                     0.088044
     51 H                     0.090236
     52 H                     0.091124
     53 H                     0.083941
     54 H                     0.081055
     55 H                     0.092188
     56 H                     0.092621
  ----------------------------------------
  Sum of atomic charges =     0.000000

                    Cartesian Multipole Moments
 -----------------------------------------------------------------
    Charge (ESU x 10^10)
                -0.0000
    Dipole Moment (Debye)
         X       0.1735      Y      -0.4993      Z      -1.2443
       Tot       1.3519
    Quadrupole Moments (Debye-Ang)
        XX    -149.0248     XY      14.0705     YY    -156.5844
        XZ      -5.1527     YZ      -5.5033     ZZ    -158.9546

 Total job time:  54.17s(wall), 2578.53s(cpu)
        *  Thank you very much for using Q-Chem.  Have a nice day.  *
