 Q-Chem 5.0, Q-Chem, Inc., Pleasanton, CA (2017)
 Q-Chem 5.0.1 for Intel X86 EM64T Linux

User input:
--------------------------------------------------------------
$molecule
0  1
O 4.5124428861 -1.7322976003 0.8321725488
C 5.2256100722 -0.9918908296 0.1208573985
C 5.089377393 0.5546955885 -0.0825597361
C 3.6807068992 0.9831820192 -0.6825576493
C 2.7589630348 -0.2452991144 -1.0238892657
O 1.4812877994 -0.0825733239 -0.4059774389
C 0.5042770109 -1.048777582 -0.9647451074
C -0.9154419401 -0.4128495244 -0.8193131238
O -1.2494371416 -0.3996148056 0.6222652928
C -2.470836529 0.3843794025 0.7949504173
C -3.7414735327 -0.5153775392 1.0586829842
C -5.1196767211 0.1880576089 0.7426737897
C -5.0480360691 1.3508281307 -0.3116667803
O -5.8908917847 2.2590301608 -0.4776805751
O 6.3434730384 -1.4528075343 -0.6482345541
O -3.9843089442 1.0765401565 -1.2338983364
O -2.4460605138 1.6276082625 0.896211039
C -3.9463900534 2.1078115766 -2.2930560842
C -3.8789813843 -1.8824802246 0.2622094743
C -4.7332655475 -2.8582761818 1.1621560211
C -6.1483458744 -2.1748193066 1.0732542271
C -5.8725508622 -1.0231923974 0.0252360367
O -4.8089486006 -1.5733249282 -0.8489109241
H -3.6978118881 -0.7469788712 2.1411555173
H -5.6444657644 0.5447526084 1.6453138231
H -2.9285473033 -2.3032010574 -0.1148910755
H -4.7472410587 -3.8677069752 0.7205015558
H -4.3512962007 -2.927222878 2.1932318768
H -6.9144815178 -2.8694916974 0.6942371534
H -6.4851250612 -1.7719240354 2.0419131379
H -6.7503881241 -0.7181754701 -0.5772213348
O 3.0523253075 -1.1960487031 -1.7826598539
C 6.4801927839 -2.9210844408 -0.5056919676
C 5.0572787186 1.3210783005 1.3094706858
C 5.2920061474 2.858475257 1.0324581914
C 3.892415132 3.2784746729 0.4486442277
C 3.1202781326 1.9012073013 0.4839509695
O 3.6348295705 1.2470544401 1.7098093731
H 5.9219256411 0.89617287 -0.7216242828
H 3.8176305714 1.5555918701 -1.6190945831
H 5.5823698075 -3.4496640033 -0.8862315299
H 5.703086366 0.8780520803 2.0921277217
H 5.515206447 3.3898674239 1.9712145434
H 6.1175785226 3.0290812655 0.3232016914
H 3.3898772948 4.0156085188 1.0947662392
H 3.9622267531 3.6919401478 -0.5703368113
H 2.0160841885 1.9669598978 0.5138727355
H 6.6408196406 -3.2163699023 0.5513320121
H 7.3616358669 -3.2063980271 -1.1088010234
H -3.1713262541 1.780190024 -3.0102021569
H -3.6733095902 3.1013281692 -1.8818006195
H -4.9222191813 2.196413762 -2.8124358052
H -0.9016838001 0.6165172457 -1.2446824217
H -1.6487099492 -1.0141217936 -1.4052912407
H 0.5487772725 -2.0080176552 -0.4032535649
H 0.7328176164 -1.2612916044 -2.0317081674
$end

$rem
JOBTYPE                   OPT
METHOD                    B3LYP
DFT_D                     d3_op
BASIS                     STO-3G
GEOM_OPT_MAX_CYCLES       100
GEOM_OPT_TOL_GRADIENT     300
GEOM_OPT_TOL_DISPLACEMENT 1200
GEOM_OPT_TOL_ENERGY       100
SYMMETRY                  False
THRESH                    12
SCF_CONVERGENCE           8
MAX_SUB_FILE_NUM          128
MEM_STATIC                400
MEM_TOTAL                 4000
$end
--------------------------------------------------------------

   16   -1510.2560410401      5.06E-09 Convergence criterion met
 Total energy in the final basis set = -1510.25604104
   14   -1510.2596455864      9.70E-09 Convergence criterion met
 Total energy in the final basis set = -1510.25964559
   14   -1510.2629634661      7.54E-09 Convergence criterion met
 Total energy in the final basis set = -1510.26296347
   14   -1510.2662930824      7.76E-09 Convergence criterion met
 Total energy in the final basis set = -1510.26629308
   15   -1510.2609095401      3.61E-09 Convergence criterion met
 Total energy in the final basis set = -1510.26090954
   14   -1510.2683875800      3.68E-09 Convergence criterion met
 Total energy in the final basis set = -1510.26838758
   13   -1510.2735387664      8.75E-09 Convergence criterion met
 Total energy in the final basis set = -1510.27353877
   14   -1510.2769472919      3.98E-09 Convergence criterion met
   11   -1510.3058287573      4.08E-09 Convergence criterion met
 Total energy in the final basis set = -1510.30582876
   10   -1510.3058285763      8.71E-09 Convergence criterion met
 Total energy in the final basis set = -1510.30582858
   11   -1510.3058354742      2.01E-09 Convergence criterion met
 Total energy in the final basis set = -1510.30583547
    9   -1510.3058389345      7.94E-09 Convergence criterion met
 Total energy in the final basis set = -1510.30583893
   10   -1510.3058425672      6.56E-09 Convergence criterion met
 Total energy in the final basis set = -1510.30584257
    9   -1510.3058442024      7.27E-09 Convergence criterion met
 Total energy in the final basis set = -1510.30584420

             Standard Nuclear Orientation (Angstroms)
    I     Atom           X                Y                Z
 ----------------------------------------------------------------
    1      O       1.9801014091    -1.8149771193     1.6876402271
    2      C       2.8051689567    -1.1399979551     1.0328704890
    3      C       2.9692927929     0.4246436970     1.0484062443
    4      C       2.3932157283     1.1526714336    -0.2351523919
    5      C       1.8379407699     0.1620962872    -1.3109646510
    6      O       1.6337684577     0.8918763722    -2.5239475283
    7      C       1.0045308663     0.0418585834    -3.5657352171
    8      C      -0.5657645577     0.1601580387    -3.5202458406
    9      O      -1.0787828689    -0.5074377968    -2.3049692687
   10      C      -1.1773780223     0.4354472070    -1.2265968668
   11      C      -1.2900929030    -0.3125245197     0.1445329961
   12      C      -2.6153489929     0.0178447007     0.9470727823
   13      C      -3.6484456317     0.8651731883     0.1380333922
   14      O      -4.3904765682     1.7799778772     0.5550166677
   15      O       3.8658294330    -1.6980518448     0.2489636401
   16      O      -3.6386707454     0.4023534434    -1.2219794892
   17      O      -1.0465545413     1.6748981212    -1.3886124184
   18      C      -4.5369082113     1.2302683845    -2.0559271950
   19      C      -1.3824422452    -1.8891698105     0.0160573385
   20      C      -0.9657659522    -2.5209990005     1.3957913187
   21      C      -2.2064398021    -2.1360651844     2.2832771475
   22      C      -3.1550766316    -1.4568992037     1.2121308071
   23      O      -2.8413202827    -2.1554778455    -0.0516978770
   24      H      -0.4074463240     0.0183534849     0.7461784265
   25      H      -2.4026770806     0.5500352901     1.8907824968
   26      H      -0.8671701150    -2.2957997106    -0.8741832781
   27      H      -0.8778445596    -3.6145472332     1.2941231794
   28      H       0.0000994316    -2.1221810129     1.7580550394
   29      H      -2.6876633668    -3.0243564338     2.7227063356
   30      H      -1.9457531238    -1.4378199742     3.0946449574
   31      H      -4.2386217394    -1.5172589682     1.4337409269
   32      O       1.5991554103    -1.0585366331    -1.1632814301
   33      C       3.6840300709    -3.1628919671     0.1358420080
   34      C       2.0690583664     1.0572332563     2.1848344553
   35      C       2.5125341236     2.5536928345     2.4135597981
   36      C       1.8978003553     3.2584310593     1.1450679562
   37      C       1.2318615684     2.0377332804     0.4057722033
   38      O       0.7480957438     1.1932025931     1.5258683795
   39      H       4.0400224958     0.6603390464     1.1831122551
   40      H       3.1514859823     1.7950439236    -0.7162593072
   41      H       2.7493340703    -3.4041628459    -0.4109982438
   42      H       1.9823091563     0.4328032106     3.0949475294
   43      H       2.0784980009     2.9483414120     3.3458913023
   44      H       3.6086030473     2.6529214771     2.4639810077
   45      H       1.1325554442     3.9996099495     1.4259563566
   46      H       2.6589867571     3.7544537346     0.5221427445
   47      H       0.3822031565     2.2506333240    -0.2858213434
   48      H       3.6486412581    -3.6501653944     1.1315293214
   49      H       4.5548715744    -3.5382357755    -0.4323562913
   50      H      -4.5219725596     0.7768425109    -3.0640285049
   51      H      -4.1796853067     2.2790900110    -2.1154909868
   52      H      -5.5737496457     1.2313705440    -1.6626939880
   53      H      -0.8621935081     1.2310512429    -3.5224551173
   54      H      -1.0032227475    -0.3650072211    -4.3935621325
   55      H       1.3009125365    -1.0192591951    -3.4222534187
   56      H       1.3811444603     0.4139949523    -4.5405893942
 ----------------------------------------------------------------

    9   -1510.3058442731      3.67E-09 Convergence criterion met
 Total energy in the final basis set = -1510.30584427
 Final energy is   -1510.30584427311
 **  OPTIMIZATION CONVERGED  **

                    Orbital Energies (a.u.)
 --------------------------------------------------------------

 Alpha MOs
 -- Occupied --
-18.944 -18.929 -18.929 -18.929 -18.900 -18.889 -18.870 -18.868
-18.867 -18.862 -10.110 -10.099 -10.095 -10.089 -10.078 -10.072
-10.064 -10.059 -10.058 -10.054 -10.045 -10.043 -10.039 -10.034
-10.024 -10.022 -10.021 -10.007 -10.001  -9.989  -1.025  -1.008
 -1.005  -0.999  -0.978  -0.951  -0.948  -0.932  -0.931  -0.928
 -0.768  -0.746  -0.728  -0.718  -0.706  -0.701  -0.684  -0.660
 -0.652  -0.618  -0.593  -0.574  -0.548  -0.541  -0.529  -0.518
 -0.514  -0.501  -0.487  -0.473  -0.465  -0.458  -0.453  -0.439
 -0.431  -0.422  -0.415  -0.414  -0.408  -0.406  -0.404  -0.397
 -0.391  -0.382  -0.371  -0.365  -0.357  -0.355  -0.352  -0.348
 -0.345  -0.342  -0.335  -0.332  -0.327  -0.315  -0.314  -0.308
 -0.306  -0.303  -0.293  -0.288  -0.284  -0.279  -0.277  -0.275
 -0.265  -0.258  -0.250  -0.241  -0.240  -0.235  -0.213  -0.196
 -0.172  -0.170  -0.168  -0.159  -0.155  -0.151  -0.150  -0.140
 -0.125

          Ground-State Mulliken Net Atomic Charges

     Atom                 Charge (a.u.)
  ----------------------------------------
      1 O                    -0.219092
      2 C                     0.219265
      3 C                    -0.082035
      4 C                    -0.080467
      5 C                     0.211244
      6 O                    -0.169339
      7 C                    -0.052885
      8 C                    -0.053466
      9 O                    -0.167751
     10 C                     0.216322
     11 C                    -0.095987
     12 C                    -0.079526
     13 C                     0.209340
     14 O                    -0.213530
     15 O                    -0.172979
     16 O                    -0.165362
     17 O                    -0.235869
     18 C                    -0.127696
     19 C                     0.022580
     20 C                    -0.152701
     21 C                    -0.144457
     22 C                     0.025010
     23 O                    -0.192728
     24 H                     0.112838
     25 H                     0.085864
     26 H                     0.090514
     27 H                     0.069644
     28 H                     0.095716
     29 H                     0.072535
     30 H                     0.071645
     31 H                     0.077516
     32 O                    -0.209160
     33 C                    -0.128402
     34 C                     0.026137
     35 C                    -0.143820
     36 C                    -0.143344
     37 C                     0.013316
     38 O                    -0.190238
     39 H                     0.086073
     40 H                     0.088823
     41 H                     0.093846
     42 H                     0.089230
     43 H                     0.079378
     44 H                     0.074202
     45 H                     0.081142
     46 H                     0.074845
     47 H                     0.110380
     48 H                     0.088622
     49 H                     0.087716
     50 H                     0.089727
     51 H                     0.088469
     52 H                     0.090275
     53 H                     0.100357
     54 H                     0.089691
     55 H                     0.098373
     56 H                     0.090201
  ----------------------------------------
  Sum of atomic charges =    -0.000000

                    Cartesian Multipole Moments
 -----------------------------------------------------------------
    Charge (ESU x 10^10)
                -0.0000
    Dipole Moment (Debye)
         X       3.2294      Y       0.7345      Z      -1.4497
       Tot       3.6153
    Quadrupole Moments (Debye-Ang)
        XX    -156.9937     XY       1.5167     YY    -161.7613
        XZ       4.3772     YZ      -0.1827     ZZ    -146.7592

 Total job time:  200.32s(wall), 9542.41s(cpu)
        *  Thank you very much for using Q-Chem.  Have a nice day.  *
