 Q-Chem 5.0, Q-Chem, Inc., Pleasanton, CA (2017)
 Q-Chem 5.0.1 for Intel X86 EM64T Linux

User input:
--------------------------------------------------------------
$molecule
0  1
O -5.9661779013 1.0677568174 1.2695954216
C -5.5064684371 0.8743249107 0.1242930344
C -5.0006722218 -0.4851030167 -0.4853887283
C -3.4662947073 -0.511284985 -0.8640202504
C -2.678396607 0.6754019657 -0.2028799958
O -1.2857339872 0.3786302007 -0.2605951672
C -0.477429806 1.4855017916 0.3077624082
C 0.8677337431 1.5748139189 -0.5099913789
O 2.0317856549 1.1497768484 0.2957580061
C 2.1792724937 -0.2780674336 0.2271708082
C 3.4770465345 -0.699984103 1.0131679267
C 4.7941655865 -0.7176785355 0.1342854544
C 4.5544869973 -0.2649969692 -1.3441250977
O 3.4840019603 0.1371332035 -1.8532311692
O -5.5649530785 1.8311624368 -0.946820405
O 5.7869311986 -0.3736228423 -2.0582907615
O 1.3408112793 -1.0485049861 -0.2883925983
C 5.6023310212 0.06879722 -3.4605650445
C 3.883151354 0.3490462958 2.133537237
C 4.896911569 -0.3474283127 3.1252658397
C 6.2066214822 -0.372584318 2.2531693523
C 5.7021137636 0.3217338712 0.9268568829
O 4.7273435196 1.3257325609 1.4052392709
H 3.286623354 -1.7004978085 1.4403457065
H 5.2625458276 -1.7184760094 0.1184533259
H 3.026942721 0.861063003 2.6124492138
H 5.0277793129 0.2620386411 4.0336801931
H 4.5623867145 -1.3548081907 3.4205474581
H 7.0117540116 0.2212998137 2.7143118912
H 6.5797371667 -1.3932464486 2.0722265601
H 6.4896582749 0.797302221 0.310652699
O -3.1613187037 1.7000674107 0.3321153823
C -6.0021739585 3.1413355234 -0.4196489683
C -5.0927696429 -1.7122701796 0.5159338986
C -5.1654810428 -3.0276099682 -0.3515847562
C -3.6970699819 -3.0883406206 -0.9169682518
C -3.0236181319 -1.8691495736 -0.1704609462
O -3.7431000579 -1.7944598849 1.1239572711
H -5.6081296844 -0.673891918 -1.3894738975
H -3.2941491233 -0.5092275517 -1.9556315638
H -5.2552263712 3.5565938513 0.2878140858
H -5.8656846682 -1.6006346548 1.3011038214
H -5.3848876768 -3.8975330951 0.2881511075
H -5.9278394078 -2.9699700367 -1.1449270211
H -3.1956274715 -4.0315056025 -0.6488466422
H -3.6601092548 -2.9682296678 -2.0116819051
H -1.9305520691 -1.950048471 -0.0105499312
H -6.9796798363 3.0702413339 0.1001148412
H -6.0949428423 3.8112097255 -1.2943278544
H 6.587005594 -0.048584668 -3.9491279883
H 5.2848811958 1.1302624178 -3.5146097462
H 4.8491701607 -0.5516393391 -3.9878538907
H 0.7708574987 0.9581841686 -1.429306099
H 1.0725086281 2.6282991258 -0.7873917891
H -0.2534751934 1.2748517359 1.3768615763
H -1.0585637535 2.4309222963 0.2559979023
$end

$rem
JOBTYPE                   OPT
METHOD                    B3LYP
DFT_D                     d3_op
BASIS                     STO-3G
GEOM_OPT_MAX_CYCLES       100
GEOM_OPT_TOL_GRADIENT     300
GEOM_OPT_TOL_DISPLACEMENT 1200
GEOM_OPT_TOL_ENERGY       100
SYMMETRY                  False
THRESH                    12
SCF_CONVERGENCE           8
MAX_SUB_FILE_NUM          128
MEM_STATIC                400
MEM_TOTAL                 4000
$end
--------------------------------------------------------------

   16   -1510.2830345373      5.62E-09 Convergence criterion met
 Total energy in the final basis set = -1510.28303454
   13   -1510.2838778237      4.50E-09 Convergence criterion met
 Total energy in the final basis set = -1510.28387782
   13   -1510.2844402290      6.26E-09 Convergence criterion met
 Total energy in the final basis set = -1510.28444023
   13   -1510.2847429219      6.43E-09 Convergence criterion met
 Total energy in the final basis set = -1510.28474292
   13   -1510.2852847585      4.82E-09 Convergence criterion met
 Total energy in the final basis set = -1510.28528476
   12   -1510.2857045957      9.43E-09 Convergence criterion met
 Total energy in the final basis set = -1510.28570460
   13   -1510.2863420798      4.89E-09 Convergence criterion met
 Total energy in the final basis set = -1510.28634208
   13   -1510.2871061986      8.74E-09 Convergence criterion met
   12   -1510.3051923796      8.09E-09 Convergence criterion met
 Total energy in the final basis set = -1510.30519238
   11   -1510.3051959196      5.13E-09 Convergence criterion met
 Total energy in the final basis set = -1510.30519592
   11   -1510.3052039832      3.68E-09 Convergence criterion met
 Total energy in the final basis set = -1510.30520398
   10   -1510.3052030835      9.91E-09 Convergence criterion met
 Total energy in the final basis set = -1510.30520308
   11   -1510.3052066141      2.09E-09 Convergence criterion met
 Total energy in the final basis set = -1510.30520661
    9   -1510.3052070423      7.47E-09 Convergence criterion met
 Total energy in the final basis set = -1510.30520704

             Standard Nuclear Orientation (Angstroms)
    I     Atom           X                Y                Z
 ----------------------------------------------------------------
    1      O      -1.9446852102     0.7951736955     2.4973312876
    2      C      -2.7944254702     0.7077640343     1.5857786119
    3      C      -3.1859639262    -0.5794895988     0.7679797045
    4      C      -2.6615434597    -0.5917241552    -0.7265002649
    5      C      -1.8367797583     0.6833897213    -1.0989883479
    6      O      -1.6597206039     0.7163422191    -2.5134940292
    7      C      -0.7720128625     1.8375792199    -2.9143137320
    8      C       0.7185124603     1.3503218304    -3.0535851692
    9      O       1.2871722841     1.0548855129    -1.7211602295
   10      C       1.1640143981    -0.3462142500    -1.4300300734
   11      C       1.5317759074    -0.6054348790     0.0745494861
   12      C       3.0804468119    -0.6976999936     0.3745275593
   13      C       3.9441842709    -0.5307457113    -0.9176301716
   14      O       3.5239276814    -0.4852935146    -2.0973920693
   15      O      -3.6860884414     1.7645026400     1.2008168498
   16      O       5.3236621142    -0.4486946599    -0.5598606167
   17      O       0.6677178620    -1.1784219049    -2.2284590025
   18      C       6.1538882065    -0.2941162628    -1.7778076362
   19      C       1.1180895001     0.6178706933     0.9990388528
   20      C       1.1239200819     0.1189176935     2.4948037544
   21      C       2.6682318300     0.0536229332     2.7917946586
   22      C       3.2625807464     0.5069024724     1.4004492711
   23      O       2.2952891784     1.5159641405     0.9200257252
   24      H       0.9939043061    -1.5217638545     0.3775139394
   25      H       3.3481950760    -1.6612126472     0.8460798136
   26      H       0.1902732902     1.1333430244     0.6690843245
   27      H       0.6088543790     0.8449740798     3.1428061876
   28      H       0.6230927600    -0.8566536042     2.5980063729
   29      H       2.9600096151     0.7655840419     3.5805009484
   30      H       3.0076815913    -0.9533997832     3.0827620873
   31      H       4.2886734832     0.9227273355     1.4302013727
   32      O      -1.3868901309     1.5500471942    -0.3101580455
   33      C      -3.3029367211     3.0141316985     1.8936876821
   34      C      -2.4663791662    -1.8657814953     1.3510115053
   35      C      -3.1925813277    -3.1485944047     0.7859026191
   36      C      -2.6741890178    -3.1605692180    -0.7016714776
   37      C      -1.7374224664    -1.8916519581    -0.7140384237
   38      O      -1.1622619056    -1.8742728886     0.6495023378
   39      H      -4.2860435709    -0.6779310626     0.7900653334
   40      H      -3.4854386608    -0.6965700705    -1.4545679277
   41      H      -2.2901388238     3.3466856267     1.5857157380
   42      H      -2.3143276135    -1.8390858295     2.4474680528
   43      H      -2.8690345710    -4.0477575793     1.3338522426
   44      H      -4.2892578761    -3.0683862480     0.8538132682
   45      H      -2.0904357577    -4.0694537066    -0.9185071216
   46      H      -3.4910590157    -3.0830467989    -1.4369009805
   47      H      -0.9152333867    -1.8763057393    -1.4682737110
   48      H      -3.3148575385     2.8926090735     2.9961405541
   49      H      -4.0490311532     3.7734834933     1.5953000400
   50      H       7.2013814651    -0.2442036556    -1.4280512203
   51      H       5.9005127882     0.6351775637    -2.3278468224
   52      H       6.0312053108    -1.1554210256    -2.4657258035
   53      H       0.7563750832     0.4425255097    -3.6928275104
   54      H       1.3287974658     2.1628130359    -3.4981594051
   55      H      -0.8310281217     2.6511713892    -2.1601670995
   56      H      -1.1429396499     2.1958122077    -3.8965144096
 ----------------------------------------------------------------

    9   -1510.3052091886      7.70E-09 Convergence criterion met
 Total energy in the final basis set = -1510.30520919
 Final energy is   -1510.30520918858
 **  OPTIMIZATION CONVERGED  **

                    Orbital Energies (a.u.)
 --------------------------------------------------------------

 Alpha MOs
 -- Occupied --
-18.944 -18.940 -18.922 -18.919 -18.887 -18.882 -18.881 -18.870
-18.860 -18.859 -10.108 -10.101 -10.091 -10.090 -10.072 -10.067
-10.065 -10.055 -10.053 -10.047 -10.046 -10.037 -10.031 -10.031
-10.030 -10.017 -10.016 -10.014 -10.005  -9.996  -1.022  -1.015
 -0.999  -0.997  -0.967  -0.953  -0.945  -0.939  -0.925  -0.924
 -0.759  -0.750  -0.723  -0.712  -0.705  -0.697  -0.687  -0.660
 -0.653  -0.613  -0.590  -0.573  -0.540  -0.535  -0.531  -0.518
 -0.508  -0.504  -0.485  -0.471  -0.457  -0.455  -0.448  -0.435
 -0.429  -0.424  -0.417  -0.414  -0.410  -0.404  -0.401  -0.397
 -0.392  -0.379  -0.370  -0.364  -0.359  -0.353  -0.349  -0.343
 -0.341  -0.337  -0.331  -0.327  -0.322  -0.318  -0.316  -0.304
 -0.299  -0.299  -0.298  -0.289  -0.280  -0.278  -0.274  -0.267
 -0.262  -0.255  -0.252  -0.243  -0.235  -0.229  -0.217  -0.190
 -0.181  -0.165  -0.164  -0.156  -0.154  -0.143  -0.142  -0.141
 -0.128

          Ground-State Mulliken Net Atomic Charges

     Atom                 Charge (a.u.)
  ----------------------------------------
      1 O                    -0.218473
      2 C                     0.214714
      3 C                    -0.081790
      4 C                    -0.079329
      5 C                     0.217586
      6 O                    -0.166427
      7 C                    -0.053389
      8 C                    -0.052165
      9 O                    -0.168172
     10 C                     0.217914
     11 C                    -0.086503
     12 C                    -0.079264
     13 C                     0.214661
     14 O                    -0.208550
     15 O                    -0.176269
     16 O                    -0.167723
     17 O                    -0.229441
     18 C                    -0.127833
     19 C                     0.018206
     20 C                    -0.143694
     21 C                    -0.144527
     22 C                     0.024778
     23 O                    -0.192304
     24 H                     0.098439
     25 H                     0.085725
     26 H                     0.101973
     27 H                     0.083117
     28 H                     0.077859
     29 H                     0.074486
     30 H                     0.069793
     31 H                     0.082506
     32 O                    -0.212133
     33 C                    -0.128738
     34 C                     0.024792
     35 C                    -0.144433
     36 C                    -0.144096
     37 C                     0.011956
     38 O                    -0.197864
     39 H                     0.083624
     40 H                     0.087737
     41 H                     0.092223
     42 H                     0.086276
     43 H                     0.076513
     44 H                     0.072347
     45 H                     0.078108
     46 H                     0.073006
     47 H                     0.107120
     48 H                     0.086705
     49 H                     0.086104
     50 H                     0.091708
     51 H                     0.091070
     52 H                     0.090205
     53 H                     0.102564
     54 H                     0.089113
     55 H                     0.100651
     56 H                     0.089539
  ----------------------------------------
  Sum of atomic charges =     0.000000

                    Cartesian Multipole Moments
 -----------------------------------------------------------------
    Charge (ESU x 10^10)
                 0.0000
    Dipole Moment (Debye)
         X      -0.4700      Y      -0.3420      Z      -0.8458
       Tot       1.0263
    Quadrupole Moments (Debye-Ang)
        XX    -141.3658     XY      -0.9934     YY    -155.2803
        XZ      -2.6780     YZ      -6.6556     ZZ    -157.1907

 Total job time:  109.16s(wall), 5191.67s(cpu)
        *  Thank you very much for using Q-Chem.  Have a nice day.  *
