 Q-Chem 5.0, Q-Chem, Inc., Pleasanton, CA (2017)
 Q-Chem 5.0.1 for Intel X86 EM64T Linux

User input:
--------------------------------------------------------------
$molecule
0  1
O -3.94934 -3.66094 2.70899
C -3.26408 -4.56952 2.26188
C -3.36658 -6.02376 2.66595
C -2.13792 -6.65325 3.3427
C -1.00901 -5.71221 3.70062
O -0.17223 -6.31164 4.59835
C 0.94997 -5.49678 4.95317
C 2.17817 -6.36888 5.19214
O 2.51551 -6.36714 6.58824
C 1.85398 -7.27412 7.3491
C 2.31458 -7.28331 8.7873
C 3.48211 -8.23479 9.08702
C 4.23811 -8.7537 7.88041
O 4.0225 -8.43785 6.71924
O -2.40382 -4.29709 1.24366
O 5.26513 -9.60394 8.14477
O 1.12969 -8.14921 6.8902
C 6.08126 -10.15978 7.18202
C 2.93973 -5.95248 9.27874
C 2.82947 -5.86175 10.80042
C 3.83226 -6.91706 11.2197
C 4.42082 -7.29218 9.85487
O 4.32604 -6.11003 9.09875
H 1.41031 -7.46365 9.41137
H 3.14346 -9.12468 9.66157
H 2.48315 -5.05139 8.81365
H 3.22567 -4.86167 11.08977
H 1.80879 -5.98285 11.22262
H 4.59675 -6.43636 11.86953
H 3.4011 -7.80668 11.72821
H 5.44354 -7.71307 9.97399
O -0.92206 -4.53278 3.38317
C -2.20972 -3.04265 0.70399
C -4.44159 -6.2481 3.74938
C -4.90658 -7.7033 3.73569
C -3.70118 -8.38584 4.33897
C -2.81582 -7.17224 4.63774
O -3.73194 -6.15578 4.95652
H -3.66276 -6.57538 1.74565
H -1.69364 -7.49108 2.76113
H -1.8376 -2.34413 1.48371
H -5.32226 -5.57708 3.64589
H -5.75734 -7.79269 4.44877
H -5.21958 -8.08193 2.73888
H -4.01377 -8.86986 5.29138
H -3.19577 -9.12936 3.68547
H -2.1004 -7.44178 5.44394
H -3.16069 -2.65786 0.27754
H -1.45519 -3.10825 -0.10644
H 6.83169 -10.81215 7.6737
H 6.61337 -9.36026 6.62342
H 5.47949 -10.77354 6.47806
H 2.16358 -7.36751 4.70046
H 3.03685 -5.8385 4.72324
H 0.73069 -4.7997 5.79132
H 1.2508 -4.86643 4.08124
$end

$opt
CONSTRAINT
tors           1           2           3           4    -116.767
tors           3           4           5           6    +163.485
tors           4           5           6           7    +178.039
tors           5           6           7           8    -145.556
tors           6           7           8           9    -110.446
tors           7           8           9          10     +85.337
tors           8           9          10          11    +176.336
tors           9          10          11          12     -89.231
tors          11          12          13          14      +2.849
ENDCONSTRAINT
$end

$rem
JOBTYPE                   OPT
METHOD                    B3LYP
DFT_D                     d3_op
BASIS                     STO-3G
GEOM_OPT_MAX_CYCLES       100
GEOM_OPT_TOL_GRADIENT     300
GEOM_OPT_TOL_DISPLACEMENT 1200
GEOM_OPT_TOL_ENERGY       100
SYMMETRY                  False
THRESH                    12
SCF_CONVERGENCE           8
MAX_SUB_FILE_NUM          128
MEM_STATIC                400
MEM_TOTAL                 4000
$end
--------------------------------------------------------------

   15   -1510.1486429526      9.29E-09 Convergence criterion met
 Total energy in the final basis set = -1510.14864295
   13   -1510.2183212963      7.52E-09 Convergence criterion met
 Total energy in the final basis set = -1510.21832130
   13   -1510.2556199043      8.09E-09 Convergence criterion met
 Total energy in the final basis set = -1510.25561990
   13   -1510.2720359344      9.21E-09 Convergence criterion met
 Total energy in the final basis set = -1510.27203593
   13   -1510.2779051261      8.05E-09 Convergence criterion met
 Total energy in the final basis set = -1510.27790513
   13   -1510.2803957979      3.66E-09 Convergence criterion met
 Total energy in the final basis set = -1510.28039580
   13   -1510.2816946719      2.27E-09 Convergence criterion met
 Total energy in the final basis set = -1510.28169467
   12   -1510.2821429331      9.32E-09 Convergence criterion met
   12   -1510.2827892473      3.87E-09 Convergence criterion met
 Total energy in the final basis set = -1510.28278925
   11   -1510.2828739180      9.72E-09 Convergence criterion met
 Total energy in the final basis set = -1510.28287392
   11   -1510.2829088345      5.87E-09 Convergence criterion met
 Total energy in the final basis set = -1510.28290883
   10   -1510.2829360716      5.72E-09 Convergence criterion met
 Total energy in the final basis set = -1510.28293607
   10   -1510.2829581055      7.84E-09 Convergence criterion met
 Total energy in the final basis set = -1510.28295811
    9   -1510.2829725836      7.72E-09 Convergence criterion met
 Total energy in the final basis set = -1510.28297258

             Standard Nuclear Orientation (Angstroms)
    I     Atom           X                Y                Z
 ----------------------------------------------------------------
    1      O      -5.9661779013     1.0677568174     1.2695954216
    2      C      -5.5064684371     0.8743249107     0.1242930344
    3      C      -5.0006722218    -0.4851030167    -0.4853887283
    4      C      -3.4662947073    -0.5112849850    -0.8640202504
    5      C      -2.6783966070     0.6754019657    -0.2028799958
    6      O      -1.2857339872     0.3786302007    -0.2605951672
    7      C      -0.4774298060     1.4855017916     0.3077624082
    8      C       0.8677337431     1.5748139189    -0.5099913789
    9      O       2.0317856549     1.1497768484     0.2957580061
   10      C       2.1792724937    -0.2780674336     0.2271708082
   11      C       3.4770465345    -0.6999841030     1.0131679267
   12      C       4.7941655865    -0.7176785355     0.1342854544
   13      C       4.5544869973    -0.2649969692    -1.3441250977
   14      O       3.4840019603     0.1371332035    -1.8532311692
   15      O      -5.5649530785     1.8311624368    -0.9468204050
   16      O       5.7869311986    -0.3736228423    -2.0582907615
   17      O       1.3408112793    -1.0485049861    -0.2883925983
   18      C       5.6023310212     0.0687972200    -3.4605650445
   19      C       3.8831513540     0.3490462958     2.1335372370
   20      C       4.8969115690    -0.3474283127     3.1252658397
   21      C       6.2066214822    -0.3725843180     2.2531693523
   22      C       5.7021137636     0.3217338712     0.9268568829
   23      O       4.7273435196     1.3257325609     1.4052392709
   24      H       3.2866233540    -1.7004978085     1.4403457065
   25      H       5.2625458276    -1.7184760094     0.1184533259
   26      H       3.0269427210     0.8610630030     2.6124492138
   27      H       5.0277793129     0.2620386411     4.0336801931
   28      H       4.5623867145    -1.3548081907     3.4205474581
   29      H       7.0117540116     0.2212998137     2.7143118912
   30      H       6.5797371667    -1.3932464486     2.0722265601
   31      H       6.4896582749     0.7973022210     0.3106526990
   32      O      -3.1613187037     1.7000674107     0.3321153823
   33      C      -6.0021739585     3.1413355234    -0.4196489683
   34      C      -5.0927696429    -1.7122701796     0.5159338986
   35      C      -5.1654810428    -3.0276099682    -0.3515847562
   36      C      -3.6970699819    -3.0883406206    -0.9169682518
   37      C      -3.0236181319    -1.8691495736    -0.1704609462
   38      O      -3.7431000579    -1.7944598849     1.1239572711
   39      H      -5.6081296844    -0.6738919180    -1.3894738975
   40      H      -3.2941491233    -0.5092275517    -1.9556315638
   41      H      -5.2552263712     3.5565938513     0.2878140858
   42      H      -5.8656846682    -1.6006346548     1.3011038214
   43      H      -5.3848876768    -3.8975330951     0.2881511075
   44      H      -5.9278394078    -2.9699700367    -1.1449270211
   45      H      -3.1956274715    -4.0315056025    -0.6488466422
   46      H      -3.6601092548    -2.9682296678    -2.0116819051
   47      H      -1.9305520691    -1.9500484710    -0.0105499312
   48      H      -6.9796798363     3.0702413339     0.1001148412
   49      H      -6.0949428423     3.8112097255    -1.2943278544
   50      H       6.5870055940    -0.0485846680    -3.9491279883
   51      H       5.2848811958     1.1302624178    -3.5146097462
   52      H       4.8491701607    -0.5516393391    -3.9878538907
   53      H       0.7708574987     0.9581841686    -1.4293060990
   54      H       1.0725086281     2.6282991258    -0.7873917891
   55      H      -0.2534751934     1.2748517359     1.3768615763
   56      H      -1.0585637535     2.4309222963     0.2559979023
 ----------------------------------------------------------------

    9   -1510.2829727060      7.72E-09 Convergence criterion met
 Total energy in the final basis set = -1510.28297271
 Final energy is   -1510.28297270601
 **  OPTIMIZATION CONVERGED  **

                    Orbital Energies (a.u.)
 --------------------------------------------------------------

 Alpha MOs
 -- Occupied --
-18.944 -18.936 -18.922 -18.913 -18.889 -18.887 -18.879 -18.878
-18.861 -18.855 -10.108 -10.100 -10.092 -10.085 -10.071 -10.068
-10.066 -10.063 -10.059 -10.052 -10.050 -10.049 -10.042 -10.035
-10.034 -10.026 -10.022 -10.020 -10.014 -10.013  -1.021  -1.015
 -1.000  -0.992  -0.971  -0.962  -0.944  -0.938  -0.926  -0.919
 -0.764  -0.756  -0.725  -0.720  -0.712  -0.702  -0.689  -0.668
 -0.649  -0.612  -0.595  -0.576  -0.546  -0.538  -0.538  -0.530
 -0.513  -0.506  -0.485  -0.476  -0.463  -0.452  -0.449  -0.444
 -0.435  -0.425  -0.420  -0.417  -0.411  -0.404  -0.398  -0.397
 -0.390  -0.380  -0.376  -0.364  -0.360  -0.354  -0.350  -0.341
 -0.338  -0.335  -0.331  -0.329  -0.326  -0.324  -0.318  -0.314
 -0.307  -0.306  -0.302  -0.300  -0.295  -0.281  -0.277  -0.270
 -0.265  -0.261  -0.248  -0.244  -0.238  -0.235  -0.227  -0.187
 -0.178  -0.165  -0.161  -0.160  -0.154  -0.146  -0.141  -0.138
 -0.136

          Ground-State Mulliken Net Atomic Charges

     Atom                 Charge (a.u.)
  ----------------------------------------
      1 O                    -0.219382
      2 C                     0.215758
      3 C                    -0.082180
      4 C                    -0.075849
      5 C                     0.216232
      6 O                    -0.166852
      7 C                    -0.052313
      8 C                    -0.048157
      9 O                    -0.172344
     10 C                     0.213762
     11 C                    -0.081714
     12 C                    -0.078482
     13 C                     0.214227
     14 O                    -0.207529
     15 O                    -0.176613
     16 O                    -0.169083
     17 O                    -0.217570
     18 C                    -0.128206
     19 C                     0.026501
     20 C                    -0.144323
     21 C                    -0.143621
     22 C                     0.025333
     23 O                    -0.187513
     24 H                     0.083599
     25 H                     0.087095
     26 H                     0.087063
     27 H                     0.078120
     28 H                     0.073876
     29 H                     0.078282
     30 H                     0.073835
     31 H                     0.085520
     32 O                    -0.210315
     33 C                    -0.128199
     34 C                     0.023161
     35 C                    -0.142895
     36 C                    -0.144800
     37 C                     0.022857
     38 O                    -0.192702
     39 H                     0.082412
     40 H                     0.086927
     41 H                     0.090584
     42 H                     0.088938
     43 H                     0.076819
     44 H                     0.072170
     45 H                     0.077810
     46 H                     0.072800
     47 H                     0.094509
     48 H                     0.086072
     49 H                     0.084686
     50 H                     0.092259
     51 H                     0.090963
     52 H                     0.091145
     53 H                     0.103869
     54 H                     0.089040
     55 H                     0.088420
     56 H                     0.095996
  ----------------------------------------
  Sum of atomic charges =    -0.000000

                    Cartesian Multipole Moments
 -----------------------------------------------------------------
    Charge (ESU x 10^10)
                 0.0000
    Dipole Moment (Debye)
         X       3.0776      Y      -0.8661      Z      -2.1300
       Tot       3.8417
    Quadrupole Moments (Debye-Ang)
        XX    -148.1973     XY      -1.8421     YY    -155.8612
        XZ       8.5984     YZ      -2.5694     ZZ    -154.4302

 Total job time:  46.44s(wall), 2201.18s(cpu)
        *  Thank you very much for using Q-Chem.  Have a nice day.  *
