 Q-Chem 5.0, Q-Chem, Inc., Pleasanton, CA (2017)
 Q-Chem 5.0.1 for Intel X86 EM64T Linux

User input:
--------------------------------------------------------------
$molecule
0  1
O -5.8874516521 1.0793573684 1.396768638
C -4.8832313102 0.8860657876 0.6756704365
C -4.7746343628 -0.2017011424 -0.4618623891
C -3.3549840386 -0.3801361948 -1.1260022783
C -2.457796298 0.9059332076 -1.2392947591
O -1.0973342549 0.4746557172 -1.1577195123
C -0.1565083444 1.6058089221 -1.3383385372
C 1.0987200092 1.0329855025 -2.0995104697
O 2.3668650601 0.8878026127 -1.3383245659
C 2.589954408 1.8421026177 -0.3093289632
C 3.6846263877 1.2802094525 0.6730702163
C 3.6643446848 -0.2769631438 0.9496724123
C 2.2995178969 -1.0487229207 0.8447972047
O 1.261357409 -0.8198213888 0.1893972453
O -3.6053187244 1.4654666079 0.9425309231
O 2.4372499122 -2.1991730966 1.6963679791
O 2.0321805084 2.9590496211 -0.2067142767
C 1.2047350173 -3.0185385051 1.6384105968
C 5.0807102127 1.3794216011 -0.0944650592
C 6.2707281783 0.9679105671 0.8645468287
C 6.1800728463 -0.6043392554 0.821348407
C 4.8456725643 -0.7878351201 -0.0008612344
O 4.9750966443 0.2489262608 -1.0469103805
H 3.6599365422 1.8756475364 1.6020336724
H 3.9843323802 -0.4386005085 1.9950294253
H 5.2292507193 2.3318767124 -0.6398829139
H 7.2311696147 1.3324761413 0.4675009728
H 6.1342879643 1.370726115 1.8812059848
H 7.0308669286 -1.0408692563 0.2735002181
H 6.1265486391 -1.0615591197 1.8221999977
H 4.6900759244 -1.7860462053 -0.4536926816
O -2.8133525232 2.0658743529 -1.5419494051
C -3.6882849137 2.3807682686 2.1019241906
C -4.8574517298 -1.5886317867 0.3204558011
C -4.8366635361 -2.8112547842 -0.6834458681
C -3.3011991615 -2.9169158646 -1.019293303
C -2.7663492962 -1.6142470499 -0.3100639109
O -3.5209048434 -1.6218859843 0.9662255804
H -5.5849475166 -0.0614442955 -1.1986533546
H -3.5132490663 -0.7008335292 -2.1739123687
H -4.0415100584 1.852402005 3.0110228593
H -5.6602027081 -1.620323205 1.0831094953
H -5.211565893 -3.7220972531 -0.1907543768
H -5.4510325829 -2.6172482594 -1.5777225785
H -2.852011506 -3.8143630194 -0.5638212764
H -3.0968109555 -2.9271407747 -2.1018080095
H -1.6746283549 -1.5613456909 -0.1302844516
H -4.3687466928 3.2331314483 1.9008422472
H -2.6616847741 2.7575526169 2.2636996703
H 1.3741856769 -3.8741192849 2.3175647308
H 1.0096022552 -3.3930491331 0.6126074683
H 0.3159752832 -2.4468961865 1.9759306195
H 0.859834401 0.0053481489 -2.4434597431
H 1.3002681234 1.6627738858 -2.9958010241
H 0.1305696567 2.03203488 -0.3562293666
H -0.6527815385 2.4054327676 -1.9288606301
$end

$rem
JOBTYPE                   OPT
METHOD                    B3LYP
DFT_D                     d3_op
BASIS                     STO-3G
GEOM_OPT_MAX_CYCLES       100
GEOM_OPT_TOL_GRADIENT     300
GEOM_OPT_TOL_DISPLACEMENT 1200
GEOM_OPT_TOL_ENERGY       100
SYMMETRY                  False
THRESH                    12
SCF_CONVERGENCE           8
MAX_SUB_FILE_NUM          128
MEM_STATIC                400
MEM_TOTAL                 4000
$end
--------------------------------------------------------------

   16   -1510.2574336843      5.52E-09 Convergence criterion met
 Total energy in the final basis set = -1510.25743368
   14   -1510.2612934412      1.58E-09 Convergence criterion met
 Total energy in the final basis set = -1510.26129344
   14   -1510.2645466760      4.56E-09 Convergence criterion met
 Total energy in the final basis set = -1510.26454668
   13   -1510.2681133622      7.49E-09 Convergence criterion met
 Total energy in the final basis set = -1510.26811336
   13   -1510.2711671379      9.87E-09 Convergence criterion met
 Total energy in the final basis set = -1510.27116714
   13   -1510.2747774753      9.22E-09 Convergence criterion met
 Total energy in the final basis set = -1510.27477748
   16   -1509.9162480422      4.08E-09 Convergence criterion met
 Total energy in the final basis set = -1509.91624804
   16   -1510.2736564925      3.06E-09 Convergence criterion met
   10   -1510.2985613951      6.56E-09 Convergence criterion met
 Total energy in the final basis set = -1510.29856140
   11   -1510.2985565039      4.80E-09 Convergence criterion met
 Total energy in the final basis set = -1510.29855650
   11   -1510.2985529128      4.03E-09 Convergence criterion met
 Total energy in the final basis set = -1510.29855291
   11   -1510.2985452928      6.13E-09 Convergence criterion met
 Total energy in the final basis set = -1510.29854529
   10   -1510.2985515875      9.94E-09 Convergence criterion met
 Total energy in the final basis set = -1510.29855159
    9   -1510.2985494595      4.58E-09 Convergence criterion met
 Total energy in the final basis set = -1510.29854946

             Standard Nuclear Orientation (Angstroms)
    I     Atom           X                Y                Z
 ----------------------------------------------------------------
    1      O      -4.7325712742     0.6472177710     1.6728865169
    2      C      -3.8164807649     0.2223065626     0.9384125187
    3      C      -3.9292396213    -0.7014312534    -0.3246926294
    4      C      -2.9920197591    -0.2250265356    -1.5179859188
    5      C      -2.3462286868     1.1841415392    -1.2395953798
    6      O      -0.9213666119     1.0829205649    -1.2329824632
    7      C      -0.3292919968     2.3878254416    -0.8464194609
    8      C       1.0515099835     2.5423170107    -1.5605948632
    9      O       2.0217500382     1.5320447582    -1.0812865615
   10      C       2.6825257343     1.9993695364     0.1039880115
   11      C       3.7337604218     0.9203304823     0.5504072447
   12      C       3.1301784880    -0.3164272771     1.3331883812
   13      C       1.5835887828    -0.2325534903     1.5941109127
   14      O       0.8521002745     0.7811246157     1.5029565206
   15      O      -2.4243963869     0.4900466110     1.1300823836
   16      O       1.1550980716    -1.5214036475     2.0084182777
   17      O       2.5147897807     3.1330817557     0.6047283480
   18      C      -0.3085750728    -1.5588412068     2.2506632584
   19      C       4.3882181803     0.1812048972    -0.6958710423
   20      C       5.6863731091    -0.5784636933    -0.2100874060
   21      C       5.0577669683    -1.8120855852     0.5378300658
   22      C       3.5168171865    -1.5155717027     0.3634642173
   23      O       3.4322772425    -0.9119189930    -0.9848466519
   24      H       4.4898521574     1.4402730270     1.1647196438
   25      H       3.6256883419    -0.4389686558     2.3142865956
   26      H       4.5241456850     0.8219296346    -1.5881299604
   27      H       6.2913406276    -0.8949756910    -1.0744989930
   28      H       6.3117181251     0.0458921935     0.4480289332
   29      H       5.3241734586    -2.7611041350     0.0459891469
   30      H       5.3544272680    -1.8664258101     1.5973837472
   31      H       2.8456751122    -2.3920965456     0.4469115152
   32      O      -2.9798549507     2.2554704302    -1.1001089325
   33      C      -2.1959586136     1.4559348915     2.2263792261
   34      C      -3.3133519246    -2.1352066492    -0.0283761091
   35      C      -3.6813420930    -3.1072630350    -1.2176048096
   36      C      -2.6715710100    -2.6329772929    -2.3291390799
   37      C      -1.9608645610    -1.4273466871    -1.6007216972
   38      O      -1.8608594678    -1.9126036658    -0.2026681230
   39      H      -4.9902925653    -0.7613068240    -0.6228469446
   40      H      -3.5786090866    -0.1447315462    -2.4516467686
   41      H      -2.6580112981     1.1153979701     3.1749105207
   42      H      -3.5261991468    -2.5275099625     0.9850729953
   43      H      -3.5038783305    -4.1553334130    -0.9287038907
   44      H      -4.7335640463    -2.9984035525    -1.5252422086
   45      H      -1.9397458625    -3.4208139540    -2.5689263900
   46      H      -3.1745432725    -2.3225921452    -3.2587574635
   47      H      -0.9606248759    -1.1481812368    -1.9829274749
   48      H      -2.6031053720     2.4546156807     1.9672452105
   49      H      -1.0936971659     1.5072456737     2.3275150468
   50      H      -0.5005729816    -2.5415408994     2.7193385200
   51      H      -0.8855600978    -1.4810472205     1.2934898964
   52      H      -0.6191020110    -0.7567154497     2.9471874839
   53      H       0.9439102522     2.3742138870    -2.6512372602
   54      H       1.4359689129     3.5677015426    -1.3685933127
   55      H      -0.1732632269     2.3966849636     0.2531523686
   56      H      -1.0249228989     3.2090797100    -1.1255134715
 ----------------------------------------------------------------

    9   -1510.2985487994      4.83E-09 Convergence criterion met
 Total energy in the final basis set = -1510.29854880
 Final energy is   -1510.29854879943
 **  OPTIMIZATION CONVERGED  **

                    Orbital Energies (a.u.)
 --------------------------------------------------------------

 Alpha MOs
 -- Occupied --
-18.934 -18.931 -18.925 -18.922 -18.903 -18.884 -18.877 -18.875
-18.861 -18.859 -10.100 -10.099 -10.095 -10.090 -10.068 -10.065
-10.063 -10.057 -10.056 -10.055 -10.055 -10.040 -10.038 -10.037
-10.034 -10.031 -10.025 -10.023 -10.018 -10.016  -1.014  -1.009
 -1.003  -0.997  -0.979  -0.966  -0.937  -0.934  -0.930  -0.923
 -0.767  -0.759  -0.727  -0.721  -0.713  -0.706  -0.691  -0.657
 -0.650  -0.611  -0.594  -0.574  -0.550  -0.542  -0.540  -0.534
 -0.515  -0.506  -0.485  -0.476  -0.463  -0.458  -0.441  -0.437
 -0.435  -0.430  -0.426  -0.412  -0.411  -0.408  -0.399  -0.394
 -0.386  -0.378  -0.370  -0.364  -0.359  -0.354  -0.348  -0.345
 -0.339  -0.337  -0.335  -0.329  -0.327  -0.324  -0.318  -0.313
 -0.309  -0.305  -0.301  -0.297  -0.295  -0.290  -0.278  -0.276
 -0.272  -0.254  -0.251  -0.246  -0.236  -0.233  -0.230  -0.177
 -0.171  -0.171  -0.160  -0.157  -0.153  -0.152  -0.143  -0.141
 -0.139

          Ground-State Mulliken Net Atomic Charges

     Atom                 Charge (a.u.)
  ----------------------------------------
      1 O                    -0.208342
      2 C                     0.211007
      3 C                    -0.078850
      4 C                    -0.077996
      5 C                     0.213855
      6 O                    -0.169985
      7 C                    -0.055526
      8 C                    -0.048637
      9 O                    -0.169145
     10 C                     0.212092
     11 C                    -0.081101
     12 C                    -0.078081
     13 C                     0.217981
     14 O                    -0.217814
     15 O                    -0.167902
     16 O                    -0.171802
     17 O                    -0.221024
     18 C                    -0.146911
     19 C                     0.027063
     20 C                    -0.144803
     21 C                    -0.143851
     22 C                     0.024646
     23 O                    -0.187116
     24 H                     0.082685
     25 H                     0.084303
     26 H                     0.083836
     27 H                     0.076883
     28 H                     0.072792
     29 H                     0.077125
     30 H                     0.072846
     31 H                     0.090279
     32 O                    -0.228475
     33 C                    -0.133969
     34 C                     0.026791
     35 C                    -0.143657
     36 C                    -0.143045
     37 C                     0.026837
     38 O                    -0.186870
     39 H                     0.086685
     40 H                     0.083782
     41 H                     0.086056
     42 H                     0.083562
     43 H                     0.079054
     44 H                     0.075795
     45 H                     0.079717
     46 H                     0.075081
     47 H                     0.099940
     48 H                     0.089690
     49 H                     0.106326
     50 H                     0.079432
     51 H                     0.121938
     52 H                     0.078429
     53 H                     0.088177
     54 H                     0.093877
     55 H                     0.101168
     56 H                     0.095171
  ----------------------------------------
  Sum of atomic charges =    -0.000000

                    Cartesian Multipole Moments
 -----------------------------------------------------------------
    Charge (ESU x 10^10)
                -0.0000
    Dipole Moment (Debye)
         X       1.0641      Y      -2.4511      Z      -0.6243
       Tot       2.7441
    Quadrupole Moments (Debye-Ang)
        XX    -154.9950     XY       8.4372     YY    -161.5176
        XZ       7.1502     YZ      -2.9724     ZZ    -153.6933

 Total job time:  145.27s(wall), 6925.99s(cpu)
        *  Thank you very much for using Q-Chem.  Have a nice day.  *
