 Q-Chem 5.0, Q-Chem, Inc., Pleasanton, CA (2017)
 Q-Chem 5.0.1 for Intel X86 EM64T Linux

User input:
--------------------------------------------------------------
$molecule
0  1
O -3.94934 -3.66094 2.70899
C -3.26408 -4.56952 2.26188
C -3.36658 -6.02376 2.66595
C -2.30308 -6.98436 2.10912
C -1.1535 -6.35382 1.35481
O -0.0272 -7.11109 1.50782
C 1.08766 -6.62055 0.75568
C 1.93985 -7.78407 0.25958
O 3.1809 -7.8244 0.98142
C 3.66227 -6.62125 1.38124
C 4.68767 -6.73483 2.48412
C 4.41814 -7.84864 3.5064
C 3.39722 -8.89032 3.0949
O 3.12626 -9.20134 1.94407
O -2.30857 -4.09964 1.4271
O 2.64816 -9.41213 4.1015
O 3.708 -5.6656 0.61439
C 1.6513 -10.34816 3.92045
C 6.07724 -7.14254 1.96082
C 7.14799 -6.71805 2.96445
C 6.88528 -7.70064 4.08686
C 5.78667 -8.55843 3.44822
O 6.0956 -8.5416 2.07583
H 4.75515 -5.73372 2.96708
H 4.1908 -7.4938 4.53623
H 6.30521 -6.73044 0.95339
H 8.13637 -6.95468 2.50897
H 7.12639 -5.64625 3.25716
H 7.80692 -8.30308 4.24762
H 6.5512 -7.25027 5.04658
H 5.75846 -9.56402 3.92488
O -1.39724 -5.86829 0.25349
C -2.1319 -2.78604 1.03094
C -3.16797 -6.18814 4.18294
C -3.83068 -7.47862 4.65562
C -2.88561 -8.50287 4.07273
C -1.82013 -7.58313 3.46343
O -1.80066 -6.47071 4.32036
H -4.39541 -6.34251 2.3857
H -2.72359 -7.78787 1.4639
H -1.92895 -2.14222 1.91338
H -3.54975 -5.32768 4.77548
H -3.74586 -7.50755 5.76568
H -4.89689 -7.59457 4.3644
H -2.4529 -9.09397 4.91081
H -3.32876 -9.18665 3.31679
H -0.87163 -8.15539 3.40141
H -3.03642 -2.42261 0.49758
H -1.26491 -2.72873 0.34148
H 1.2023 -10.59682 4.90362
H 2.07405 -11.27427 3.47509
H 0.85919 -9.94234 3.25594
H 1.40268 -8.75675 0.21732
H 2.24663 -7.57523 -0.7926
H 1.47129 -5.68167 1.20128
H 0.73226 -6.23506 -0.226
$end

$opt
CONSTRAINT
tors           1           2           3           4    -172.950
tors           3           4           5           6    +149.421
tors           4           5           6           7    +176.489
tors           5           6           7           8    -145.556
tors           6           7           8           9    -108.622
tors           7           8           9          10     -31.865
tors           8           9          10          11    +161.453
tors           9          10          11          12     -36.226
tors          11          12          13          14     +26.531
ENDCONSTRAINT
$end

$rem
JOBTYPE                   OPT
METHOD                    B3LYP
DFT_D                     d3_op
BASIS                     STO-3G
GEOM_OPT_MAX_CYCLES       100
GEOM_OPT_TOL_GRADIENT     300
GEOM_OPT_TOL_DISPLACEMENT 1200
GEOM_OPT_TOL_ENERGY       100
SYMMETRY                  False
THRESH                    12
SCF_CONVERGENCE           8
MAX_SUB_FILE_NUM          128
MEM_STATIC                400
MEM_TOTAL                 4000
$end
--------------------------------------------------------------

   16   -1509.9598694946      5.77E-09 Convergence criterion met
 Total energy in the final basis set = -1509.95986949
   14   -1510.0605281285      5.26E-09 Convergence criterion met
 Total energy in the final basis set = -1510.06052813
   14   -1510.1267455715      6.40E-09 Convergence criterion met
 Total energy in the final basis set = -1510.12674557
   14   -1510.1691577061      7.65E-09 Convergence criterion met
 Total energy in the final basis set = -1510.16915771
    2   -1510.1691577061      1.83E-09 Convergence criterion met
 Total energy in the final basis set = -1510.16915771
   14   -1510.1990185031      5.10E-09 Convergence criterion met
 Total energy in the final basis set = -1510.19901850
   14   -1510.2166156931      3.91E-09 Convergence criterion met
 Total energy in the final basis set = -1510.21661569
   13   -1510.2283191669      9.84E-09 Convergence criterion met
   12   -1510.2566872435      8.02E-09 Convergence criterion met
 Total energy in the final basis set = -1510.25668724
   12   -1510.2570427585      5.44E-09 Convergence criterion met
 Total energy in the final basis set = -1510.25704276
   12   -1510.2572589833      4.13E-09 Convergence criterion met
 Total energy in the final basis set = -1510.25725898
   12   -1510.2573826209      4.05E-09 Convergence criterion met
 Total energy in the final basis set = -1510.25738262
   11   -1510.2574393957      5.46E-09 Convergence criterion met
 Total energy in the final basis set = -1510.25743940
   11   -1510.2574591060      4.36E-09 Convergence criterion met
 Total energy in the final basis set = -1510.25745911

             Standard Nuclear Orientation (Angstroms)
    I     Atom           X                Y                Z
 ----------------------------------------------------------------
    1      O      -5.8874516521     1.0793573684     1.3967686380
    2      C      -4.8832313102     0.8860657876     0.6756704365
    3      C      -4.7746343628    -0.2017011424    -0.4618623891
    4      C      -3.3549840386    -0.3801361948    -1.1260022783
    5      C      -2.4577962980     0.9059332076    -1.2392947591
    6      O      -1.0973342549     0.4746557172    -1.1577195123
    7      C      -0.1565083444     1.6058089221    -1.3383385372
    8      C       1.0987200092     1.0329855025    -2.0995104697
    9      O       2.3668650601     0.8878026127    -1.3383245659
   10      C       2.5899544080     1.8421026177    -0.3093289632
   11      C       3.6846263877     1.2802094525     0.6730702163
   12      C       3.6643446848    -0.2769631438     0.9496724123
   13      C       2.2995178969    -1.0487229207     0.8447972047
   14      O       1.2613574090    -0.8198213888     0.1893972453
   15      O      -3.6053187244     1.4654666079     0.9425309231
   16      O       2.4372499122    -2.1991730966     1.6963679791
   17      O       2.0321805084     2.9590496211    -0.2067142767
   18      C       1.2047350173    -3.0185385051     1.6384105968
   19      C       5.0807102127     1.3794216011    -0.0944650592
   20      C       6.2707281783     0.9679105671     0.8645468287
   21      C       6.1800728463    -0.6043392554     0.8213484070
   22      C       4.8456725643    -0.7878351201    -0.0008612344
   23      O       4.9750966443     0.2489262608    -1.0469103805
   24      H       3.6599365422     1.8756475364     1.6020336724
   25      H       3.9843323802    -0.4386005085     1.9950294253
   26      H       5.2292507193     2.3318767124    -0.6398829139
   27      H       7.2311696147     1.3324761413     0.4675009728
   28      H       6.1342879643     1.3707261150     1.8812059848
   29      H       7.0308669286    -1.0408692563     0.2735002181
   30      H       6.1265486391    -1.0615591197     1.8221999977
   31      H       4.6900759244    -1.7860462053    -0.4536926816
   32      O      -2.8133525232     2.0658743529    -1.5419494051
   33      C      -3.6882849137     2.3807682686     2.1019241906
   34      C      -4.8574517298    -1.5886317867     0.3204558011
   35      C      -4.8366635361    -2.8112547842    -0.6834458681
   36      C      -3.3011991615    -2.9169158646    -1.0192933030
   37      C      -2.7663492962    -1.6142470499    -0.3100639109
   38      O      -3.5209048434    -1.6218859843     0.9662255804
   39      H      -5.5849475166    -0.0614442955    -1.1986533546
   40      H      -3.5132490663    -0.7008335292    -2.1739123687
   41      H      -4.0415100584     1.8524020050     3.0110228593
   42      H      -5.6602027081    -1.6203232050     1.0831094953
   43      H      -5.2115658930    -3.7220972531    -0.1907543768
   44      H      -5.4510325829    -2.6172482594    -1.5777225785
   45      H      -2.8520115060    -3.8143630194    -0.5638212764
   46      H      -3.0968109555    -2.9271407747    -2.1018080095
   47      H      -1.6746283549    -1.5613456909    -0.1302844516
   48      H      -4.3687466928     3.2331314483     1.9008422472
   49      H      -2.6616847741     2.7575526169     2.2636996703
   50      H       1.3741856769    -3.8741192849     2.3175647308
   51      H       1.0096022552    -3.3930491331     0.6126074683
   52      H       0.3159752832    -2.4468961865     1.9759306195
   53      H       0.8598344010     0.0053481489    -2.4434597431
   54      H       1.3002681234     1.6627738858    -2.9958010241
   55      H       0.1305696567     2.0320348800    -0.3562293666
   56      H      -0.6527815385     2.4054327676    -1.9288606301
 ----------------------------------------------------------------

   11   -1510.2574596432      5.08E-09 Convergence criterion met
 Total energy in the final basis set = -1510.25745964
 Final energy is   -1510.25745964321
 **  OPTIMIZATION CONVERGED  **

                    Orbital Energies (a.u.)
 --------------------------------------------------------------

 Alpha MOs
 -- Occupied --
-18.932 -18.931 -18.929 -18.922 -18.891 -18.882 -18.878 -18.870
-18.865 -18.861 -10.100 -10.099 -10.093 -10.093 -10.070 -10.064
-10.063 -10.062 -10.059 -10.059 -10.056 -10.052 -10.039 -10.038
-10.035 -10.031 -10.023 -10.021 -10.019 -10.017  -1.013  -1.008
 -1.005  -0.999  -0.973  -0.966  -0.937  -0.931  -0.930  -0.924
 -0.764  -0.759  -0.726  -0.720  -0.711  -0.705  -0.689  -0.663
 -0.657  -0.614  -0.597  -0.582  -0.546  -0.540  -0.539  -0.534
 -0.514  -0.509  -0.479  -0.478  -0.463  -0.458  -0.438  -0.436
 -0.433  -0.432  -0.416  -0.410  -0.409  -0.408  -0.404  -0.402
 -0.390  -0.380  -0.375  -0.365  -0.360  -0.354  -0.349  -0.345
 -0.340  -0.335  -0.333  -0.331  -0.328  -0.325  -0.315  -0.312
 -0.308  -0.307  -0.301  -0.300  -0.294  -0.291  -0.285  -0.274
 -0.267  -0.256  -0.246  -0.239  -0.236  -0.232  -0.230  -0.181
 -0.177  -0.172  -0.161  -0.150  -0.148  -0.147  -0.145  -0.141
 -0.137

          Ground-State Mulliken Net Atomic Charges

     Atom                 Charge (a.u.)
  ----------------------------------------
      1 O                    -0.218956
      2 C                     0.212917
      3 C                    -0.076125
      4 C                    -0.079328
      5 C                     0.218058
      6 O                    -0.173550
      7 C                    -0.053923
      8 C                    -0.042520
      9 O                    -0.164103
     10 C                     0.213727
     11 C                    -0.078597
     12 C                    -0.079728
     13 C                     0.207517
     14 O                    -0.208817
     15 O                    -0.164581
     16 O                    -0.173737
     17 O                    -0.218496
     18 C                    -0.129811
     19 C                     0.025066
     20 C                    -0.145488
     21 C                    -0.141208
     22 C                     0.028020
     23 O                    -0.185297
     24 H                     0.085407
     25 H                     0.085590
     26 H                     0.083088
     27 H                     0.078607
     28 H                     0.074176
     29 H                     0.077986
     30 H                     0.075049
     31 H                     0.084792
     32 O                    -0.219584
     33 C                    -0.125350
     34 C                     0.023449
     35 C                    -0.145922
     36 C                    -0.141709
     37 C                     0.021634
     38 O                    -0.194553
     39 H                     0.085913
     40 H                     0.080800
     41 H                     0.090431
     42 H                     0.085300
     43 H                     0.077487
     44 H                     0.073370
     45 H                     0.075386
     46 H                     0.072555
     47 H                     0.097273
     48 H                     0.090037
     49 H                     0.091523
     50 H                     0.089679
     51 H                     0.086839
     52 H                     0.090837
     53 H                     0.100345
     54 H                     0.082085
     55 H                     0.099530
     56 H                     0.096909
  ----------------------------------------
  Sum of atomic charges =    -0.000000

                    Cartesian Multipole Moments
 -----------------------------------------------------------------
    Charge (ESU x 10^10)
                -0.0000
    Dipole Moment (Debye)
         X       2.0601      Y      -2.3181      Z       0.3488
       Tot       3.1208
    Quadrupole Moments (Debye-Ang)
        XX    -158.8131     XY       7.2664     YY    -158.3276
        XZ      11.7238     YZ       4.1381     ZZ    -155.8316

 Total job time:  104.85s(wall), 4993.58s(cpu)
        *  Thank you very much for using Q-Chem.  Have a nice day.  *
