 Q-Chem 5.0, Q-Chem, Inc., Pleasanton, CA (2017)
 Q-Chem 5.0.1 for Intel X86 EM64T Linux

User input:
--------------------------------------------------------------
$molecule
0  1
O -3.94934 -3.66094 2.70899
C -3.26408 -4.56952 2.26188
C -3.36658 -6.02376 2.66595
C -2.05037 -6.77771 2.91696
C -0.78574 -5.94781 2.90933
O 0.26047 -6.69205 3.37514
C 1.5181 -6.31435 2.8051
C 2.6284 -7.21345 3.33893
O 3.49199 -6.46212 4.20645
C 3.13652 -5.1686 4.40542
C 4.0308 -4.45795 5.39331
C 3.30267 -3.52052 6.36764
C 1.79991 -3.696 6.45492
O 1.1637 -4.61518 5.96005
O -2.60584 -4.34142 1.09178
O 1.14407 -2.7983 7.2367
O 2.74503 -4.3652 3.57195
C -0.2153 -2.81919 7.46934
C 4.75046 -5.3695 6.42764
C 6.00311 -4.6656 6.9511
C 5.38397 -3.57404 7.79837
C 3.90546 -3.96416 7.70603
O 3.92126 -5.36321 7.56422
H 4.82415 -3.93735 4.80682
H 3.48067 -2.4559 6.09877
H 5.0383 -6.37053 6.04245
H 6.51659 -5.3872 7.62698
H 6.72381 -4.31784 6.18015
H 5.76316 -3.67864 8.8391
H 5.54919 -2.53733 7.43247
H 3.34052 -3.56843 8.57882
O -0.67335 -4.76022 2.64166
C -2.51212 -3.11132 0.47396
C -4.07196 -6.20923 4.02306
C -4.6329 -7.62656 4.13416
C -3.35944 -8.41706 4.3352
C -2.32832 -7.2854 4.35219
O -3.01676 -6.21456 4.95022
H -3.95786 -6.51616 1.86152
H -1.89194 -7.62011 2.20726
H -2.00484 -2.38521 1.14464
H -4.88297 -5.47152 4.20712
H -5.2347 -7.68288 5.06942
H -5.25902 -7.94274 3.27216
H -3.40144 -8.89929 5.33756
H -3.14338 -9.18124 3.5576
H -1.416 -7.62869 4.88617
H -3.52386 -2.73619 0.20969
H -1.9161 -3.21603 -0.45566
H -0.48313 -1.97545 8.13777
H -0.50496 -3.77199 7.96199
H -0.76887 -2.708 6.51232
H 2.22237 -8.10323 3.8672
H 3.27079 -7.57547 2.50332
H 1.56964 -5.40556 2.16717
H 1.39753 -6.84424 1.83084
$end

$opt
CONSTRAINT
tors           1           2           3           4    -135.797
tors           3           4           5           6    +169.282
tors           4           5           6           7    +149.836
tors           5           6           7           8    -178.294
tors           6           7           8           9    -110.446
tors           7           8           9          10      +2.062
tors           8           9          10          11    +176.336
tors           9          10          11          12    -139.535
tors          11          12          13          14     +10.111
ENDCONSTRAINT
$end

$rem
JOBTYPE                   OPT
METHOD                    B3LYP
DFT_D                     d3_op
BASIS                     STO-3G
GEOM_OPT_MAX_CYCLES       100
GEOM_OPT_TOL_GRADIENT     300
GEOM_OPT_TOL_DISPLACEMENT 1200
GEOM_OPT_TOL_ENERGY       100
SYMMETRY                  False
THRESH                    12
SCF_CONVERGENCE           8
MAX_SUB_FILE_NUM          128
MEM_STATIC                400
MEM_TOTAL                 4000
$end
--------------------------------------------------------------

   15   -1510.0528303949      9.30E-09 Convergence criterion met
 Total energy in the final basis set = -1510.05283039
   15   -1510.1308001581      2.51E-09 Convergence criterion met
 Total energy in the final basis set = -1510.13080016
   14   -1510.1783716015      6.92E-09 Convergence criterion met
 Total energy in the final basis set = -1510.17837160
   14   -1510.2068252142      6.57E-09 Convergence criterion met
 Total energy in the final basis set = -1510.20682521
   14   -1510.2236127661      3.77E-09 Convergence criterion met
 Total energy in the final basis set = -1510.22361277
   12   -1510.2350576916      9.86E-09 Convergence criterion met
 Total energy in the final basis set = -1510.23505769
   13   -1510.2436054682      4.50E-09 Convergence criterion met
 Total energy in the final basis set = -1510.24360547
   12   -1510.2501099544      6.56E-09 Convergence criterion met
   10   -1510.2608712121      7.62E-09 Convergence criterion met
 Total energy in the final basis set = -1510.26087121
   11   -1510.2608809481      1.90E-09 Convergence criterion met
 Total energy in the final basis set = -1510.26088095
   10   -1510.2608886133      8.65E-09 Convergence criterion met
 Total energy in the final basis set = -1510.26088861
    9   -1510.2609001435      8.80E-09 Convergence criterion met
 Total energy in the final basis set = -1510.26090014
    9   -1510.2609042596      5.43E-09 Convergence criterion met
 Total energy in the final basis set = -1510.26090426
    9   -1510.2609056726      3.47E-09 Convergence criterion met
 Total energy in the final basis set = -1510.26090567

             Standard Nuclear Orientation (Angstroms)
    I     Atom           X                Y                Z
 ----------------------------------------------------------------
    1      O       4.9798334531    -0.9623372939    -2.0508877595
    2      C       4.7202856547     0.0592097956    -1.3800929382
    3      C       4.6755308805     0.1800693745     0.1865917355
    4      C       3.4439800890     0.9828280985     0.7512530103
    5      C       2.2381902278     0.9526327767    -0.2599855065
    6      O       1.0741055731     1.4702138645     0.3907986650
    7      C       0.1761044314     2.1295411863    -0.5935849226
    8      C      -1.0378296579     2.6952393353     0.2328409899
    9      O      -2.3848134641     2.0724989579     0.0784044405
   10      C      -2.5320967668     0.9496056831    -0.7820448205
   11      C      -4.0269381086     0.4506496830    -0.6743021472
   12      C      -4.1472135228    -1.1228420786    -0.6516298224
   13      C      -2.8241526293    -1.7737154691    -0.1112782607
   14      O      -1.8649069845    -1.1722250113     0.4231623955
   15      O       4.7196316993     1.3954858660    -1.9167560671
   16      O      -2.8937581655    -3.1878829896    -0.2860845597
   17      O      -1.7406584044     0.5534866957    -1.6753557490
   18      C      -1.6704902022    -3.8257558635     0.2572406000
   19      C      -4.8526154598     0.8494885832     0.6223338871
   20      C      -6.3765394737     0.8498525246     0.2134996727
   21      C      -6.6234794760    -0.6919819925     0.0078943886
   22      C      -5.2433348555    -1.2967079068     0.4874269051
   23      O      -4.7579967285    -0.3360561644     1.5079000049
   24      H      -4.5374964416     0.8436474964    -1.5736708150
   25      H      -4.4380242214    -1.5666013739    -1.6195165022
   26      H      -4.4829186483     1.7562485694     1.1376561036
   27      H      -6.9930902209     1.2480946846     1.0352500224
   28      H      -6.5710187707     1.4404953212    -0.6960126956
   29      H      -7.4482839339    -1.0613859485     0.6375003659
   30      H      -6.8392739601    -0.9485214164    -1.0418392708
   31      H      -5.2973300081    -2.3198949816     0.9080627455
   32      O       2.2678902137     0.5354684285    -1.4400948857
   33      C       4.7671680993     1.3388210312    -3.3930638034
   34      C       4.5460045323    -1.1921297775     0.9709836626
   35      C       5.2190636681    -0.9828721415     2.3818130014
   36      C       4.1925001409     0.0094160793     3.0476427658
   37      C       3.0391731285     0.0410363029     1.9665682314
   38      O       3.1075660315    -1.2933454230     1.3191147889
   39      H       5.6124003640     0.6907586854     0.4776839462
   40      H       3.6781948369     2.0227547547     1.0395241492
   41      H       3.8431694350     0.8844208127    -3.8065520219
   42      H       4.8753987080    -2.0800222600     0.3967210165
   43      H       5.2632783190    -1.9383402394     2.9288607363
   44      H       6.2365379312    -0.5664039372     2.3109418023
   45      H       3.8147385817    -0.3770271227     4.0074278347
   46      H       4.6207962946     1.0106770289     3.2156511383
   47      H       2.0216209788     0.2320202680     2.3594781606
   48      H       5.6390349557     0.7565043909    -3.7553887379
   49      H       4.8490896595     2.3854901237    -3.7398937484
   50      H      -1.7679780298    -4.9052935752     0.0401432218
   51      H      -1.5859691207    -3.6729881401     1.3526793446
   52      H      -0.7549391708    -3.4278417756    -0.2257654077
   53      H      -0.7862110541     2.6205231112     1.3144758874
   54      H      -1.1866763942     3.7705996481    -0.0064659180
   55      H      -0.2357472841     1.4064731693    -1.3406335932
   56      H       0.7098705404     2.9622114939    -1.0979498537
 ----------------------------------------------------------------

    9   -1510.2609056781      2.76E-09 Convergence criterion met
 Total energy in the final basis set = -1510.26090568
 Final energy is   -1510.26090567810
 **  OPTIMIZATION CONVERGED  **

                    Orbital Energies (a.u.)
 --------------------------------------------------------------

 Alpha MOs
 -- Occupied --
-18.937 -18.936 -18.920 -18.911 -18.886 -18.880 -18.879 -18.877
-18.872 -18.855 -10.108 -10.099 -10.096 -10.085 -10.074 -10.061
-10.060 -10.057 -10.053 -10.052 -10.051 -10.049 -10.038 -10.034
-10.032 -10.026 -10.021 -10.019 -10.016 -10.014  -1.014  -1.008
 -1.004  -0.990  -0.970  -0.963  -0.941  -0.934  -0.932  -0.918
 -0.763  -0.756  -0.725  -0.720  -0.713  -0.700  -0.691  -0.660
 -0.648  -0.613  -0.593  -0.579  -0.546  -0.539  -0.537  -0.531
 -0.512  -0.504  -0.479  -0.472  -0.458  -0.450  -0.449  -0.446
 -0.434  -0.427  -0.424  -0.409  -0.407  -0.403  -0.398  -0.395
 -0.388  -0.381  -0.368  -0.366  -0.360  -0.359  -0.353  -0.343
 -0.340  -0.333  -0.330  -0.326  -0.324  -0.322  -0.316  -0.311
 -0.307  -0.303  -0.302  -0.296  -0.294  -0.287  -0.275  -0.271
 -0.267  -0.254  -0.245  -0.241  -0.237  -0.234  -0.227  -0.180
 -0.176  -0.171  -0.159  -0.153  -0.148  -0.146  -0.139  -0.137
 -0.135

          Ground-State Mulliken Net Atomic Charges

     Atom                 Charge (a.u.)
  ----------------------------------------
      1 O                    -0.220050
      2 C                     0.216713
      3 C                    -0.081749
      4 C                    -0.076346
      5 C                     0.220195
      6 O                    -0.180065
      7 C                    -0.071087
      8 C                    -0.048782
      9 O                    -0.172256
     10 C                     0.227231
     11 C                    -0.079194
     12 C                    -0.077045
     13 C                     0.216306
     14 O                    -0.206323
     15 O                    -0.178783
     16 O                    -0.169244
     17 O                    -0.217887
     18 C                    -0.128435
     19 C                     0.022855
     20 C                    -0.142329
     21 C                    -0.145007
     22 C                     0.024063
     23 O                    -0.191838
     24 H                     0.082680
     25 H                     0.088584
     26 H                     0.092712
     27 H                     0.077664
     28 H                     0.072895
     29 H                     0.078159
     30 H                     0.073995
     31 H                     0.084495
     32 O                    -0.199003
     33 C                    -0.128564
     34 C                     0.022655
     35 C                    -0.141978
     36 C                    -0.145531
     37 C                     0.023124
     38 O                    -0.192337
     39 H                     0.081605
     40 H                     0.085167
     41 H                     0.090602
     42 H                     0.089955
     43 H                     0.076898
     44 H                     0.072332
     45 H                     0.077142
     46 H                     0.072263
     47 H                     0.088706
     48 H                     0.086223
     49 H                     0.084041
     50 H                     0.091016
     51 H                     0.090162
     52 H                     0.096328
     53 H                     0.095817
     54 H                     0.084996
     55 H                     0.128927
     56 H                     0.077330
  ----------------------------------------
  Sum of atomic charges =     0.000000

                    Cartesian Multipole Moments
 -----------------------------------------------------------------
    Charge (ESU x 10^10)
                 0.0000
    Dipole Moment (Debye)
         X      -1.6049      Y       2.1057      Z       0.8716
       Tot       2.7874
    Quadrupole Moments (Debye-Ang)
        XX    -143.0301     XY       6.5880     YY    -150.0154
        XZ      11.7745     YZ      -3.8746     ZZ    -160.2723

 Total job time:  68.59s(wall), 3265.43s(cpu)
        *  Thank you very much for using Q-Chem.  Have a nice day.  *
