 Q-Chem 5.0, Q-Chem, Inc., Pleasanton, CA (2017)
 Q-Chem 5.0.1 for Intel X86 EM64T Linux

User input:
--------------------------------------------------------------
$molecule
0  1
O 4.9798334531 -0.9623372939 -2.0508877595
C 4.7202856547 0.0592097956 -1.3800929382
C 4.6755308805 0.1800693745 0.1865917355
C 3.443980089 0.9828280985 0.7512530103
C 2.2381902278 0.9526327767 -0.2599855065
O 1.0741055731 1.4702138645 0.390798665
C 0.1761044314 2.1295411863 -0.5935849226
C -1.0378296579 2.6952393353 0.2328409899
O -2.3848134641 2.0724989579 0.0784044405
C -2.5320967668 0.9496056831 -0.7820448205
C -4.0269381086 0.450649683 -0.6743021472
C -4.1472135228 -1.1228420786 -0.6516298224
C -2.8241526293 -1.7737154691 -0.1112782607
O -1.8649069845 -1.1722250113 0.4231623955
O 4.7196316993 1.395485866 -1.9167560671
O -2.8937581655 -3.1878829896 -0.2860845597
O -1.7406584044 0.5534866957 -1.675355749
C -1.6704902022 -3.8257558635 0.2572406
C -4.8526154598 0.8494885832 0.6223338871
C -6.3765394737 0.8498525246 0.2134996727
C -6.623479476 -0.6919819925 0.0078943886
C -5.2433348555 -1.2967079068 0.4874269051
O -4.7579967285 -0.3360561644 1.5079000049
H -4.5374964416 0.8436474964 -1.573670815
H -4.4380242214 -1.5666013739 -1.6195165022
H -4.4829186483 1.7562485694 1.1376561036
H -6.9930902209 1.2480946846 1.0352500224
H -6.5710187707 1.4404953212 -0.6960126956
H -7.4482839339 -1.0613859485 0.6375003659
H -6.8392739601 -0.9485214164 -1.0418392708
H -5.2973300081 -2.3198949816 0.9080627455
O 2.2678902137 0.5354684285 -1.4400948857
C 4.7671680993 1.3388210312 -3.3930638034
C 4.5460045323 -1.1921297775 0.9709836626
C 5.2190636681 -0.9828721415 2.3818130014
C 4.1925001409 0.0094160793 3.0476427658
C 3.0391731285 0.0410363029 1.9665682314
O 3.1075660315 -1.293345423 1.3191147889
H 5.612400364 0.6907586854 0.4776839462
H 3.6781948369 2.0227547547 1.0395241492
H 3.843169435 0.8844208127 -3.8065520219
H 4.875398708 -2.08002226 0.3967210165
H 5.263278319 -1.9383402394 2.9288607363
H 6.2365379312 -0.5664039372 2.3109418023
H 3.8147385817 -0.3770271227 4.0074278347
H 4.6207962946 1.0106770289 3.2156511383
H 2.0216209788 0.232020268 2.3594781606
H 5.6390349557 0.7565043909 -3.7553887379
H 4.8490896595 2.3854901237 -3.7398937484
H -1.7679780298 -4.9052935752 0.0401432218
H -1.5859691207 -3.6729881401 1.3526793446
H -0.7549391708 -3.4278417756 -0.2257654077
H -0.7862110541 2.6205231112 1.3144758874
H -1.1866763942 3.7705996481 -0.006465918
H -0.2357472841 1.4064731693 -1.3406335932
H 0.7098705404 2.9622114939 -1.0979498537
$end

$rem
JOBTYPE                   OPT
METHOD                    B3LYP
DFT_D                     d3_op
BASIS                     STO-3G
GEOM_OPT_MAX_CYCLES       100
GEOM_OPT_TOL_GRADIENT     300
GEOM_OPT_TOL_DISPLACEMENT 1200
GEOM_OPT_TOL_ENERGY       100
SYMMETRY                  False
THRESH                    12
SCF_CONVERGENCE           8
MAX_SUB_FILE_NUM          128
MEM_STATIC                400
MEM_TOTAL                 4000
$end
--------------------------------------------------------------

   16   -1510.2611001394      7.34E-09 Convergence criterion met
 Total energy in the final basis set = -1510.26110014
   14   -1510.2659126754      2.49E-09 Convergence criterion met
 Total energy in the final basis set = -1510.26591268
   14   -1510.2709999041      2.79E-09 Convergence criterion met
 Total energy in the final basis set = -1510.27099990
   14   -1510.2628328991      4.13E-09 Convergence criterion met
 Total energy in the final basis set = -1510.26283290
   14   -1510.2034987499      5.11E-09 Convergence criterion met
 Total energy in the final basis set = -1510.20349875
   14   -1510.2695184083      6.81E-09 Convergence criterion met
 Total energy in the final basis set = -1510.26951841
   14   -1510.2664145977      8.07E-09 Convergence criterion met
 Total energy in the final basis set = -1510.26641460
   13   -1510.2729550272      8.82E-09 Convergence criterion met
   12   -1510.2932382760      2.88E-09 Convergence criterion met
 Total energy in the final basis set = -1510.29323828
   12   -1510.2932540298      3.23E-09 Convergence criterion met
 Total energy in the final basis set = -1510.29325403
   12   -1510.2932688774      2.85E-09 Convergence criterion met
 Total energy in the final basis set = -1510.29326888
   12   -1510.2932638211      2.33E-09 Convergence criterion met
 Total energy in the final basis set = -1510.29326382
   11   -1510.2932774984      2.93E-09 Convergence criterion met
 Total energy in the final basis set = -1510.29327750
   10   -1510.2932775135      8.41E-09 Convergence criterion met
 Total energy in the final basis set = -1510.29327751

             Standard Nuclear Orientation (Angstroms)
    I     Atom           X                Y                Z
 ----------------------------------------------------------------
    1      O      -4.1571185340     0.4303590571     2.3767378499
    2      C      -4.3737525111     0.5470371544     1.1520976566
    3      C      -3.9628024057    -0.4589609285     0.0120231970
    4      C      -2.8065642783     0.0586080228    -0.9388402344
    5      C      -2.1432677853     1.3764912554    -0.4116473665
    6      O      -1.0346134232     1.6969827780    -1.2489372203
    7      C      -0.3176341537     2.8693455064    -0.6928083162
    8      C       1.0703034470     3.0074011408    -1.4078354070
    9      O       2.0409259918     1.9085270803    -1.1853080303
   10      C       2.3787621456     1.7673068940     0.2022268850
   11      C       3.6691046693     0.8754363660     0.3570500858
   12      C       3.4251859177    -0.6687252694     0.5990230383
   13      C       1.9257407922    -1.1067910352     0.4808726885
   14      O       0.9788643600    -0.4157883808     0.0399451368
   15      O      -5.2013097936     1.5613429116     0.5608815138
   16      O       1.8523943755    -2.4481720910     0.9463785303
   17      O       1.8132642815     2.3719602366     1.1413496150
   18      C       0.5219906361    -3.0698756612     0.7309139415
   19      C       4.5741171399     0.8368168430    -0.9475865062
   20      C       6.0294553717     0.3960767748    -0.5198218378
   21      C       5.8129582545    -1.1386284722    -0.2479395516
   22      C       4.2785876757    -1.2953010141    -0.5911832354
   23      O       4.0652334214    -0.3356005417    -1.6964805215
   24      H       4.2253707471     1.3004626778     1.2115024433
   25      H       3.8107587630    -0.9956961030     1.5810341405
   26      H       4.5152136178     1.7481740263    -1.5723501041
   27      H       6.7409289852     0.5633927403    -1.3440487361
   28      H       6.3835288622     0.9415226888     0.3694010835
   29      H       6.4227931814    -1.7597512189    -0.9233245020
   30      H       6.0352482758    -1.4248609191     0.7924372472
   31      H       3.9627402646    -2.3145869420    -0.8878112141
   32      O      -2.4757047964     2.0331948925     0.6013869927
   33      C      -5.5584833976     2.5673353466     1.5843119297
   34      C      -3.3040311546    -1.7760267163     0.6020133339
   35      C      -3.3910636353    -2.9083766907    -0.4924582369
   36      C      -2.3228614894    -2.4039471680    -1.5347890270
   37      C      -1.7608088487    -1.1194332279    -0.8113947267
   38      O      -1.8584294426    -1.4456409948     0.6329066625
   39      H      -4.8671128445    -0.6926416169    -0.5780797612
   40      H      -3.1490092492     0.2056014919    -1.9789391562
   41      H      -4.6550793335     3.0830287365     1.9698004951
   42      H      -3.6597653036    -2.0463844559     1.6152401626
   43      H      -3.1054364653    -3.8821542028    -0.0631229341
   44      H      -4.4013218280    -2.9936891247    -0.9232967132
   45      H      -1.5242484754    -3.1463527409    -1.6888860867
   46      H      -2.7682432324    -2.1587857397    -2.5120399375
   47      H      -0.7130253961    -0.8305815841    -1.0347690102
   48      H      -6.0962131286     2.1097968189     2.4401284503
   49      H      -6.2170383941     3.2992845859     1.0814201884
   50      H       0.4653638330    -3.9091661095     1.4483650303
   51      H       0.4700972728    -3.4817018498    -0.2981895383
   52      H      -0.3450322782    -2.3753849371     0.8818755547
   53      H       0.9272993941     3.0363897193    -2.5072866026
   54      H       1.5115455758     3.9755614532    -1.0800841525
   55      H      -0.1486751044     2.7549077316     0.3988448393
   56      H      -0.9011911206     3.8002482962    -0.8716174302
 ----------------------------------------------------------------

    9   -1510.2932782572      5.52E-09 Convergence criterion met
 Total energy in the final basis set = -1510.29327826
 Final energy is   -1510.29327825725
 **  OPTIMIZATION CONVERGED  **

                    Orbital Energies (a.u.)
 --------------------------------------------------------------

 Alpha MOs
 -- Occupied --
-18.934 -18.931 -18.928 -18.914 -18.895 -18.886 -18.877 -18.877
-18.866 -18.855 -10.100 -10.099 -10.096 -10.086 -10.073 -10.064
-10.059 -10.058 -10.057 -10.051 -10.049 -10.038 -10.036 -10.035
-10.033 -10.030 -10.020 -10.020 -10.019 -10.018  -1.013  -1.008
 -1.001  -0.992  -0.973  -0.969  -0.937  -0.935  -0.929  -0.919
 -0.762  -0.760  -0.726  -0.720  -0.714  -0.703  -0.694  -0.654
 -0.649  -0.611  -0.594  -0.576  -0.545  -0.541  -0.536  -0.536
 -0.512  -0.507  -0.478  -0.471  -0.458  -0.454  -0.451  -0.437
 -0.432  -0.432  -0.427  -0.411  -0.403  -0.400  -0.398  -0.394
 -0.392  -0.373  -0.371  -0.364  -0.358  -0.354  -0.349  -0.343
 -0.339  -0.334  -0.331  -0.329  -0.327  -0.325  -0.322  -0.311
 -0.309  -0.304  -0.300  -0.297  -0.295  -0.279  -0.274  -0.272
 -0.269  -0.254  -0.251  -0.242  -0.239  -0.233  -0.228  -0.176
 -0.174  -0.169  -0.159  -0.154  -0.151  -0.147  -0.145  -0.140
 -0.136

          Ground-State Mulliken Net Atomic Charges

     Atom                 Charge (a.u.)
  ----------------------------------------
      1 O                    -0.218568
      2 C                     0.216728
      3 C                    -0.081015
      4 C                    -0.076694
      5 C                     0.219044
      6 O                    -0.168408
      7 C                    -0.052954
      8 C                    -0.044890
      9 O                    -0.165261
     10 C                     0.215905
     11 C                    -0.081138
     12 C                    -0.078099
     13 C                     0.217348
     14 O                    -0.210987
     15 O                    -0.177025
     16 O                    -0.172163
     17 O                    -0.220075
     18 C                    -0.150490
     19 C                     0.025840
     20 C                    -0.144265
     21 C                    -0.143838
     22 C                     0.025317
     23 O                    -0.188606
     24 H                     0.083738
     25 H                     0.087377
     26 H                     0.086212
     27 H                     0.077194
     28 H                     0.073215
     29 H                     0.077628
     30 H                     0.074285
     31 H                     0.084092
     32 O                    -0.207043
     33 C                    -0.128317
     34 C                     0.025722
     35 C                    -0.144302
     36 C                    -0.145759
     37 C                     0.018377
     38 O                    -0.190086
     39 H                     0.082952
     40 H                     0.086398
     41 H                     0.092559
     42 H                     0.090694
     43 H                     0.076467
     44 H                     0.074554
     45 H                     0.075644
     46 H                     0.074817
     47 H                     0.110432
     48 H                     0.085529
     49 H                     0.084800
     50 H                     0.081375
     51 H                     0.071156
     52 H                     0.121842
     53 H                     0.092303
     54 H                     0.083922
     55 H                     0.113552
     56 H                     0.082962
  ----------------------------------------
  Sum of atomic charges =    -0.000000

                    Cartesian Multipole Moments
 -----------------------------------------------------------------
    Charge (ESU x 10^10)
                -0.0000
    Dipole Moment (Debye)
         X       0.9073      Y      -0.6361      Z      -2.0382
       Tot       2.3199
    Quadrupole Moments (Debye-Ang)
        XX    -142.9012     XY       3.8037     YY    -147.4771
        XZ       8.1984     YZ      -3.1484     ZZ    -166.7977

 Total job time:  115.25s(wall), 5497.94s(cpu)
        *  Thank you very much for using Q-Chem.  Have a nice day.  *
