 Q-Chem 5.0, Q-Chem, Inc., Pleasanton, CA (2017)
 Q-Chem 5.0.1 for Intel X86 EM64T Linux

User input:
--------------------------------------------------------------
$molecule
0  1
O -6.4105481794 0.8243944117 1.3318355962
C -5.4086299305 0.8810765648 0.5845695157
C -5.0862775929 -0.1466125714 -0.5729479389
C -3.5639127328 -0.3386412391 -0.9603323852
C -2.6142853102 0.9060386792 -0.8278379649
O -1.4143558911 0.5039638491 -0.1562675605
C -0.469658818 1.6432066972 -0.0531969736
C 0.9351609471 1.197240609 -0.6248673851
O 2.0568900125 1.4259150864 0.3121765134
C 2.2167527973 0.3315137307 1.2373916358
C 3.7193742917 -0.1490376333 1.3351016536
C 4.4257791484 -0.62721665 0.00650623
C 3.5371373522 -1.2699353043 -1.1076262225
O 2.3230920071 -1.1303624362 -1.3717239995
O -4.3636473531 1.8374167909 0.7481741222
O 4.4007365329 -2.1178981648 -1.8750795621
O 1.2692025978 -0.2010277427 1.8577221691
C 3.6453156754 -2.7452386582 -2.9845136289
C 4.6111671077 1.1432394078 1.6268855626
C 6.115705148 0.7310914448 1.8966053999
C 6.6509272094 0.5130666487 0.430899815
C 5.3052524739 0.649900954 -0.3832924929
O 4.6491640801 1.7881236865 0.2912653675
H 3.7829870777 -0.9125130962 2.1300756479
H 5.1282142032 -1.4363918834 0.2789416468
H 4.1755247605 1.8344340322 2.374158768
H 6.6543398404 1.5423590901 2.4111084888
H 6.1846898101 -0.1813959785 2.5105210307
H 7.3536928015 1.3101303038 0.1385276699
H 7.140772286 -0.4635968225 0.2896193156
H 5.4128666918 0.8393967822 -1.4688816647
O -2.7694259779 2.0222855805 -1.3723950726
C -4.6570004923 2.7254832555 1.8958536593
C -5.3667725931 -1.5728931571 0.0685876465
C -5.1859520662 -2.7250159997 -0.9977508412
C -3.6182307378 -2.8752546789 -1.0376832855
C -3.1930588984 -1.6509896141 -0.138797258
O -4.1858502904 -1.7068065666 0.9599784494
H -5.7154796125 0.077704053 -1.4537585298
H -3.5334970264 -0.5853487681 -2.0396147138
H -4.7485413128 2.1515710277 2.8405717668
H -6.3039928476 -1.6086610292 0.6576039919
H -5.6760616341 -3.6498470971 -0.6550677516
H -5.6094778318 -2.4460713145 -1.9761421568
H -3.2953786718 -3.8216039663 -0.5746816701
H -3.2067815642 -2.8182169862 -2.058110654
H -2.1598350854 -1.6641531157 0.2582746491
H -5.5926929651 3.2998291379 1.7384554203
H -3.8011720595 3.4219744347 1.9634065252
H 4.3721308867 -3.3757509035 -3.5287309376
H 3.2241727757 -1.9847257956 -3.6733968885
H 2.8149264008 -3.376050401 -2.6069561166
H 0.9179327902 0.1310325276 -0.9363348459
H 1.1883881179 1.8170158588 -1.5091676709
H -0.3690740633 1.9212188578 1.0174199014
H -0.8979166227 2.4978857216 -0.6205282407
$end

$rem
JOBTYPE                   OPT
METHOD                    B3LYP
DFT_D                     d3_op
BASIS                     STO-3G
GEOM_OPT_MAX_CYCLES       100
GEOM_OPT_TOL_GRADIENT     300
GEOM_OPT_TOL_DISPLACEMENT 1200
GEOM_OPT_TOL_ENERGY       100
SYMMETRY                  False
THRESH                    12
SCF_CONVERGENCE           8
MAX_SUB_FILE_NUM          128
MEM_STATIC                400
MEM_TOTAL                 4000
$end
--------------------------------------------------------------

   16   -1510.2527282295      6.24E-09 Convergence criterion met
 Total energy in the final basis set = -1510.25272823
   14   -1510.2569375874      2.83E-09 Convergence criterion met
 Total energy in the final basis set = -1510.25693759
   13   -1510.2628364851      9.05E-09 Convergence criterion met
 Total energy in the final basis set = -1510.26283649
   14   -1510.2677215867      2.86E-09 Convergence criterion met
 Total energy in the final basis set = -1510.26772159
   14   -1510.2711674915      3.59E-09 Convergence criterion met
 Total energy in the final basis set = -1510.27116749
   13   -1510.2733284131      6.53E-09 Convergence criterion met
 Total energy in the final basis set = -1510.27332841
   13   -1510.2749334957      5.91E-09 Convergence criterion met
 Total energy in the final basis set = -1510.27493350
   13   -1510.2763222287      3.54E-09 Convergence criterion met
   12   -1510.3005429268      6.51E-09 Convergence criterion met
 Total energy in the final basis set = -1510.30054293
   12   -1510.3005568438      4.87E-09 Convergence criterion met
 Total energy in the final basis set = -1510.30055684
   12   -1510.3005607816      3.12E-09 Convergence criterion met
 Total energy in the final basis set = -1510.30056078
   11   -1510.3005867550      8.92E-09 Convergence criterion met
 Total energy in the final basis set = -1510.30058675
   10   -1510.3005875107      5.71E-09 Convergence criterion met
 Total energy in the final basis set = -1510.30058751
   10   -1510.3005885541      4.65E-09 Convergence criterion met
 Total energy in the final basis set = -1510.30058855

             Standard Nuclear Orientation (Angstroms)
    I     Atom           X                Y                Z
 ----------------------------------------------------------------
    1      O      -1.2096985454     2.1891719630     0.7633001066
    2      C      -2.3184068533     1.7408213955     0.3945597609
    3      C      -3.0558774923     0.4592483150     0.9276960443
    4      C      -3.0738172808    -0.7516103310    -0.1003135218
    5      C      -2.5752901600    -0.4341013874    -1.5453655383
    6      O      -1.3827357320     0.3544581074    -1.4665275073
    7      C      -0.8170782206     0.5993824732    -2.8155064185
    8      C       0.4342689694    -0.3321124777    -3.0032941376
    9      O       1.2891693368    -0.2068022246    -1.8035574053
   10      C       0.9690517736    -1.2519930625    -0.8697192055
   11      C       1.6375959584    -0.9244333550     0.5100441938
   12      C       3.2185651196    -0.9895834531     0.5157133882
   13      C       3.8178130708    -1.5172158082    -0.8304405746
   14      O       3.2100321404    -2.1310939998    -1.7362008182
   15      O      -3.1641243963     2.3792375643    -0.5679549953
   16      O       5.2152087553    -1.2166851305    -0.8701094486
   17      O       0.2008785132    -2.2077670134    -1.1254130056
   18      C       5.8034809502    -1.7137948595    -2.1354668257
   19      C       1.4034334724     0.5978068933     0.9037527893
   20      C       1.7742120652     0.7768884023     2.4292771753
   21      C       3.3470444653     0.7637778059     2.3750223203
   22      C       3.5878915960     0.5253826147     0.8330389018
   23      O       2.5008052925     1.2966085038     0.1930472374
   24      H       1.1965427271    -1.6095838784     1.2539359438
   25      H       3.5817470888    -1.6515828210     1.3238568345
   26      H       0.4095053838     1.0171486127     0.6315682531
   27      H       1.3883215300     1.7379682851     2.8044766255
   28      H       1.3615093943    -0.0348408368     3.0491318737
   29      H       3.7707958244     1.7331121238     2.6827174524
   30      H       3.7926027197    -0.0297686121     2.9959083948
   31      H       4.5774002417     0.8380823144     0.4466619645
   32      O      -3.0933609911    -0.8146709796    -2.6181224437
   33      C      -2.4955341025     3.5861081385    -1.1052742424
   34      C      -2.2324438472    -0.1769277493     2.1193878691
   35      C      -3.1019019194    -1.2989084678     2.8149556909
   36      C      -2.9656900875    -2.4822657386     1.7826686602
   37      C      -2.1175622001    -1.7911339928     0.6480749106
   38      O      -1.1817625797    -0.9340442182     1.4052546893
   39      H      -4.0844051225     0.7396701315     1.2186056801
   40      H      -4.0932797879    -1.1642046683    -0.1967900811
   41      H      -1.4620156528     3.3642661093    -1.4384702830
   42      H      -1.7747995687     0.5678209390     2.7988359168
   43      H      -2.6769703358    -1.5651676585     3.7956511917
   44      H      -4.1469603845    -0.9808866663     2.9584509984
   45      H      -2.4100569230    -3.3303534270     2.2140921924
   46      H      -3.9396017350    -2.8455845701     1.4177723689
   47      H      -1.5314059103    -2.4497577147    -0.0277455894
   48      H      -2.4532301782     4.3959524874    -0.3480051444
   49      H      -3.1051937335     3.9186581775    -1.9654711433
   50      H       6.8752596110    -1.4452193448    -2.0997662041
   51      H       5.3301904735    -1.2381777851    -3.0187438069
   52      H       5.6988166980    -2.8140595102    -2.2304074672
   53      H       0.1073214905    -1.3874023287    -3.1211343560
   54      H       1.0293451871    -0.0100321150    -3.8814739279
   55      H      -0.5143545854     1.6651441738    -2.8496379445
   56      H      -1.5880274717     0.3859854771    -3.5872941824
 ----------------------------------------------------------------

   10   -1510.3005891861      4.49E-09 Convergence criterion met
 Total energy in the final basis set = -1510.30058919
 Final energy is   -1510.30058918612
 **  OPTIMIZATION CONVERGED  **

                    Orbital Energies (a.u.)
 --------------------------------------------------------------

 Alpha MOs
 -- Occupied --
-18.934 -18.934 -18.933 -18.915 -18.884 -18.877 -18.875 -18.874
-18.870 -18.855 -10.101 -10.101 -10.097 -10.086 -10.067 -10.064
-10.063 -10.060 -10.058 -10.051 -10.046 -10.038 -10.036 -10.033
-10.028 -10.019 -10.019 -10.017 -10.007 -10.002  -1.017  -1.011
 -1.007  -0.993  -0.970  -0.953  -0.938  -0.935  -0.934  -0.919
 -0.762  -0.749  -0.724  -0.712  -0.705  -0.698  -0.685  -0.663
 -0.658  -0.610  -0.591  -0.575  -0.543  -0.536  -0.531  -0.520
 -0.509  -0.502  -0.484  -0.472  -0.463  -0.456  -0.442  -0.436
 -0.429  -0.421  -0.419  -0.416  -0.411  -0.408  -0.404  -0.397
 -0.388  -0.373  -0.369  -0.364  -0.360  -0.355  -0.349  -0.345
 -0.343  -0.337  -0.331  -0.325  -0.321  -0.316  -0.309  -0.305
 -0.302  -0.302  -0.298  -0.294  -0.289  -0.279  -0.275  -0.270
 -0.262  -0.252  -0.251  -0.244  -0.231  -0.229  -0.217  -0.182
 -0.177  -0.175  -0.161  -0.153  -0.152  -0.149  -0.143  -0.139
 -0.127

          Ground-State Mulliken Net Atomic Charges

     Atom                 Charge (a.u.)
  ----------------------------------------
      1 O                    -0.215379
      2 C                     0.220842
      3 C                    -0.078787
      4 C                    -0.080352
      5 C                     0.214044
      6 O                    -0.174270
      7 C                    -0.053107
      8 C                    -0.052266
      9 O                    -0.169629
     10 C                     0.224959
     11 C                    -0.077992
     12 C                    -0.079846
     13 C                     0.213430
     14 O                    -0.210691
     15 O                    -0.172492
     16 O                    -0.169925
     17 O                    -0.229190
     18 C                    -0.127845
     19 C                     0.022113
     20 C                    -0.144241
     21 C                    -0.144154
     22 C                     0.024526
     23 O                    -0.190893
     24 H                     0.089901
     25 H                     0.083448
     26 H                     0.106662
     27 H                     0.075946
     28 H                     0.071563
     29 H                     0.074503
     30 H                     0.069520
     31 H                     0.084507
     32 O                    -0.212061
     33 C                    -0.128508
     34 C                     0.024334
     35 C                    -0.145077
     36 C                    -0.143284
     37 C                     0.018553
     38 O                    -0.193051
     39 H                     0.085070
     40 H                     0.085739
     41 H                     0.092182
     42 H                     0.086093
     43 H                     0.076829
     44 H                     0.072844
     45 H                     0.078065
     46 H                     0.074148
     47 H                     0.104092
     48 H                     0.086969
     49 H                     0.089780
     50 H                     0.090451
     51 H                     0.090426
     52 H                     0.089049
     53 H                     0.099777
     54 H                     0.086883
     55 H                     0.086212
     56 H                     0.099580
  ----------------------------------------
  Sum of atomic charges =     0.000000

                    Cartesian Multipole Moments
 -----------------------------------------------------------------
    Charge (ESU x 10^10)
                 0.0000
    Dipole Moment (Debye)
         X      -0.1818      Y       0.6339      Z       1.0948
       Tot       1.2780
    Quadrupole Moments (Debye-Ang)
        XX    -147.1441     XY      -6.7255     YY    -159.3091
        XZ      -8.1870     YZ      -7.1873     ZZ    -151.9815

 Total job time:  192.82s(wall), 9191.89s(cpu)
        *  Thank you very much for using Q-Chem.  Have a nice day.  *
