 Q-Chem 5.0, Q-Chem, Inc., Pleasanton, CA (2017)
 Q-Chem 5.0.1 for Intel X86 EM64T Linux

User input:
--------------------------------------------------------------
$molecule
0  1
O -3.94934 -3.66094 2.70899
C -3.26408 -4.56952 2.26188
C -3.36658 -6.02376 2.66595
C -2.09958 -6.8832 2.52481
C -0.82545 -6.1521 2.16404
O 0.19246 -6.5657 2.97535
C 1.44635 -5.94887 2.6646
C 2.52208 -7.01276 2.47208
O 3.64676 -6.73053 3.31962
C 3.55484 -7.20355 4.58727
C 4.796 -7.94012 5.03186
C 5.18673 -9.13844 4.15457
C 4.51689 -9.20979 2.79702
O 4.08295 -8.25445 2.16966
O -2.74425 -4.34767 1.0269
O 4.27762 -10.46026 2.32288
O 2.53486 -7.14539 5.26039
C 3.63107 -10.72853 1.13449
C 6.06829 -7.07966 4.95919
C 7.13189 -7.65253 5.89463
C 7.51255 -8.91448 5.14758
C 6.65771 -8.75558 3.88485
O 6.5987 -7.36272 3.68995
H 4.62364 -8.25663 6.08582
H 5.11419 -10.12981 4.65485
H 5.88312 -6.0072 5.18776
H 7.9985 -6.95337 5.87626
H 6.80433 -7.80389 6.94569
H 8.59414 -8.85701 4.89236
H 7.29631 -9.86682 5.67835
H 7.09737 -9.34273 3.04758
O -0.64628 -5.61723 1.07753
C -2.71289 -3.12457 0.38706
C -3.67132 -6.20241 4.16855
C -4.3754 -7.53666 4.39473
C -3.2381 -8.49821 4.13503
C -2.07712 -7.51227 3.94461
O -2.41547 -6.42102 4.76241
H -4.21314 -6.43715 2.07221
H -2.22795 -7.66308 1.74175
H -2.13164 -2.3942 0.98949
H -4.27907 -5.3796 4.60403
H -4.63992 -7.58262 5.47581
H -5.29031 -7.70754 3.7876
H -3.09007 -9.11738 5.04785
H -3.36372 -9.15485 3.24702
H -1.13144 -8.03898 4.19413
H -3.74531 -2.7461 0.22871
H -2.22243 -3.24404 -0.60067
H 3.57333 -11.82698 0.9914
H 4.19373 -10.28567 0.28493
H 2.59983 -10.31546 1.15779
H 2.00501 -7.98069 2.7434
H 2.69423 -6.87864 1.36314
H 1.69715 -5.36864 3.57798
H 1.47118 -5.16638 1.86955
$end

$opt
CONSTRAINT
tors           1           2           3           4    -153.000
tors           3           4           5           6    +133.307
tors           4           5           6           7    +178.039
tors           5           6           7           8    -127.580
tors           6           7           8           9    -126.505
tors           7           8           9          10     +85.337
tors           8           9          10          11    +131.772
tors           9          10          11          12     -57.942
tors          11          12          13          14     +25.875
ENDCONSTRAINT
$end

$rem
JOBTYPE                   OPT
METHOD                    B3LYP
DFT_D                     d3_op
BASIS                     STO-3G
GEOM_OPT_MAX_CYCLES       100
GEOM_OPT_TOL_GRADIENT     300
GEOM_OPT_TOL_DISPLACEMENT 1200
GEOM_OPT_TOL_ENERGY       100
SYMMETRY                  False
THRESH                    12
SCF_CONVERGENCE           8
MAX_SUB_FILE_NUM          128
MEM_STATIC                400
MEM_TOTAL                 4000
$end
--------------------------------------------------------------

   15   -1510.0479671950      7.81E-09 Convergence criterion met
 Total energy in the final basis set = -1510.04796719
   14   -1510.1313293753      6.18E-09 Convergence criterion met
 Total energy in the final basis set = -1510.13132938
   14   -1510.1918845811      7.36E-09 Convergence criterion met
 Total energy in the final basis set = -1510.19188458
   14   -1510.2227758331      6.34E-09 Convergence criterion met
 Total energy in the final basis set = -1510.22277583
   14   -1510.2374549398      3.45E-09 Convergence criterion met
 Total energy in the final basis set = -1510.23745494
   14   -1510.2436879884      3.41E-09 Convergence criterion met
 Total energy in the final basis set = -1510.24368799
   14   -1510.2464167648      3.61E-09 Convergence criterion met
 Total energy in the final basis set = -1510.24641676
   13   -1510.2480135515      4.40E-09 Convergence criterion met
   12   -1510.2526378364      3.50E-09 Convergence criterion met
 Total energy in the final basis set = -1510.25263784
   12   -1510.2526886654      4.10E-09 Convergence criterion met
 Total energy in the final basis set = -1510.25268867
   12   -1510.2526908478      6.30E-09 Convergence criterion met
 Total energy in the final basis set = -1510.25269085
   12   -1510.2527277248      3.50E-09 Convergence criterion met
 Total energy in the final basis set = -1510.25272772
   10   -1510.2527345992      8.92E-09 Convergence criterion met
 Total energy in the final basis set = -1510.25273460
   10   -1510.2527380398      7.28E-09 Convergence criterion met
 Total energy in the final basis set = -1510.25273804

             Standard Nuclear Orientation (Angstroms)
    I     Atom           X                Y                Z
 ----------------------------------------------------------------
    1      O      -6.4105481794     0.8243944117     1.3318355962
    2      C      -5.4086299305     0.8810765648     0.5845695157
    3      C      -5.0862775929    -0.1466125714    -0.5729479389
    4      C      -3.5639127328    -0.3386412391    -0.9603323852
    5      C      -2.6142853102     0.9060386792    -0.8278379649
    6      O      -1.4143558911     0.5039638491    -0.1562675605
    7      C      -0.4696588180     1.6432066972    -0.0531969736
    8      C       0.9351609471     1.1972406090    -0.6248673851
    9      O       2.0568900125     1.4259150864     0.3121765134
   10      C       2.2167527973     0.3315137307     1.2373916358
   11      C       3.7193742917    -0.1490376333     1.3351016536
   12      C       4.4257791484    -0.6272166500     0.0065062300
   13      C       3.5371373522    -1.2699353043    -1.1076262225
   14      O       2.3230920071    -1.1303624362    -1.3717239995
   15      O      -4.3636473531     1.8374167909     0.7481741222
   16      O       4.4007365329    -2.1178981648    -1.8750795621
   17      O       1.2692025978    -0.2010277427     1.8577221691
   18      C       3.6453156754    -2.7452386582    -2.9845136289
   19      C       4.6111671077     1.1432394078     1.6268855626
   20      C       6.1157051480     0.7310914448     1.8966053999
   21      C       6.6509272094     0.5130666487     0.4308998150
   22      C       5.3052524739     0.6499009540    -0.3832924929
   23      O       4.6491640801     1.7881236865     0.2912653675
   24      H       3.7829870777    -0.9125130962     2.1300756479
   25      H       5.1282142032    -1.4363918834     0.2789416468
   26      H       4.1755247605     1.8344340322     2.3741587680
   27      H       6.6543398404     1.5423590901     2.4111084888
   28      H       6.1846898101    -0.1813959785     2.5105210307
   29      H       7.3536928015     1.3101303038     0.1385276699
   30      H       7.1407722860    -0.4635968225     0.2896193156
   31      H       5.4128666918     0.8393967822    -1.4688816647
   32      O      -2.7694259779     2.0222855805    -1.3723950726
   33      C      -4.6570004923     2.7254832555     1.8958536593
   34      C      -5.3667725931    -1.5728931571     0.0685876465
   35      C      -5.1859520662    -2.7250159997    -0.9977508412
   36      C      -3.6182307378    -2.8752546789    -1.0376832855
   37      C      -3.1930588984    -1.6509896141    -0.1387972580
   38      O      -4.1858502904    -1.7068065666     0.9599784494
   39      H      -5.7154796125     0.0777040530    -1.4537585298
   40      H      -3.5334970264    -0.5853487681    -2.0396147138
   41      H      -4.7485413128     2.1515710277     2.8405717668
   42      H      -6.3039928476    -1.6086610292     0.6576039919
   43      H      -5.6760616341    -3.6498470971    -0.6550677516
   44      H      -5.6094778318    -2.4460713145    -1.9761421568
   45      H      -3.2953786718    -3.8216039663    -0.5746816701
   46      H      -3.2067815642    -2.8182169862    -2.0581106540
   47      H      -2.1598350854    -1.6641531157     0.2582746491
   48      H      -5.5926929651     3.2998291379     1.7384554203
   49      H      -3.8011720595     3.4219744347     1.9634065252
   50      H       4.3721308867    -3.3757509035    -3.5287309376
   51      H       3.2241727757    -1.9847257956    -3.6733968885
   52      H       2.8149264008    -3.3760504010    -2.6069561166
   53      H       0.9179327902     0.1310325276    -0.9363348459
   54      H       1.1883881179     1.8170158588    -1.5091676709
   55      H      -0.3690740633     1.9212188578     1.0174199014
   56      H      -0.8979166227     2.4978857216    -0.6205282407
 ----------------------------------------------------------------

    9   -1510.2527381284      8.71E-09 Convergence criterion met
 Total energy in the final basis set = -1510.25273813
 Final energy is   -1510.25273812835
 **  OPTIMIZATION CONVERGED  **

                    Orbital Energies (a.u.)
 --------------------------------------------------------------

 Alpha MOs
 -- Occupied --
-18.944 -18.934 -18.920 -18.905 -18.893 -18.891 -18.878 -18.877
-18.866 -18.860 -10.113 -10.095 -10.094 -10.092 -10.072 -10.066
-10.062 -10.060 -10.052 -10.051 -10.050 -10.049 -10.044 -10.038
-10.034 -10.029 -10.024 -10.023 -10.016 -10.014  -1.023  -1.008
 -1.000  -0.996  -0.973  -0.963  -0.947  -0.931  -0.927  -0.921
 -0.767  -0.756  -0.725  -0.717  -0.711  -0.701  -0.682  -0.670
 -0.657  -0.609  -0.597  -0.575  -0.549  -0.540  -0.537  -0.531
 -0.515  -0.504  -0.485  -0.474  -0.463  -0.459  -0.440  -0.439
 -0.435  -0.430  -0.419  -0.413  -0.412  -0.409  -0.402  -0.399
 -0.391  -0.383  -0.378  -0.365  -0.361  -0.351  -0.348  -0.344
 -0.343  -0.336  -0.333  -0.330  -0.324  -0.322  -0.315  -0.311
 -0.309  -0.306  -0.304  -0.302  -0.291  -0.286  -0.283  -0.280
 -0.267  -0.261  -0.241  -0.236  -0.232  -0.231  -0.226  -0.189
 -0.173  -0.168  -0.165  -0.155  -0.148  -0.146  -0.144  -0.140
 -0.135

          Ground-State Mulliken Net Atomic Charges

     Atom                 Charge (a.u.)
  ----------------------------------------
      1 O                    -0.217415
      2 C                     0.212309
      3 C                    -0.075409
      4 C                    -0.080496
      5 C                     0.217235
      6 O                    -0.173045
      7 C                    -0.059159
      8 C                    -0.057497
      9 O                    -0.184060
     10 C                     0.211847
     11 C                    -0.079205
     12 C                    -0.081513
     13 C                     0.212572
     14 O                    -0.213234
     15 O                    -0.164957
     16 O                    -0.169097
     17 O                    -0.199431
     18 C                    -0.128881
     19 C                     0.025960
     20 C                    -0.145939
     21 C                    -0.140947
     22 C                     0.027717
     23 O                    -0.180882
     24 H                     0.084835
     25 H                     0.087918
     26 H                     0.084026
     27 H                     0.078868
     28 H                     0.073866
     29 H                     0.078563
     30 H                     0.074633
     31 H                     0.084794
     32 O                    -0.219176
     33 C                    -0.125837
     34 C                     0.023008
     35 C                    -0.146252
     36 C                    -0.141729
     37 C                     0.021455
     38 O                    -0.192950
     39 H                     0.084946
     40 H                     0.081095
     41 H                     0.091669
     42 H                     0.088790
     43 H                     0.077489
     44 H                     0.072354
     45 H                     0.076762
     46 H                     0.071598
     47 H                     0.096650
     48 H                     0.089588
     49 H                     0.091946
     50 H                     0.092272
     51 H                     0.089894
     52 H                     0.090807
     53 H                     0.111979
     54 H                     0.083677
     55 H                     0.088265
     56 H                     0.097725
  ----------------------------------------
  Sum of atomic charges =     0.000000

                    Cartesian Multipole Moments
 -----------------------------------------------------------------
    Charge (ESU x 10^10)
                 0.0000
    Dipole Moment (Debye)
         X       3.4887      Y      -1.8291      Z      -1.8347
       Tot       4.3455
    Quadrupole Moments (Debye-Ang)
        XX    -150.8397     XY      -3.9335     YY    -156.9432
        XZ       7.1097     YZ      10.8834     ZZ    -154.0389

 Total job time:  122.50s(wall), 5826.86s(cpu)
        *  Thank you very much for using Q-Chem.  Have a nice day.  *
