 Q-Chem 5.0, Q-Chem, Inc., Pleasanton, CA (2017)
 Q-Chem 5.0.1 for Intel X86 EM64T Linux

User input:
--------------------------------------------------------------
$molecule
0  1
O -3.94934 -3.66094 2.70899
C -3.26408 -4.56952 2.26188
C -3.36658 -6.02376 2.66595
C -2.29367 -6.56361 3.62578
C -1.34178 -5.546 4.21439
O -0.55485 -6.13933 5.15998
C 0.40633 -5.24685 5.73345
C 1.69346 -5.99816 6.05745
O 1.53494 -6.73632 7.27928
C 0.88835 -7.92282 7.16403
C 1.10537 -8.82902 8.35246
C 0.94546 -10.32827 8.06102
C 0.95057 -10.72112 6.59734
O 1.11886 -9.95613 5.65871
O -2.28359 -4.27328 1.36799
O 0.79687 -12.04661 6.3385
O -0.16105 -8.02784 6.55236
C 0.79503 -12.59613 5.07361
C 2.55061 -8.83116 8.91343
C 2.52979 -9.2749 10.37578
C 2.19321 -10.74397 10.2222
C 2.23235 -10.87473 8.69564
O 3.18341 -9.92156 8.28928
H 0.41771 -8.47402 9.15347
H 0.00497 -10.73005 8.49822
H 3.07484 -7.8552 8.8317
H 3.57512 -9.18953 10.75122
H 1.85568 -8.70073 11.04709
H 3.00287 -11.34133 10.69705
H 1.20372 -11.0496 10.62642
H 2.44035 -11.92661 8.39967
O -1.31362 -4.34882 3.95649
C -2.02133 -3.0048 0.89437
C -4.63387 -6.28773 3.51254
C -5.0177 -7.7653 3.4403
C -3.92794 -8.37887 4.28965
C -3.19517 -7.11579 4.75094
O -4.20697 -6.14613 4.84284
H -3.46136 -6.61153 1.72549
H -1.66983 -7.35548 3.1548
H -1.74539 -2.33175 1.73413
H -5.50371 -5.66409 3.20974
H -5.98839 -7.88133 3.97394
H -5.11223 -8.17973 2.41359
H -4.40388 -8.888 5.15734
H -3.25019 -9.08356 3.7608
H -2.64728 -7.32839 5.69348
H -2.91214 -2.60174 0.36679
H -1.17354 -3.0512 0.18056
H 0.65134 -13.69312 5.15375
H 1.76486 -12.3982 4.56899
H -0.03582 -12.16903 4.47213
H 2.0716 -6.62023 5.21509
H 2.4641 -5.22632 6.27148
H -0.0014 -4.73162 6.63013
H 0.73804 -4.47699 4.99759
$end

$opt
CONSTRAINT
tors           1           2           3           4    -102.684
tors           3           4           5           6    +172.863
tors           4           5           6           7    +178.039
tors           5           6           7           8    -145.556
tors           6           7           8           9     -78.817
tors           7           8           9          10     +80.783
tors           8           9          10          11    +162.835
tors           9          10          11          12    -154.804
tors          11          12          13          14      +2.849
ENDCONSTRAINT
$end

$rem
JOBTYPE                   OPT
METHOD                    B3LYP
DFT_D                     d3_op
BASIS                     STO-3G
GEOM_OPT_MAX_CYCLES       100
GEOM_OPT_TOL_GRADIENT     300
GEOM_OPT_TOL_DISPLACEMENT 1200
GEOM_OPT_TOL_ENERGY       100
SYMMETRY                  False
THRESH                    12
SCF_CONVERGENCE           8
MAX_SUB_FILE_NUM          128
MEM_STATIC                400
MEM_TOTAL                 4000
$end
--------------------------------------------------------------

   16   -1510.1330287004      1.77E-09 Convergence criterion met
 Total energy in the final basis set = -1510.13302870
   13   -1510.2053713946      9.34E-09 Convergence criterion met
 Total energy in the final basis set = -1510.20537139
   13   -1510.2434247002      9.09E-09 Convergence criterion met
 Total energy in the final basis set = -1510.24342470
   14   -1510.2625277546      2.03E-09 Convergence criterion met
 Total energy in the final basis set = -1510.26252775
   13   -1510.2699857938      6.76E-09 Convergence criterion met
 Total energy in the final basis set = -1510.26998579
   13   -1510.2730202804      3.71E-09 Convergence criterion met
 Total energy in the final basis set = -1510.27302028
   13   -1510.2744698581      3.31E-09 Convergence criterion met
 Total energy in the final basis set = -1510.27446986
   12   -1510.2748708336      7.98E-09 Convergence criterion met
   11   -1510.2750372821      4.53E-09 Convergence criterion met
 Total energy in the final basis set = -1510.27503728
   11   -1510.2750507219      4.26E-09 Convergence criterion met
 Total energy in the final basis set = -1510.27505072
   11   -1510.2750596654      3.25E-09 Convergence criterion met
 Total energy in the final basis set = -1510.27505967
   10   -1510.2750649053      8.12E-09 Convergence criterion met
 Total energy in the final basis set = -1510.27506491
   10   -1510.2750671121      3.94E-09 Convergence criterion met
 Total energy in the final basis set = -1510.27506711
    9   -1510.2750683455      7.03E-09 Convergence criterion met
 Total energy in the final basis set = -1510.27506835

             Standard Nuclear Orientation (Angstroms)
    I     Atom           X                Y                Z
 ----------------------------------------------------------------
    1      O      -5.9495472998     0.9416131320     0.7615645981
    2      C      -5.3436429340     0.3743952080    -0.1720662621
    3      C      -4.4400292763    -0.9112306199    -0.0841639451
    4      C      -2.8831000971    -0.6301840309    -0.1183845720
    5      C      -2.5392951532     0.8975670399    -0.0959391059
    6      O      -1.1250790530     1.0272835718     0.0391385871
    7      C      -0.7203116067     2.4517486445     0.0206089106
    8      C       0.6753203971     2.6001685581    -0.6884647658
    9      O       1.8369751152     2.2424574464     0.1580984018
   10      C       2.0474691585     0.8205536290     0.2099015093
   11      C       3.5080023468     0.5684462033     0.7353970468
   12      C       4.1777963002    -0.7994234747     0.3129754526
   13      C       3.6474133600    -1.4372647637    -1.0253037968
   14      O       2.8057411076    -1.0076958144    -1.8400201944
   15      O      -5.4886246549     0.7124917410    -1.5607125065
   16      O       4.3372427660    -2.6866856893    -1.1821575587
   17      O       1.1884961716    -0.0342369686    -0.0835674805
   18      C       3.9114723569    -3.3445423537    -2.4381113885
   19      C       4.6179247390     1.6188648265     0.2867065060
   20      C       5.6865384441     1.6834600717     1.4450519485
   21      C       6.3464359542     0.2604494609     1.3065844033
   22      C       5.6495946818    -0.2815559060    -0.0048825816
   23      O       5.3612471362     0.9381577416    -0.7982383206
   24      H       3.4333319170     0.5874264919     1.8400386466
   25      H       4.1486857993    -1.5565684362     1.1165515737
   26      H       4.2115757721     2.5892742638    -0.0572896010
   27      H       6.4160775063     2.4850361689     1.2467981174
   28      H       5.2313126951     1.8534092007     2.4337053753
   29      H       7.4366980269     0.3277045534     1.1656229208
   30      H       6.1433237064    -0.3867175372     2.1750781681
   31      H       6.2525749072    -0.9983909855    -0.5956030812
   32      O      -3.3345466292     1.8605089813    -0.1901511874
   33      C      -6.2921364795     1.9473643921    -1.6898453362
   34      C      -4.5837577212    -1.6369690783     1.3192387965
   35      C      -4.0784243611    -3.1230002309     1.1556117484
   36      C      -2.5241778395    -2.8993549029     1.0450383708
   37      C      -2.4226494119    -1.3332392982     1.2290642172
   38      O      -3.5318009253    -1.0108674411     2.1556251487
   39      H      -4.7248017893    -1.5805629460    -0.9153084860
   40      H      -2.3962671274    -1.0847790776    -1.0006724381
   41      H      -5.7819508852     2.8089536869    -1.2122794785
   42      H      -5.5761117366    -1.5130582722     1.7942226875
   43      H      -4.3375984181    -3.7184712134     2.0455619576
   44      H      -4.5035815320    -3.6130743219     0.2651825608
   45      H      -1.9805429717    -3.4177211713     1.8507491976
   46      H      -2.1146773349    -3.2265827936     0.0759569885
   47      H      -1.4550967294    -0.9621508467     1.6198592169
   48      H      -7.2961901512     1.8339175222    -1.2318942400
   49      H      -6.3984590954     2.1342942670    -2.7744076189
   50      H       4.4603812962    -4.3032037477    -2.4825300494
   51      H       4.1639705176    -2.7318120155    -3.3277969713
   52      H       2.8198524665    -3.5411136421    -2.4471129989
   53      H       0.6694066385     2.0012184242    -1.6248007590
   54      H       0.8253578293     3.6703859049    -0.9400720021
   55      H      -0.6518760060     2.8338833739     1.0633558482
   56      H      -1.4897282701     3.0490891081    -0.5160234259
 ----------------------------------------------------------------

    9   -1510.2750691402      2.81E-09 Convergence criterion met
 Total energy in the final basis set = -1510.27506914
 Final energy is   -1510.27506914022
 **  OPTIMIZATION CONVERGED  **

                    Orbital Energies (a.u.)
 --------------------------------------------------------------

 Alpha MOs
 -- Occupied --
-18.937 -18.929 -18.928 -18.914 -18.887 -18.881 -18.880 -18.880
-18.876 -18.855 -10.101 -10.099 -10.097 -10.085 -10.078 -10.073
-10.063 -10.060 -10.058 -10.054 -10.051 -10.050 -10.039 -10.036
-10.034 -10.027 -10.022 -10.020 -10.015 -10.014  -1.017  -1.010
 -1.005  -0.992  -0.971  -0.964  -0.940  -0.938  -0.931  -0.919
 -0.763  -0.757  -0.726  -0.722  -0.713  -0.703  -0.693  -0.661
 -0.650  -0.617  -0.595  -0.577  -0.544  -0.539  -0.537  -0.531
 -0.515  -0.507  -0.479  -0.473  -0.463  -0.452  -0.450  -0.448
 -0.435  -0.426  -0.417  -0.413  -0.410  -0.407  -0.399  -0.398
 -0.390  -0.381  -0.373  -0.367  -0.361  -0.357  -0.350  -0.343
 -0.340  -0.338  -0.330  -0.328  -0.327  -0.319  -0.317  -0.313
 -0.308  -0.303  -0.301  -0.296  -0.296  -0.292  -0.272  -0.270
 -0.266  -0.256  -0.249  -0.246  -0.239  -0.235  -0.228  -0.182
 -0.176  -0.172  -0.163  -0.159  -0.155  -0.145  -0.139  -0.138
 -0.135

          Ground-State Mulliken Net Atomic Charges

     Atom                 Charge (a.u.)
  ----------------------------------------
      1 O                    -0.218480
      2 C                     0.215074
      3 C                    -0.082315
      4 C                    -0.076099
      5 C                     0.215732
      6 O                    -0.163087
      7 C                    -0.052509
      8 C                    -0.046988
      9 O                    -0.179489
     10 C                     0.213970
     11 C                    -0.081002
     12 C                    -0.076668
     13 C                     0.213113
     14 O                    -0.206543
     15 O                    -0.175780
     16 O                    -0.175096
     17 O                    -0.195023
     18 C                    -0.128776
     19 C                     0.023783
     20 C                    -0.142058
     21 C                    -0.145501
     22 C                     0.024074
     23 O                    -0.193084
     24 H                     0.082914
     25 H                     0.087175
     26 H                     0.090955
     27 H                     0.077753
     28 H                     0.073583
     29 H                     0.078272
     30 H                     0.073847
     31 H                     0.085598
     32 O                    -0.210425
     33 C                    -0.128184
     34 C                     0.024469
     35 C                    -0.143886
     36 C                    -0.143761
     37 C                     0.025154
     38 O                    -0.191174
     39 H                     0.083028
     40 H                     0.089805
     41 H                     0.091135
     42 H                     0.087478
     43 H                     0.076725
     44 H                     0.072445
     45 H                     0.076983
     46 H                     0.074209
     47 H                     0.090065
     48 H                     0.085635
     49 H                     0.084957
     50 H                     0.089011
     51 H                     0.088208
     52 H                     0.089275
     53 H                     0.095835
     54 H                     0.090858
     55 H                     0.087023
     56 H                     0.097783
  ----------------------------------------
  Sum of atomic charges =    -0.000000

                    Cartesian Multipole Moments
 -----------------------------------------------------------------
    Charge (ESU x 10^10)
                 0.0000
    Dipole Moment (Debye)
         X       2.6022      Y      -1.0464      Z      -0.6236
       Tot       2.8732
    Quadrupole Moments (Debye-Ang)
        XX    -161.0197     XY       2.6484     YY    -147.6962
        XZ      14.7033     YZ       0.2576     ZZ    -160.3088

 Total job time:  48.39s(wall), 2300.70s(cpu)
        *  Thank you very much for using Q-Chem.  Have a nice day.  *
