 Q-Chem 5.0, Q-Chem, Inc., Pleasanton, CA (2017)
 Q-Chem 5.0.1 for Intel X86 EM64T Linux

User input:
--------------------------------------------------------------
$molecule
0  1
O -5.9495472998 0.941613132 0.7615645981
C -5.343642934 0.374395208 -0.1720662621
C -4.4400292763 -0.9112306199 -0.0841639451
C -2.8831000971 -0.6301840309 -0.118384572
C -2.5392951532 0.8975670399 -0.0959391059
O -1.125079053 1.0272835718 0.0391385871
C -0.7203116067 2.4517486445 0.0206089106
C 0.6753203971 2.6001685581 -0.6884647658
O 1.8369751152 2.2424574464 0.1580984018
C 2.0474691585 0.820553629 0.2099015093
C 3.5080023468 0.5684462033 0.7353970468
C 4.1777963002 -0.7994234747 0.3129754526
C 3.64741336 -1.4372647637 -1.0253037968
O 2.8057411076 -1.0076958144 -1.8400201944
O -5.4886246549 0.712491741 -1.5607125065
O 4.337242766 -2.6866856893 -1.1821575587
O 1.1884961716 -0.0342369686 -0.0835674805
C 3.9114723569 -3.3445423537 -2.4381113885
C 4.617924739 1.6188648265 0.286706506
C 5.6865384441 1.6834600717 1.4450519485
C 6.3464359542 0.2604494609 1.3065844033
C 5.6495946818 -0.281555906 -0.0048825816
O 5.3612471362 0.9381577416 -0.7982383206
H 3.433331917 0.5874264919 1.8400386466
H 4.1486857993 -1.5565684362 1.1165515737
H 4.2115757721 2.5892742638 -0.057289601
H 6.4160775063 2.4850361689 1.2467981174
H 5.2313126951 1.8534092007 2.4337053753
H 7.4366980269 0.3277045534 1.1656229208
H 6.1433237064 -0.3867175372 2.1750781681
H 6.2525749072 -0.9983909855 -0.5956030812
O -3.3345466292 1.8605089813 -0.1901511874
C -6.2921364795 1.9473643921 -1.6898453362
C -4.5837577212 -1.6369690783 1.3192387965
C -4.0784243611 -3.1230002309 1.1556117484
C -2.5241778395 -2.8993549029 1.0450383708
C -2.4226494119 -1.3332392982 1.2290642172
O -3.5318009253 -1.0108674411 2.1556251487
H -4.7248017893 -1.580562946 -0.915308486
H -2.3962671274 -1.0847790776 -1.0006724381
H -5.7819508852 2.8089536869 -1.2122794785
H -5.5761117366 -1.5130582722 1.7942226875
H -4.3375984181 -3.7184712134 2.0455619576
H -4.503581532 -3.6130743219 0.2651825608
H -1.9805429717 -3.4177211713 1.8507491976
H -2.1146773349 -3.2265827936 0.0759569885
H -1.4550967294 -0.9621508467 1.6198592169
H -7.2961901512 1.8339175222 -1.23189424
H -6.3984590954 2.134294267 -2.7744076189
H 4.4603812962 -4.3032037477 -2.4825300494
H 4.1639705176 -2.7318120155 -3.3277969713
H 2.8198524665 -3.5411136421 -2.4471129989
H 0.6694066385 2.0012184242 -1.624800759
H 0.8253578293 3.6703859049 -0.9400720021
H -0.651876006 2.8338833739 1.0633558482
H -1.4897282701 3.0490891081 -0.5160234259
$end

$rem
JOBTYPE                   OPT
METHOD                    B3LYP
DFT_D                     d3_op
BASIS                     STO-3G
GEOM_OPT_MAX_CYCLES       100
GEOM_OPT_TOL_GRADIENT     300
GEOM_OPT_TOL_DISPLACEMENT 1200
GEOM_OPT_TOL_ENERGY       100
SYMMETRY                  False
THRESH                    12
SCF_CONVERGENCE           8
MAX_SUB_FILE_NUM          128
MEM_STATIC                400
MEM_TOTAL                 4000
$end
--------------------------------------------------------------

   16   -1510.2750440863      4.15E-09 Convergence criterion met
 Total energy in the final basis set = -1510.27504409
   14   -1510.2781137105      4.21E-09 Convergence criterion met
 Total energy in the final basis set = -1510.27811371
   14   -1510.2800706128      3.01E-09 Convergence criterion met
 Total energy in the final basis set = -1510.28007061
   13   -1510.2809299799      7.65E-09 Convergence criterion met
 Total energy in the final basis set = -1510.28092998
   13   -1510.2821482545      7.84E-09 Convergence criterion met
 Total energy in the final basis set = -1510.28214825
   14   -1510.2831693848      1.54E-09 Convergence criterion met
 Total energy in the final basis set = -1510.28316938
   13   -1510.2840898937      8.33E-09 Convergence criterion met
 Total energy in the final basis set = -1510.28408989
   13   -1510.2846920801      7.57E-09 Convergence criterion met
   12   -1510.2910878954      6.07E-09 Convergence criterion met
 Total energy in the final basis set = -1510.29108790
   12   -1510.2910986949      2.86E-09 Convergence criterion met
 Total energy in the final basis set = -1510.29109869
   12   -1510.2910801387      7.34E-09 Convergence criterion met
 Total energy in the final basis set = -1510.29108014
   12   -1510.2911237130      4.99E-09 Convergence criterion met
 Total energy in the final basis set = -1510.29112371
   10   -1510.2911333385      7.27E-09 Convergence criterion met
 Total energy in the final basis set = -1510.29113334
   11   -1510.2911374120      4.78E-09 Convergence criterion met
 Total energy in the final basis set = -1510.29113741

             Standard Nuclear Orientation (Angstroms)
    I     Atom           X                Y                Z
 ----------------------------------------------------------------
    1      O      -5.0664354435     1.2676622893     0.4837310216
    2      C      -4.4780418564     0.2864658096    -0.0183946240
    3      C      -3.4298484423    -0.6589081409     0.6724932100
    4      C      -1.9354737759    -0.1490019499     0.5590841953
    5      C      -1.7788888887     1.1702463225    -0.2672470249
    6      O      -0.4793955517     1.7175569643    -0.0016919973
    7      C      -0.1224969115     2.7416267011    -1.0136916275
    8      C       0.6980283532     2.0283812617    -2.1571707411
    9      O       1.7015461755     1.1513906670    -1.5151238943
   10      C       1.1250878726    -0.1459313121    -1.2725339984
   11      C       1.9110248742    -0.8502954045    -0.1089314529
   12      C       3.3992482567    -1.2705796901    -0.4308652914
   13      C       3.7816343808    -1.0063171257    -1.9259085087
   14      O       2.9864418944    -0.8154695467    -2.8737508039
   15      O      -4.7355726800    -0.2334567162    -1.3303119106
   16      O       5.2020751726    -1.0480140389    -2.0643911597
   17      O       0.0766245109    -0.5718501343    -1.8075060864
   18      C       5.5799754719    -0.8155248597    -3.4782433654
   19      C       2.1404518981     0.1846014090     1.0753786597
   20      C       2.5383978020    -0.6138404224     2.3766539709
   21      C       4.0232530763    -1.0166039764     2.0435074568
   22      C       4.2003268230    -0.3750947865     0.6097192239
   23      O       3.3972525496     0.8656532679     0.6863178812
   24      H       1.3100959091    -1.7192458409     0.2109735810
   25      H       3.5607773001    -2.3456932652    -0.2274571101
   26      H       1.3141981788     0.9160843596     1.1810700339
   27      H       2.4862630062     0.0410593438     3.2609754893
   28      H       1.8867264981    -1.4858832674     2.5460638177
   29      H       4.7331132236    -0.5666575793     2.7557014688
   30      H       4.1765781889    -2.1075431026     2.0335206248
   31      H       5.2422045143    -0.1533955336     0.3076763453
   32      O      -2.6010586658     1.6725083926    -1.0642617784
   33      C      -5.6473140901     0.6755943059    -2.0591836754
   34      C      -3.6120507124    -0.6817170862     2.2485429607
   35      C      -2.8195357939    -1.9223170911     2.8235479665
   36      C      -1.3338260150    -1.4169189988     2.7034682326
   37      C      -1.5513050139     0.0217036524     2.0892924005
   38      O      -2.8150324524     0.4798684129     2.7074703619
   39      H      -3.5332341088    -1.6650156422     0.2297297825
   40      H      -1.2908076637    -0.8961843956     0.0562690692
   41      H      -5.1627670738     1.6552260837    -2.2497104398
   42      H      -4.6609665250    -0.5862351956     2.5895816147
   43      H      -3.0993348374    -2.1055208487     3.8731507107
   44      H      -3.0062106819    -2.8395145857     2.2421718865
   45      H      -0.8488249260    -1.3449042321     3.6899464585
   46      H      -0.7169459761    -2.0560748929     2.0515944722
   47      H      -0.7382888424     0.7485448647     2.2759574553
   48      H      -6.5886628558     0.8492144854    -1.4987475147
   49      H      -5.8721360143     0.1803275007    -3.0217145458
   50      H       6.6841588172    -0.8590813718    -3.5093341577
   51      H       5.2364471530     0.1777880625    -3.8326949588
   52      H       5.1577515203    -1.5937547010    -4.1463292246
   53      H       0.0163664088     1.4283107412    -2.7973893699
   54      H       1.2436356618     2.7729828401    -2.7702924355
   55      H       0.5053751125     3.4927502597    -0.4946505963
   56      H      -1.0400899095     3.2166518440    -1.4221200475
 ----------------------------------------------------------------

    9   -1510.2911382496      4.62E-09 Convergence criterion met
 Total energy in the final basis set = -1510.29113825
 Final energy is   -1510.29113824960
 **  OPTIMIZATION CONVERGED  **

                    Orbital Energies (a.u.)
 --------------------------------------------------------------

 Alpha MOs
 -- Occupied --
-18.943 -18.937 -18.921 -18.917 -18.888 -18.887 -18.885 -18.884
-18.865 -18.856 -10.106 -10.106 -10.096 -10.085 -10.072 -10.070
-10.067 -10.061 -10.058 -10.056 -10.055 -10.050 -10.041 -10.035
-10.035 -10.029 -10.021 -10.020 -10.020 -10.018  -1.021  -1.018
 -1.001  -0.993  -0.970  -0.968  -0.944  -0.943  -0.929  -0.920
 -0.764  -0.760  -0.726  -0.721  -0.714  -0.704  -0.694  -0.667
 -0.651  -0.616  -0.598  -0.578  -0.547  -0.543  -0.538  -0.534
 -0.516  -0.505  -0.489  -0.472  -0.465  -0.452  -0.451  -0.444
 -0.434  -0.431  -0.428  -0.416  -0.415  -0.408  -0.404  -0.398
 -0.395  -0.380  -0.376  -0.364  -0.358  -0.355  -0.352  -0.347
 -0.346  -0.338  -0.333  -0.331  -0.326  -0.324  -0.319  -0.316
 -0.312  -0.305  -0.304  -0.300  -0.296  -0.287  -0.277  -0.273
 -0.270  -0.260  -0.254  -0.240  -0.238  -0.234  -0.232  -0.189
 -0.184  -0.165  -0.161  -0.160  -0.157  -0.148  -0.143  -0.142
 -0.137

          Ground-State Mulliken Net Atomic Charges

     Atom                 Charge (a.u.)
  ----------------------------------------
      1 O                    -0.217791
      2 C                     0.213383
      3 C                    -0.081107
      4 C                    -0.080804
      5 C                     0.220509
      6 O                    -0.179046
      7 C                    -0.053385
      8 C                    -0.052722
      9 O                    -0.171933
     10 C                     0.218603
     11 C                    -0.080701
     12 C                    -0.078541
     13 C                     0.214846
     14 O                    -0.206581
     15 O                    -0.171314
     16 O                    -0.168661
     17 O                    -0.224430
     18 C                    -0.127713
     19 C                     0.022466
     20 C                    -0.145354
     21 C                    -0.143682
     22 C                     0.024854
     23 O                    -0.187093
     24 H                     0.079079
     25 H                     0.085314
     26 H                     0.092301
     27 H                     0.077696
     28 H                     0.072268
     29 H                     0.078055
     30 H                     0.072634
     31 H                     0.088790
     32 O                    -0.205056
     33 C                    -0.128061
     34 C                     0.025464
     35 C                    -0.143988
     36 C                    -0.143727
     37 C                     0.023325
     38 O                    -0.188253
     39 H                     0.085650
     40 H                     0.095727
     41 H                     0.091460
     42 H                     0.086146
     43 H                     0.077414
     44 H                     0.073754
     45 H                     0.076612
     46 H                     0.070244
     47 H                     0.086027
     48 H                     0.086535
     49 H                     0.086361
     50 H                     0.091997
     51 H                     0.092208
     52 H                     0.090390
     53 H                     0.098856
     54 H                     0.089483
     55 H                     0.091348
     56 H                     0.100148
  ----------------------------------------
  Sum of atomic charges =     0.000000

                    Cartesian Multipole Moments
 -----------------------------------------------------------------
    Charge (ESU x 10^10)
                 0.0000
    Dipole Moment (Debye)
         X       3.0689      Y      -2.0603      Z      -0.1709
       Tot       3.7003
    Quadrupole Moments (Debye-Ang)
        XX    -156.0927     XY       2.3219     YY    -155.3376
        XZ      -0.4071     YZ      -9.4970     ZZ    -156.9803

 Total job time:  115.08s(wall), 5488.23s(cpu)
        *  Thank you very much for using Q-Chem.  Have a nice day.  *
