 Q-Chem 5.0, Q-Chem, Inc., Pleasanton, CA (2017)
 Q-Chem 5.0.1 for Intel X86 EM64T Linux

User input:
--------------------------------------------------------------
$molecule
0  1
O -5.8909668625 0.885922657 2.0421306867
C -5.3194124999 1.0333900474 0.9400635373
C -5.0178171575 -0.0889575046 -0.1161038367
C -3.7327535746 0.093221891 -1.012672078
C -2.580581484 0.8737718663 -0.2639504428
O -1.3385143952 0.5334012954 -0.8889866444
C -0.2190946973 1.2746445394 -0.257458633
C 1.0611572091 0.9909943548 -1.1280828334
O 2.1468124805 0.4366333331 -0.2886189768
C 2.3337443228 -0.9586878636 -0.5745126029
C 3.5589915375 -1.472253587 0.2513558933
C 4.9186585095 -0.724058128 -0.0854185016
C 4.7547562194 0.3380160189 -1.2337535702
O 4.1413505876 0.1713090949 -2.3114981899
O -5.1326049029 2.3058464522 0.3040271013
O 5.4523900732 1.5382788639 -0.8943015452
O 1.6111111068 -1.6230948662 -1.3484523967
C 5.2992113182 2.5332919311 -1.9806124788
C 3.4156814758 -1.133322235 1.7992280607
C 4.4607231396 -2.0104128476 2.5960235899
C 5.8027885876 -1.258276558 2.2635121051
C 5.2794741463 -0.099076166 1.3266014749
O 3.957213515 0.2393574468 1.9025537667
H 3.6444102777 -2.5591160938 0.0780142584
H 5.6877482437 -1.4495766633 -0.4110280508
H 2.3772467864 -1.1715890657 2.1818044459
H 4.2398147428 -1.9873841444 3.6749252325
H 4.4640403762 -3.0589059313 2.2573387114
H 6.2650870189 -0.8384698844 3.1711269119
H 6.5399863907 -1.9024970448 1.7581299899
H 5.9205982514 0.8009658506 1.2696024378
O -2.6620805612 1.5965528936 0.752111258
C -5.4676556857 3.3944819065 1.2474677202
C -4.8151846868 -1.559118389 0.4475567182
C -5.3860077262 -2.5438210235 -0.6439453992
C -4.3357127181 -2.3273580834 -1.7979006241
C -3.2563000736 -1.4231560664 -1.0800648529
O -3.3550297697 -1.799864388 0.3543881207
H -5.9030579378 -0.0836222148 -0.7812893949
H -3.944657266 0.5514650602 -1.9951729463
H -4.7438215343 3.4337077011 2.087059919
H -5.17867112 -1.7102030605 1.4827438868
H -5.3638542976 -3.5810602046 -0.2721975508
H -6.4159265632 -2.2954946254 -0.9463067225
H -3.887663803 -3.2784095323 -2.1259164121
H -4.7720686124 -1.8237751502 -2.6758314343
H -2.2166703366 -1.5438394736 -1.4403576362
H -6.4885929397 3.2765692871 1.6649795469
H -5.4077319095 4.3332218483 0.6666232375
H 5.8317725284 3.4403075954 -1.6403616233
H 4.2321036245 2.7739993444 -2.1625745276
H 5.7457327637 2.1736494781 -2.9302638743
H 0.7999556645 0.2549241993 -1.9203025386
H 1.4443497154 1.9252365125 -1.5854338723
H -0.0499026167 0.917115415 0.7829814248
H -0.4477522239 2.3606697712 -0.209605306
$end

$rem
JOBTYPE                   OPT
METHOD                    B3LYP
DFT_D                     d3_op
BASIS                     STO-3G
GEOM_OPT_MAX_CYCLES       100
GEOM_OPT_TOL_GRADIENT     300
GEOM_OPT_TOL_DISPLACEMENT 1200
GEOM_OPT_TOL_ENERGY       100
SYMMETRY                  False
THRESH                    12
SCF_CONVERGENCE           8
MAX_SUB_FILE_NUM          128
MEM_STATIC                400
MEM_TOTAL                 4000
$end
--------------------------------------------------------------

   16   -1510.2733095017      5.73E-09 Convergence criterion met
 Total energy in the final basis set = -1510.27330950
   13   -1510.2762357760      5.85E-09 Convergence criterion met
 Total energy in the final basis set = -1510.27623578
   13   -1510.2784593162      6.04E-09 Convergence criterion met
 Total energy in the final basis set = -1510.27845932
   13   -1510.2799393808      4.25E-09 Convergence criterion met
 Total energy in the final basis set = -1510.27993938
   13   -1510.2810926716      2.24E-09 Convergence criterion met
 Total energy in the final basis set = -1510.28109267
   13   -1510.2817413578      3.23E-09 Convergence criterion met
 Total energy in the final basis set = -1510.28174136
   13   -1510.2823640312      5.80E-09 Convergence criterion met
 Total energy in the final basis set = -1510.28236403
   13   -1510.2828168007      3.37E-09 Convergence criterion met
   12   -1510.3052370666      5.77E-09 Convergence criterion met
 Total energy in the final basis set = -1510.30523707
   12   -1510.3052213662      5.03E-09 Convergence criterion met
 Total energy in the final basis set = -1510.30522137
   11   -1510.3053041175      5.18E-09 Convergence criterion met
 Total energy in the final basis set = -1510.30530412
   11   -1510.3053032240      6.71E-09 Convergence criterion met
 Total energy in the final basis set = -1510.30530322
   11   -1510.3053133035      5.22E-09 Convergence criterion met
 Total energy in the final basis set = -1510.30531330
   11   -1510.3053134891      4.86E-09 Convergence criterion met
 Total energy in the final basis set = -1510.30531349

             Standard Nuclear Orientation (Angstroms)
    I     Atom           X                Y                Z
 ----------------------------------------------------------------
    1      O      -2.1400821635    -0.4790717591     2.4734531469
    2      C      -2.9426685246    -0.1839304905     1.5628723193
    3      C      -3.2041772724    -0.9790817018     0.2291172770
    4      C      -2.6150592889    -0.2934589698    -1.0720247597
    5      C      -1.8837841621     1.0559739348    -0.7744362482
    6      O      -1.6621740721     1.7423379249    -2.0048389563
    7      C      -0.8640384497     2.9758147118    -1.7871817330
    8      C       0.6715791494     2.6982639745    -1.9962017834
    9      O       1.1952954445     1.8499986307    -0.9043281256
   10      C       1.1803968948     0.4696998822    -1.3015021901
   11      C       1.4991627995    -0.4421997939    -0.0634512447
   12      C       3.0357284156    -0.6268306848     0.2522823116
   13      C       3.9408423384     0.1821145961    -0.7330275272
   14      O       3.5677828685     0.7830170667    -1.7675231376
   15      O      -3.8970103460     0.8859590020     1.6354920054
   16      O       5.2947211106     0.1356719542    -0.2834948745
   17      O       0.7915167573     0.0765088733    -2.4288916924
   18      C       6.1604463331     0.9094484900    -1.2044103692
   19      C       0.9853876750     0.1934126639     1.2983083119
   20      C       0.9300775976    -0.9596116959     2.3726613643
   21      C       2.4584871362    -1.1506247572     2.6968896556
   22      C       3.1073488820    -0.0718681879     1.7423398727
   23      O       2.1245179644     1.0327943317     1.7401824682
   24      H       0.9961462251    -1.4086176669    -0.2487108117
   25      H       3.3387106973    -1.6894095408     0.2085207055
   26      H       0.0545026725     0.7907011459     1.1894340679
   27      H       0.3594733082    -0.6322820933     3.2556436319
   28      H       0.4549572999    -1.8668785541     1.9673870005
   29      H       2.6833608188    -0.9139992041     3.7491276614
   30      H       2.8200461963    -2.1685198533     2.4792630899
   31      H       4.1109661706     0.2900926355     2.0396175085
   32      O      -1.5338658421     1.4909203472     0.3497356196
   33      C      -3.6396158316     1.6985830624     2.8444323094
   34      C      -2.4177019690    -2.3551656368     0.2262770257
   35      C      -3.0183735011    -3.2767329693    -0.9058083038
   36      C      -2.4305948326    -2.5937431990    -2.1978011735
   37      C      -1.5925140579    -1.4126135824    -1.5703289276
   38      O      -1.0855591623    -1.9863670916    -0.3038570071
   39      H      -4.2940315428    -1.1276550780     0.1264725385
   40      H      -3.3943538400    -0.1085361079    -1.8321447908
   41      H      -2.6447307472     2.1868005761     2.7930387731
   42      H      -2.3193185454    -2.8200565095     1.2263843002
   43      H      -2.6545550990    -4.3106004787    -0.7943536072
   44      H      -4.1199536664    -3.2865236394    -0.8928883917
   45      H      -1.7703248657    -3.2794036803    -2.7524524912
   46      H      -3.2148202183    -2.2294877097    -2.8804649918
   47      H      -0.7417674393    -1.0179634714    -2.1745019096
   48      H      -3.6850634795     1.0862761039     3.7682006574
   49      H      -4.4305208575     2.4706731242     2.8711204040
   50      H       7.1818553133     0.8479499396    -0.7860774687
   51      H       5.8448032879     1.9710823878    -1.2628839405
   52      H       6.1510558545     0.4819121458    -2.2278975312
   53      H       0.8308590357     2.1985609924    -2.9755784264
   54      H       1.2245134721     3.6590569822    -1.9580890433
   55      H      -1.0385736062     3.3587207971    -0.7591846847
   56      H      -1.2169741982     3.7130888824    -2.5371374940
 ----------------------------------------------------------------

    9   -1510.3053147017      7.64E-09 Convergence criterion met
 Total energy in the final basis set = -1510.30531470
 Final energy is   -1510.30531470166
 **  OPTIMIZATION CONVERGED  **

                    Orbital Energies (a.u.)
 --------------------------------------------------------------

 Alpha MOs
 -- Occupied --
-18.943 -18.940 -18.922 -18.919 -18.887 -18.883 -18.881 -18.870
-18.860 -18.858 -10.108 -10.101 -10.090 -10.090 -10.072 -10.066
-10.065 -10.055 -10.053 -10.047 -10.046 -10.037 -10.031 -10.031
-10.030 -10.017 -10.016 -10.015 -10.005  -9.996  -1.022  -1.015
 -0.999  -0.996  -0.967  -0.953  -0.944  -0.939  -0.925  -0.924
 -0.760  -0.750  -0.723  -0.712  -0.705  -0.698  -0.687  -0.660
 -0.653  -0.613  -0.589  -0.573  -0.541  -0.535  -0.531  -0.518
 -0.507  -0.504  -0.485  -0.471  -0.457  -0.455  -0.448  -0.436
 -0.429  -0.424  -0.417  -0.414  -0.410  -0.403  -0.401  -0.397
 -0.392  -0.379  -0.370  -0.364  -0.359  -0.353  -0.349  -0.343
 -0.341  -0.337  -0.331  -0.327  -0.322  -0.319  -0.315  -0.304
 -0.300  -0.298  -0.298  -0.289  -0.280  -0.278  -0.275  -0.267
 -0.262  -0.255  -0.252  -0.243  -0.235  -0.230  -0.217  -0.190
 -0.181  -0.165  -0.164  -0.155  -0.154  -0.143  -0.142  -0.141
 -0.128

          Ground-State Mulliken Net Atomic Charges

     Atom                 Charge (a.u.)
  ----------------------------------------
      1 O                    -0.218551
      2 C                     0.214763
      3 C                    -0.081733
      4 C                    -0.079397
      5 C                     0.216997
      6 O                    -0.166223
      7 C                    -0.053181
      8 C                    -0.052006
      9 O                    -0.168170
     10 C                     0.217394
     11 C                    -0.087548
     12 C                    -0.079042
     13 C                     0.214924
     14 O                    -0.208430
     15 O                    -0.176291
     16 O                    -0.167660
     17 O                    -0.229881
     18 C                    -0.127795
     19 C                     0.018709
     20 C                    -0.143574
     21 C                    -0.144758
     22 C                     0.024613
     23 O                    -0.192810
     24 H                     0.099222
     25 H                     0.085686
     26 H                     0.101707
     27 H                     0.082772
     28 H                     0.078810
     29 H                     0.074436
     30 H                     0.069814
     31 H                     0.082646
     32 O                    -0.212060
     33 C                    -0.128731
     34 C                     0.025161
     35 C                    -0.144477
     36 C                    -0.144008
     37 C                     0.012285
     38 O                    -0.197820
     39 H                     0.083716
     40 H                     0.087719
     41 H                     0.092071
     42 H                     0.086378
     43 H                     0.076568
     44 H                     0.072509
     45 H                     0.078107
     46 H                     0.073110
     47 H                     0.106918
     48 H                     0.086711
     49 H                     0.086073
     50 H                     0.091751
     51 H                     0.091477
     52 H                     0.089927
     53 H                     0.102345
     54 H                     0.089129
     55 H                     0.100065
     56 H                     0.089634
  ----------------------------------------
  Sum of atomic charges =     0.000000

                    Cartesian Multipole Moments
 -----------------------------------------------------------------
    Charge (ESU x 10^10)
                 0.0000
    Dipole Moment (Debye)
         X      -0.4640      Y       0.0226      Z      -0.9761
       Tot       1.0810
    Quadrupole Moments (Debye-Ang)
        XX    -141.2597     XY       1.0004     YY    -150.0145
        XZ      -1.2477     YZ      -3.1214     ZZ    -162.6704

 Total job time:  239.18s(wall), 6211.78s(cpu)
        *  Thank you very much for using Q-Chem.  Have a nice day.  *
