 Q-Chem 5.0, Q-Chem, Inc., Pleasanton, CA (2017)
 Q-Chem 5.0.1 for Intel X86 EM64T Linux

User input:
--------------------------------------------------------------
$molecule
0  1
O -3.94934 -3.66094 2.70899
C -3.26408 -4.56952 2.26188
C -3.36658 -6.02376 2.66595
C -2.07938 -6.86236 2.60497
C -0.79816 -6.11133 2.31767
O 0.27123 -6.82442 2.77956
C 1.52798 -6.19685 2.5039
C 2.67479 -7.13032 2.87751
O 3.55809 -6.47506 3.80124
C 3.507 -6.92843 5.07834
C 4.52952 -6.2738 5.97643
C 5.9908 -6.48079 5.55206
C 6.20333 -6.98612 4.1392
O 5.58078 -7.89586 3.61065
O -2.82111 -4.38796 0.98521
O 7.07754 -6.29383 3.35775
O 2.697 -7.74678 5.49639
C 7.34379 -6.58209 2.03527
C 4.45863 -4.73378 6.01756
C 5.02667 -4.23859 7.34496
C 6.4946 -4.57267 7.16402
C 6.4958 -5.02885 5.6975
O 5.4439 -4.30188 5.10891
H 4.34857 -6.66432 7.00479
H 6.49433 -7.21403 6.21913
H 3.43339 -4.33411 5.85754
H 4.90937 -3.13083 7.34409
H 4.55801 -4.65166 8.26395
H 7.08445 -3.63983 7.30387
H 6.8835 -5.37605 7.82673
H 7.50589 -4.87376 5.26089
O -0.68115 -4.95438 1.9412
C -2.83349 -3.18541 0.30697
C -3.75286 -6.17138 4.15058
C -4.38905 -7.53832 4.39162
C -3.17617 -8.43133 4.27926
C -2.07794 -7.38303 4.07036
O -2.52073 -6.27596 4.81267
H -4.17214 -6.45853 2.03242
H -2.12879 -7.71375 1.89102
H -2.21862 -2.43582 0.84948
H -4.43633 -5.37422 4.51602
H -4.74909 -7.56045 5.4453
H -5.22982 -7.78834 3.70928
H -3.03073 -8.94619 5.25543
H -3.2078 -9.17999 3.45841
H -1.11154 -7.82153 4.39793
H -3.87486 -2.81322 0.20149
H -2.40473 -3.33482 -0.70507
H 8.09265 -5.86044 1.64947
H 6.41612 -6.49323 1.43021
H 7.75606 -7.60965 1.94334
H 2.27083 -8.10303 3.23945
H 3.25721 -7.40023 1.97032
H 1.60594 -5.23967 3.06902
H 1.61908 -5.96993 1.41599
$end

$opt
CONSTRAINT
tors           1           2           3           4    -149.428
tors           3           4           5           6    +157.080
tors           4           5           6           7    +178.039
tors           5           6           7           8    -172.443
tors           6           7           8           9    -124.402
tors           7           8           9          10    +107.869
tors           8           9          10          11    +175.663
tors           9          10          11          12     -60.185
tors          11          12          13          14     -45.099
ENDCONSTRAINT
$end

$rem
JOBTYPE                   OPT
METHOD                    B3LYP
DFT_D                     d3_op
BASIS                     STO-3G
GEOM_OPT_MAX_CYCLES       100
GEOM_OPT_TOL_GRADIENT     300
GEOM_OPT_TOL_DISPLACEMENT 1200
GEOM_OPT_TOL_ENERGY       100
SYMMETRY                  False
THRESH                    12
SCF_CONVERGENCE           8
MAX_SUB_FILE_NUM          128
MEM_STATIC                400
MEM_TOTAL                 4000
$end
--------------------------------------------------------------

   15   -1510.1364356982      9.90E-09 Convergence criterion met
 Total energy in the final basis set = -1510.13643570
   14   -1510.2071123211      3.56E-09 Convergence criterion met
 Total energy in the final basis set = -1510.20711232
   13   -1510.2440586479      9.44E-09 Convergence criterion met
 Total energy in the final basis set = -1510.24405865
   14   -1510.2593784963      2.70E-09 Convergence criterion met
 Total energy in the final basis set = -1510.25937850
   14   -1510.2664943482      4.53E-09 Convergence criterion met
 Total energy in the final basis set = -1510.26649435
   12   -1510.2691202979      9.71E-09 Convergence criterion met
 Total energy in the final basis set = -1510.26912030
   13   -1510.2707212540      2.84E-09 Convergence criterion met
 Total energy in the final basis set = -1510.27072125
   12   -1510.2716623792      7.84E-09 Convergence criterion met
    9   -1510.2735171363      7.07E-09 Convergence criterion met
 Total energy in the final basis set = -1510.27351714
    9   -1510.2735201512      6.25E-09 Convergence criterion met
 Total energy in the final basis set = -1510.27352015
    9   -1510.2735229791      6.95E-09 Convergence criterion met
 Total energy in the final basis set = -1510.27352298
    9   -1510.2735249446      5.28E-09 Convergence criterion met
 Total energy in the final basis set = -1510.27352494
    9   -1510.2735263942      6.27E-09 Convergence criterion met
 Total energy in the final basis set = -1510.27352639
    9   -1510.2735275150      4.63E-09 Convergence criterion met
 Total energy in the final basis set = -1510.27352752

             Standard Nuclear Orientation (Angstroms)
    I     Atom           X                Y                Z
 ----------------------------------------------------------------
    1      O      -5.8909668625     0.8859226570     2.0421306867
    2      C      -5.3194124999     1.0333900474     0.9400635373
    3      C      -5.0178171575    -0.0889575046    -0.1161038367
    4      C      -3.7327535746     0.0932218910    -1.0126720780
    5      C      -2.5805814840     0.8737718663    -0.2639504428
    6      O      -1.3385143952     0.5334012954    -0.8889866444
    7      C      -0.2190946973     1.2746445394    -0.2574586330
    8      C       1.0611572091     0.9909943548    -1.1280828334
    9      O       2.1468124805     0.4366333331    -0.2886189768
   10      C       2.3337443228    -0.9586878636    -0.5745126029
   11      C       3.5589915375    -1.4722535870     0.2513558933
   12      C       4.9186585095    -0.7240581280    -0.0854185016
   13      C       4.7547562194     0.3380160189    -1.2337535702
   14      O       4.1413505876     0.1713090949    -2.3114981899
   15      O      -5.1326049029     2.3058464522     0.3040271013
   16      O       5.4523900732     1.5382788639    -0.8943015452
   17      O       1.6111111068    -1.6230948662    -1.3484523967
   18      C       5.2992113182     2.5332919311    -1.9806124788
   19      C       3.4156814758    -1.1333222350     1.7992280607
   20      C       4.4607231396    -2.0104128476     2.5960235899
   21      C       5.8027885876    -1.2582765580     2.2635121051
   22      C       5.2794741463    -0.0990761660     1.3266014749
   23      O       3.9572135150     0.2393574468     1.9025537667
   24      H       3.6444102777    -2.5591160938     0.0780142584
   25      H       5.6877482437    -1.4495766633    -0.4110280508
   26      H       2.3772467864    -1.1715890657     2.1818044459
   27      H       4.2398147428    -1.9873841444     3.6749252325
   28      H       4.4640403762    -3.0589059313     2.2573387114
   29      H       6.2650870189    -0.8384698844     3.1711269119
   30      H       6.5399863907    -1.9024970448     1.7581299899
   31      H       5.9205982514     0.8009658506     1.2696024378
   32      O      -2.6620805612     1.5965528936     0.7521112580
   33      C      -5.4676556857     3.3944819065     1.2474677202
   34      C      -4.8151846868    -1.5591183890     0.4475567182
   35      C      -5.3860077262    -2.5438210235    -0.6439453992
   36      C      -4.3357127181    -2.3273580834    -1.7979006241
   37      C      -3.2563000736    -1.4231560664    -1.0800648529
   38      O      -3.3550297697    -1.7998643880     0.3543881207
   39      H      -5.9030579378    -0.0836222148    -0.7812893949
   40      H      -3.9446572660     0.5514650602    -1.9951729463
   41      H      -4.7438215343     3.4337077011     2.0870599190
   42      H      -5.1786711200    -1.7102030605     1.4827438868
   43      H      -5.3638542976    -3.5810602046    -0.2721975508
   44      H      -6.4159265632    -2.2954946254    -0.9463067225
   45      H      -3.8876638030    -3.2784095323    -2.1259164121
   46      H      -4.7720686124    -1.8237751502    -2.6758314343
   47      H      -2.2166703366    -1.5438394736    -1.4403576362
   48      H      -6.4885929397     3.2765692871     1.6649795469
   49      H      -5.4077319095     4.3332218483     0.6666232375
   50      H       5.8317725284     3.4403075954    -1.6403616233
   51      H       4.2321036245     2.7739993444    -2.1625745276
   52      H       5.7457327637     2.1736494781    -2.9302638743
   53      H       0.7999556645     0.2549241993    -1.9203025386
   54      H       1.4443497154     1.9252365125    -1.5854338723
   55      H      -0.0499026167     0.9171154150     0.7829814248
   56      H      -0.4477522239     2.3606697712    -0.2096053060
 ----------------------------------------------------------------

    9   -1510.2735282368      3.18E-09 Convergence criterion met
 Total energy in the final basis set = -1510.27352824
 Final energy is   -1510.27352823680
 **  OPTIMIZATION CONVERGED  **

                    Orbital Energies (a.u.)
 --------------------------------------------------------------

 Alpha MOs
 -- Occupied --
-18.940 -18.930 -18.928 -18.922 -18.887 -18.880 -18.875 -18.874
-18.874 -18.864 -10.102 -10.098 -10.097 -10.092 -10.070 -10.068
-10.066 -10.060 -10.058 -10.054 -10.054 -10.053 -10.039 -10.037
-10.035 -10.031 -10.020 -10.019 -10.017 -10.015  -1.016  -1.012
 -1.006  -0.999  -0.969  -0.965  -0.938  -0.937  -0.932  -0.925
 -0.763  -0.759  -0.726  -0.720  -0.711  -0.703  -0.690  -0.664
 -0.653  -0.612  -0.595  -0.577  -0.545  -0.540  -0.537  -0.533
 -0.515  -0.508  -0.488  -0.474  -0.466  -0.454  -0.452  -0.436
 -0.432  -0.428  -0.426  -0.415  -0.410  -0.403  -0.402  -0.400
 -0.396  -0.378  -0.373  -0.364  -0.357  -0.356  -0.351  -0.348
 -0.342  -0.337  -0.330  -0.330  -0.327  -0.322  -0.317  -0.310
 -0.307  -0.305  -0.303  -0.296  -0.294  -0.290  -0.277  -0.275
 -0.267  -0.257  -0.253  -0.245  -0.243  -0.234  -0.229  -0.181
 -0.176  -0.172  -0.167  -0.159  -0.151  -0.147  -0.143  -0.143
 -0.139

          Ground-State Mulliken Net Atomic Charges

     Atom                 Charge (a.u.)
  ----------------------------------------
      1 O                    -0.217235
      2 C                     0.214860
      3 C                    -0.080882
      4 C                    -0.074797
      5 C                     0.214317
      6 O                    -0.174384
      7 C                    -0.048590
      8 C                    -0.053750
      9 O                    -0.172942
     10 C                     0.213281
     11 C                    -0.079286
     12 C                    -0.077626
     13 C                     0.213602
     14 O                    -0.218022
     15 O                    -0.170685
     16 O                    -0.167538
     17 O                    -0.209512
     18 C                    -0.126765
     19 C                     0.026428
     20 C                    -0.143933
     21 C                    -0.144179
     22 C                     0.023562
     23 O                    -0.186548
     24 H                     0.085555
     25 H                     0.084827
     26 H                     0.083808
     27 H                     0.078456
     28 H                     0.074060
     29 H                     0.077963
     30 H                     0.072801
     31 H                     0.092657
     32 O                    -0.210076
     33 C                    -0.127450
     34 C                     0.022439
     35 C                    -0.141357
     36 C                    -0.146114
     37 C                     0.021904
     38 O                    -0.193776
     39 H                     0.082481
     40 H                     0.086533
     41 H                     0.090742
     42 H                     0.089613
     43 H                     0.077438
     44 H                     0.072621
     45 H                     0.078582
     46 H                     0.072632
     47 H                     0.093631
     48 H                     0.087695
     49 H                     0.086973
     50 H                     0.091618
     51 H                     0.089657
     52 H                     0.089237
     53 H                     0.108559
     54 H                     0.085406
     55 H                     0.093074
     56 H                     0.088434
  ----------------------------------------
  Sum of atomic charges =     0.000000

                    Cartesian Multipole Moments
 -----------------------------------------------------------------
    Charge (ESU x 10^10)
                 0.0000
    Dipole Moment (Debye)
         X       1.7693      Y       0.6129      Z      -1.5320
       Tot       2.4193
    Quadrupole Moments (Debye-Ang)
        XX    -141.0515     XY      -1.3137     YY    -151.3109
        XZ      10.9285     YZ      -6.7605     ZZ    -164.0232

 Total job time:  61.20s(wall), 2911.22s(cpu)
        *  Thank you very much for using Q-Chem.  Have a nice day.  *
