 Q-Chem 5.0, Q-Chem, Inc., Pleasanton, CA (2017)
 Q-Chem 5.0.1 for Intel X86 EM64T Linux

User input:
--------------------------------------------------------------
$molecule
0  1
O -6.9205886842 1.1050822241 -0.0900721448
C -5.7820289936 0.7876743064 -0.5037586802
C -5.0296086334 -0.5454968291 -0.1600710125
C -3.4962925524 -0.6882268162 -0.503924913
C -2.6526886072 0.6395642482 -0.3481035065
O -1.2749362764 0.2456002024 -0.258607498
C -0.3940441878 1.431762005 -0.1564315443
C 0.8906361126 1.1661914048 -1.0367142704
O 2.1621497046 1.2973991021 -0.2921998404
C 2.3171176325 0.2161331902 0.6333665612
C 3.7531324771 0.2858240771 1.2726368185
C 4.8372639042 -0.5179055997 0.4346548991
C 4.2470241996 -1.3198998065 -0.7711089541
O 3.3194806427 -0.9861145775 -1.5410747814
O -5.1316746754 1.4271195881 -1.607446198
O 4.9888103899 -2.5383676291 -0.8980388905
O 1.4421727885 -0.6455016825 0.8693041871
C 4.4907538711 -3.3170111815 -2.0563027166
C 4.3669109482 1.746709884 1.2160073531
C 5.6607243892 1.7951256462 2.1231983381
C 6.7050068488 1.0487213387 1.2128089797
C 5.8020376166 0.6658594756 -0.025083001
O 4.90208709 1.8292662403 -0.1642851836
H 3.687383781 -0.1056706692 2.3032427196
H 5.3839444859 -1.2314582001 1.0759214171
H 3.6352699554 2.5574641124 1.3946171295
H 5.9601973708 2.8382355064 2.3114562038
H 5.5065581077 1.2924096517 3.0915490693
H 7.5195431256 1.7207129151 0.8980809681
H 7.1443694118 0.1636440585 1.7000318244
H 6.3477820899 0.4780553117 -0.9702289134
O -3.036481861 1.8225253548 -0.237877071
C -5.8843402261 2.6302735865 -2.0284196087
C -5.0707312066 -1.0342780557 1.3551454847
C -5.2086648238 -2.6041131905 1.3123187136
C -3.8082396601 -2.9917691733 0.7043956776
C -3.0562913025 -1.6012892617 0.7240074683
O -3.6840150384 -0.856494991 1.8475573835
H -5.5674796385 -1.2991497193 -0.7685454905
H -3.3178975394 -1.1428707281 -1.4946957822
H -6.8683753297 2.6501727987 -1.5175409176
H -5.7959015357 -0.4978594642 1.997531379
H -5.3275837159 -3.0054981244 2.3317079684
H -6.0563100501 -2.9413870082 0.694627749
H -3.2790664564 -3.7272337162 1.3303176115
H -3.8898154371 -3.3959176842 -0.3177018838
H -1.958403045 -1.6519690385 0.8573791949
H -6.0198313119 2.587717732 -3.1263463447
H -5.3037282669 3.536631784 -1.7643822669
H 5.080916743 -4.2516176422 -2.0724806622
H 4.6373160741 -2.7691003279 -3.0096522869
H 3.4134122617 -3.5587166154 -1.9517503329
H 0.8056415406 0.1495938637 -1.4803511292
H 0.9634929355 1.9125230381 -1.8521741068
H -0.1031784961 1.5871304848 0.9052538806
H -0.9532924655 2.3305392452 -0.4936101577
$end

$rem
JOBTYPE                   OPT
METHOD                    B3LYP
DFT_D                     d3_op
BASIS                     STO-3G
GEOM_OPT_MAX_CYCLES       100
GEOM_OPT_TOL_GRADIENT     300
GEOM_OPT_TOL_DISPLACEMENT 1200
GEOM_OPT_TOL_ENERGY       100
SYMMETRY                  False
THRESH                    12
SCF_CONVERGENCE           8
MAX_SUB_FILE_NUM          128
MEM_STATIC                400
MEM_TOTAL                 4000
$end
--------------------------------------------------------------

   16   -1510.2677429971      7.53E-09 Convergence criterion met
 Total energy in the final basis set = -1510.26774300
   13   -1510.2708180162      5.47E-09 Convergence criterion met
 Total energy in the final basis set = -1510.27081802
   13   -1510.2732968182      4.15E-09 Convergence criterion met
 Total energy in the final basis set = -1510.27329682
   13   -1510.2755396535      3.09E-09 Convergence criterion met
 Total energy in the final basis set = -1510.27553965
   13   -1510.2775825994      2.77E-09 Convergence criterion met
 Total energy in the final basis set = -1510.27758260
   13   -1510.2792924308      3.74E-09 Convergence criterion met
 Total energy in the final basis set = -1510.27929243
   13   -1510.2806763283      3.57E-09 Convergence criterion met
 Total energy in the final basis set = -1510.28067633
   13   -1510.2815171121      6.01E-09 Convergence criterion met
   13   -1510.2910116030      3.95E-09 Convergence criterion met
 Total energy in the final basis set = -1510.29101160
   13   -1510.2911454308      5.10E-09 Convergence criterion met
 Total energy in the final basis set = -1510.29114543
   13   -1510.2911532073      2.60E-09 Convergence criterion met
 Total energy in the final basis set = -1510.29115321
   13   -1510.2911352294      4.08E-09 Convergence criterion met
 Total energy in the final basis set = -1510.29113523
   12   -1510.2911823103      6.41E-09 Convergence criterion met
 Total energy in the final basis set = -1510.29118231
   12   -1510.2911755661      2.65E-09 Convergence criterion met
 Total energy in the final basis set = -1510.29117557

             Standard Nuclear Orientation (Angstroms)
    I     Atom           X                Y                Z
 ----------------------------------------------------------------
    1      O      -5.0395623104     0.2961735829    -1.2731439580
    2      C      -4.0188484346    -0.3851500591    -1.0333288986
    3      C      -3.5811894317    -0.9834023224     0.3539848217
    4      C      -2.4186562459    -0.1927753978     1.0779258350
    5      C      -1.9668234396     1.0783490138     0.2851703680
    6      O      -0.9418311888     1.7445953629     1.0316584561
    7      C      -0.4011568519     2.8833864531     0.2511412994
    8      C       0.5610968156     2.3850732189    -0.8903985785
    9      O       1.6537890918     1.5591301057    -0.3302054850
   10      C       1.2777239018     0.1747199647    -0.3124722105
   11      C       2.4352739682    -0.6567290932     0.3549045760
   12      C       3.6342217574    -1.0171736904    -0.6135331609
   13      C       3.4269857783    -0.4830134661    -2.0701938163
   14      O       2.4114524225     0.0839231664    -2.5328073288
   15      O      -3.1297958528    -0.9086961665    -2.0333475479
   16      O       4.6060858849    -0.7551752572    -2.8288094256
   17      O       0.1647626276    -0.2705372418    -0.6716373387
   18      C       4.4426472518    -0.2586191700    -4.2156584481
   19      C       3.1994203063     0.1746008051     1.4710650897
   20      C       4.0376278599    -0.8281166556     2.3591474816
   21      C       5.2313528022    -1.1682611564     1.3911257045
   22      C       4.8497455722    -0.3049842420     0.1249473409
   23      O       4.2343583105     0.9084095611     0.7051448097
   24      H       1.9776052542    -1.5740831260     0.7653609681
   25      H       3.7947046622    -2.1095938962    -0.6690960743
   26      H       2.5581347540     0.8820952281     2.0307188839
   27      H       4.3903106413    -0.3281236367     3.2750754982
   28      H       3.4540877352    -1.7179950433     2.6444709501
   29      H       6.1957699521    -0.8342393939     1.8059315907
   30      H       5.3002537015    -2.2428366807     1.1580850757
   31      H       5.6917517626    -0.0400753196    -0.5436196259
   32      O      -2.4248707537     1.4942086821    -0.8025145344
   33      C      -3.4623002412    -0.3380733479    -3.3572383321
   34      C      -4.7420707721    -0.8585763629     1.4272679824
   35      C      -4.4320409353    -1.8578390957     2.6096520829
   36      C      -3.2487334589    -1.1112232852     3.3322164470
   37      C      -3.1247450576     0.1932457686     2.4483053336
   38      O      -4.5171728585     0.4745690613     2.0350311143
   39      H      -3.2851371629    -2.0346603152     0.1894114758
   40      H      -1.5283503495    -0.8274469296     1.2387098858
   41      H      -4.4547093937     0.1546986243    -3.3119319121
   42      H      -5.7620710909    -0.9171097396     1.0007482366
   43      H      -5.3075217726    -1.9602594104     3.2704823891
   44      H      -4.1448693077    -2.8569064807     2.2446153471
   45      H      -3.5075570779    -0.8506163197     4.3708461571
   46      H      -2.3151231470    -1.6961299060     3.3360016428
   47      H      -2.6793610441     1.0704860902     2.9569225099
   48      H      -3.4716350328    -1.1605396981    -4.0982274775
   49      H      -2.6932395121     0.4066436453    -3.6455265678
   50      H       5.3809208945    -0.5118901029    -4.7425193569
   51      H       4.2878735619     0.8394821447    -4.2392793278
   52      H       3.5861495832    -0.7462447418    -4.7244978298
   53      H      -0.0222407708     1.8081062064    -1.6383339613
   54      H       1.0393938336     3.2597036415    -1.3764850865
   55      H       0.1581239326     3.5026105024     0.9805209862
   56      H      -1.2211892016     3.4834044051    -0.1999532569
 ----------------------------------------------------------------

   11   -1510.2911753362      4.37E-09 Convergence criterion met
 Total energy in the final basis set = -1510.29117534
 Final energy is   -1510.29117533622
 **  OPTIMIZATION CONVERGED  **

                    Orbital Energies (a.u.)
 --------------------------------------------------------------

 Alpha MOs
 -- Occupied --
-18.944 -18.931 -18.924 -18.908 -18.890 -18.887 -18.880 -18.877
-18.863 -18.850 -10.108 -10.099 -10.095 -10.081 -10.071 -10.070
-10.065 -10.063 -10.060 -10.054 -10.050 -10.042 -10.039 -10.036
-10.031 -10.024 -10.023 -10.021 -10.016 -10.014  -1.021  -1.014
 -0.999  -0.987  -0.972  -0.963  -0.945  -0.936  -0.927  -0.913
 -0.765  -0.755  -0.726  -0.719  -0.712  -0.703  -0.691  -0.668
 -0.643  -0.615  -0.595  -0.575  -0.547  -0.539  -0.538  -0.530
 -0.516  -0.501  -0.487  -0.468  -0.461  -0.449  -0.446  -0.442
 -0.435  -0.426  -0.425  -0.417  -0.413  -0.409  -0.401  -0.391
 -0.390  -0.380  -0.374  -0.364  -0.357  -0.356  -0.345  -0.342
 -0.336  -0.335  -0.333  -0.329  -0.326  -0.323  -0.318  -0.316
 -0.308  -0.305  -0.301  -0.298  -0.291  -0.284  -0.278  -0.268
 -0.267  -0.261  -0.248  -0.241  -0.236  -0.228  -0.227  -0.188
 -0.184  -0.162  -0.158  -0.151  -0.150  -0.146  -0.144  -0.138
 -0.135

          Ground-State Mulliken Net Atomic Charges

     Atom                 Charge (a.u.)
  ----------------------------------------
      1 O                    -0.222053
      2 C                     0.217864
      3 C                    -0.080102
      4 C                    -0.075908
      5 C                     0.224542
      6 O                    -0.176490
      7 C                    -0.051061
      8 C                    -0.052325
      9 O                    -0.171215
     10 C                     0.217773
     11 C                    -0.081069
     12 C                    -0.078383
     13 C                     0.214525
     14 O                    -0.205892
     15 O                    -0.172875
     16 O                    -0.169133
     17 O                    -0.221354
     18 C                    -0.128083
     19 C                     0.026706
     20 C                    -0.144533
     21 C                    -0.143612
     22 C                     0.025215
     23 O                    -0.187051
     24 H                     0.082346
     25 H                     0.086683
     26 H                     0.086944
     27 H                     0.078000
     28 H                     0.073142
     29 H                     0.078294
     30 H                     0.073562
     31 H                     0.087151
     32 O                    -0.207560
     33 C                    -0.133808
     34 C                     0.024705
     35 C                    -0.144024
     36 C                    -0.143795
     37 C                     0.023848
     38 O                    -0.189916
     39 H                     0.084492
     40 H                     0.090465
     41 H                     0.098473
     42 H                     0.087731
     43 H                     0.076702
     44 H                     0.072663
     45 H                     0.076578
     46 H                     0.072095
     47 H                     0.084500
     48 H                     0.079906
     49 H                     0.083976
     50 H                     0.092243
     51 H                     0.091371
     52 H                     0.091384
     53 H                     0.103916
     54 H                     0.088928
     55 H                     0.089292
     56 H                     0.094230
  ----------------------------------------
  Sum of atomic charges =    -0.000000

                    Cartesian Multipole Moments
 -----------------------------------------------------------------
    Charge (ESU x 10^10)
                 0.0000
    Dipole Moment (Debye)
         X       4.0824      Y      -1.9961      Z       0.5030
       Tot       4.5720
    Quadrupole Moments (Debye-Ang)
        XX    -167.7939     XY       2.8230     YY    -153.3032
        XZ      -6.5891     YZ      -3.5605     ZZ    -147.6359

 Total job time:  122.20s(wall), 5821.20s(cpu)
        *  Thank you very much for using Q-Chem.  Have a nice day.  *
