 Q-Chem 5.0, Q-Chem, Inc., Pleasanton, CA (2017)
 Q-Chem 5.0.1 for Intel X86 EM64T Linux

User input:
--------------------------------------------------------------
$molecule
0  1
O -3.94934 -3.66094 2.70899
C -3.26408 -4.56952 2.26188
C -3.36658 -6.02376 2.66595
C -2.23368 -6.95999 2.21443
C -1.03668 -6.30446 1.56209
O 0.03222 -7.1541 1.59373
C 1.19542 -6.61982 0.95282
C 1.90568 -7.71088 0.15831
O 3.27455 -7.81187 0.58123
C 3.46539 -8.32852 1.8205
C 4.92179 -8.56779 2.14034
C 5.45392 -9.95122 1.73878
C 4.58595 -10.73998 0.779
O 3.95041 -10.26856 -0.15289
O -3.06959 -4.43622 0.91524
O 4.42691 -12.05687 1.07372
O 2.57085 -8.82605 2.494
C 3.64236 -12.92677 0.34576
C 5.90024 -7.65708 1.36128
C 7.23187 -7.56668 2.10614
C 7.78231 -8.95593 1.86536
C 6.69998 -9.52154 0.93967
O 6.24414 -8.40175 0.22195
H 5.04934 -8.33955 3.22235
H 5.72889 -10.60221 2.5984
H 5.49912 -6.63589 1.17909
H 7.8656 -6.83405 1.55649
H 7.16168 -7.2616 3.17236
H 8.74922 -8.86093 1.32287
H 7.91507 -9.58047 2.77522
H 7.11357 -10.35395 0.32723
O -0.87079 -5.10921 1.36988
C -3.09478 -3.26066 0.18248
C -3.28682 -6.1832 4.19572
C -3.94182 -7.4965 4.61714
C -2.91515 -8.4904 4.12322
C -1.83591 -7.53728 3.59764
O -1.92583 -6.42104 4.44653
H -4.36072 -6.37486 2.30771
H -2.58279 -7.75766 1.52224
H -3.25589 -2.36255 0.81623
H -3.74473 -5.33688 4.75337
H -3.95123 -7.52056 5.73055
H -4.97474 -7.65011 4.23712
H -2.53214 -9.06097 4.99876
H -3.26991 -9.19326 3.33864
H -0.85891 -8.06589 3.6021
H -3.90364 -3.31908 -0.57436
H -2.12433 -3.14096 -0.34188
H 3.69505 -13.93527 0.80469
H 4.01135 -12.98992 -0.70036
H 2.58503 -12.58551 0.35147
H 1.39947 -8.69861 0.25597
H 1.8735 -7.45011 -0.92113
H 1.85994 -6.2546 1.76528
H 1.04248 -5.74066 0.28469
$end

$opt
CONSTRAINT
tors           1           2           3           4    -167.566
tors           3           4           5           6    +161.253
tors           4           5           6           7    +178.039
tors           5           6           7           8    -140.072
tors           6           7           8           9    -124.425
tors           7           8           9          10     +70.418
tors           8           9          10          11    +172.895
tors           9          10          11          12     -89.231
tors          11          12          13          14     +37.592
ENDCONSTRAINT
$end

$rem
JOBTYPE                   OPT
METHOD                    B3LYP
DFT_D                     d3_op
BASIS                     STO-3G
GEOM_OPT_MAX_CYCLES       100
GEOM_OPT_TOL_GRADIENT     300
GEOM_OPT_TOL_DISPLACEMENT 1200
GEOM_OPT_TOL_ENERGY       100
SYMMETRY                  False
THRESH                    12
SCF_CONVERGENCE           8
MAX_SUB_FILE_NUM          128
MEM_STATIC                400
MEM_TOTAL                 4000
$end
--------------------------------------------------------------

   15   -1510.1138553090      7.67E-09 Convergence criterion met
 Total energy in the final basis set = -1510.11385531
   14   -1510.1869993113      7.78E-09 Convergence criterion met
 Total energy in the final basis set = -1510.18699931
   14   -1510.2257759392      9.09E-09 Convergence criterion met
 Total energy in the final basis set = -1510.22577594
   15   -1510.2449902792      1.45E-09 Convergence criterion met
 Total energy in the final basis set = -1510.24499028
   14   -1510.2554095474      4.46E-09 Convergence criterion met
 Total energy in the final basis set = -1510.25540955
   13   -1510.2604362562      4.17E-09 Convergence criterion met
 Total energy in the final basis set = -1510.26043626
   12   -1510.2633293890      9.95E-09 Convergence criterion met
 Total energy in the final basis set = -1510.26332939
   13   -1510.2649575105      8.25E-09 Convergence criterion met
   11   -1510.2676671700      4.75E-09 Convergence criterion met
 Total energy in the final basis set = -1510.26766717
   11   -1510.2676982830      6.59E-09 Convergence criterion met
 Total energy in the final basis set = -1510.26769828
   11   -1510.2677175059      3.23E-09 Convergence criterion met
 Total energy in the final basis set = -1510.26771751
   11   -1510.2677285135      2.58E-09 Convergence criterion met
 Total energy in the final basis set = -1510.26772851
    9   -1510.2677332844      9.11E-09 Convergence criterion met
 Total energy in the final basis set = -1510.26773328
    9   -1510.2677352176      7.52E-09 Convergence criterion met
 Total energy in the final basis set = -1510.26773522

             Standard Nuclear Orientation (Angstroms)
    I     Atom           X                Y                Z
 ----------------------------------------------------------------
    1      O      -6.9205886842     1.1050822241    -0.0900721448
    2      C      -5.7820289936     0.7876743064    -0.5037586802
    3      C      -5.0296086334    -0.5454968291    -0.1600710125
    4      C      -3.4962925524    -0.6882268162    -0.5039249130
    5      C      -2.6526886072     0.6395642482    -0.3481035065
    6      O      -1.2749362764     0.2456002024    -0.2586074980
    7      C      -0.3940441878     1.4317620050    -0.1564315443
    8      C       0.8906361126     1.1661914048    -1.0367142704
    9      O       2.1621497046     1.2973991021    -0.2921998404
   10      C       2.3171176325     0.2161331902     0.6333665612
   11      C       3.7531324771     0.2858240771     1.2726368185
   12      C       4.8372639042    -0.5179055997     0.4346548991
   13      C       4.2470241996    -1.3198998065    -0.7711089541
   14      O       3.3194806427    -0.9861145775    -1.5410747814
   15      O      -5.1316746754     1.4271195881    -1.6074461980
   16      O       4.9888103899    -2.5383676291    -0.8980388905
   17      O       1.4421727885    -0.6455016825     0.8693041871
   18      C       4.4907538711    -3.3170111815    -2.0563027166
   19      C       4.3669109482     1.7467098840     1.2160073531
   20      C       5.6607243892     1.7951256462     2.1231983381
   21      C       6.7050068488     1.0487213387     1.2128089797
   22      C       5.8020376166     0.6658594756    -0.0250830010
   23      O       4.9020870900     1.8292662403    -0.1642851836
   24      H       3.6873837810    -0.1056706692     2.3032427196
   25      H       5.3839444859    -1.2314582001     1.0759214171
   26      H       3.6352699554     2.5574641124     1.3946171295
   27      H       5.9601973708     2.8382355064     2.3114562038
   28      H       5.5065581077     1.2924096517     3.0915490693
   29      H       7.5195431256     1.7207129151     0.8980809681
   30      H       7.1443694118     0.1636440585     1.7000318244
   31      H       6.3477820899     0.4780553117    -0.9702289134
   32      O      -3.0364818610     1.8225253548    -0.2378770710
   33      C      -5.8843402261     2.6302735865    -2.0284196087
   34      C      -5.0707312066    -1.0342780557     1.3551454847
   35      C      -5.2086648238    -2.6041131905     1.3123187136
   36      C      -3.8082396601    -2.9917691733     0.7043956776
   37      C      -3.0562913025    -1.6012892617     0.7240074683
   38      O      -3.6840150384    -0.8564949910     1.8475573835
   39      H      -5.5674796385    -1.2991497193    -0.7685454905
   40      H      -3.3178975394    -1.1428707281    -1.4946957822
   41      H      -6.8683753297     2.6501727987    -1.5175409176
   42      H      -5.7959015357    -0.4978594642     1.9975313790
   43      H      -5.3275837159    -3.0054981244     2.3317079684
   44      H      -6.0563100501    -2.9413870082     0.6946277490
   45      H      -3.2790664564    -3.7272337162     1.3303176115
   46      H      -3.8898154371    -3.3959176842    -0.3177018838
   47      H      -1.9584030450    -1.6519690385     0.8573791949
   48      H      -6.0198313119     2.5877177320    -3.1263463447
   49      H      -5.3037282669     3.5366317840    -1.7643822669
   50      H       5.0809167430    -4.2516176422    -2.0724806622
   51      H       4.6373160741    -2.7691003279    -3.0096522869
   52      H       3.4134122617    -3.5587166154    -1.9517503329
   53      H       0.8056415406     0.1495938637    -1.4803511292
   54      H       0.9634929355     1.9125230381    -1.8521741068
   55      H      -0.1031784961     1.5871304848     0.9052538806
   56      H      -0.9532924655     2.3305392452    -0.4936101577
 ----------------------------------------------------------------

    9   -1510.2677355539      3.98E-09 Convergence criterion met
 Total energy in the final basis set = -1510.26773555
 Final energy is   -1510.26773555394
 **  OPTIMIZATION CONVERGED  **

                    Orbital Energies (a.u.)
 --------------------------------------------------------------

 Alpha MOs
 -- Occupied --
-18.938 -18.927 -18.926 -18.924 -18.889 -18.880 -18.878 -18.872
-18.866 -18.866 -10.101 -10.095 -10.094 -10.093 -10.067 -10.065
-10.062 -10.061 -10.059 -10.055 -10.051 -10.051 -10.038 -10.036
-10.035 -10.033 -10.021 -10.020 -10.016 -10.015  -1.015  -1.008
 -1.004  -1.000  -0.970  -0.965  -0.938  -0.933  -0.929  -0.925
 -0.763  -0.759  -0.725  -0.720  -0.711  -0.702  -0.687  -0.665
 -0.653  -0.612  -0.595  -0.576  -0.547  -0.539  -0.538  -0.532
 -0.511  -0.507  -0.485  -0.473  -0.459  -0.455  -0.450  -0.439
 -0.433  -0.427  -0.421  -0.414  -0.409  -0.405  -0.401  -0.399
 -0.387  -0.377  -0.374  -0.364  -0.360  -0.353  -0.349  -0.346
 -0.341  -0.338  -0.335  -0.331  -0.325  -0.322  -0.313  -0.310
 -0.307  -0.305  -0.303  -0.299  -0.295  -0.282  -0.280  -0.276
 -0.264  -0.258  -0.244  -0.244  -0.239  -0.234  -0.228  -0.181
 -0.175  -0.170  -0.164  -0.156  -0.150  -0.146  -0.143  -0.141
 -0.139

          Ground-State Mulliken Net Atomic Charges

     Atom                 Charge (a.u.)
  ----------------------------------------
      1 O                    -0.219652
      2 C                     0.213402
      3 C                    -0.080282
      4 C                    -0.073759
      5 C                     0.215235
      6 O                    -0.172978
      7 C                    -0.053117
      8 C                    -0.047327
      9 O                    -0.165373
     10 C                     0.209851
     11 C                    -0.079730
     12 C                    -0.079957
     13 C                     0.208511
     14 O                    -0.212195
     15 O                    -0.165541
     16 O                    -0.169169
     17 O                    -0.215863
     18 C                    -0.128932
     19 C                     0.026705
     20 C                    -0.144900
     21 C                    -0.142937
     22 C                     0.026233
     23 O                    -0.184283
     24 H                     0.083974
     25 H                     0.086635
     26 H                     0.086715
     27 H                     0.078053
     28 H                     0.073604
     29 H                     0.078025
     30 H                     0.074058
     31 H                     0.082833
     32 O                    -0.209092
     33 C                    -0.134904
     34 C                     0.023700
     35 C                    -0.141148
     36 C                    -0.146399
     37 C                     0.021539
     38 O                    -0.192848
     39 H                     0.083003
     40 H                     0.086152
     41 H                     0.100469
     42 H                     0.088235
     43 H                     0.077469
     44 H                     0.072986
     45 H                     0.078389
     46 H                     0.072415
     47 H                     0.096910
     48 H                     0.083575
     49 H                     0.087879
     50 H                     0.090916
     51 H                     0.088694
     52 H                     0.091145
     53 H                     0.100342
     54 H                     0.090483
     55 H                     0.086243
     56 H                     0.096007
  ----------------------------------------
  Sum of atomic charges =    -0.000000

                    Cartesian Multipole Moments
 -----------------------------------------------------------------
    Charge (ESU x 10^10)
                 0.0000
    Dipole Moment (Debye)
         X       2.4918      Y      -1.8125      Z      -0.9596
       Tot       3.2272
    Quadrupole Moments (Debye-Ang)
        XX    -152.8168     XY       2.4678     YY    -153.1257
        XZ      11.5230     YZ       3.6133     ZZ    -155.0786

 Total job time:  60.38s(wall), 2868.42s(cpu)
        *  Thank you very much for using Q-Chem.  Have a nice day.  *
