 Q-Chem 5.0, Q-Chem, Inc., Pleasanton, CA (2017)
 Q-Chem 5.0.1 for Intel X86 EM64T Linux

User input:
--------------------------------------------------------------
$molecule
0  1
O -3.94934 -3.66094 2.70899
C -3.26408 -4.56952 2.26188
C -3.36658 -6.02376 2.66595
C -2.58785 -6.46193 3.91713
C -1.93723 -5.36183 4.72618
O -1.53179 -5.85236 5.93466
C -0.70405 -4.93994 6.66375
C -0.26205 -5.56886 7.98103
O -0.69604 -4.75487 9.08192
C -2.03698 -4.58071 9.18528
C -2.43511 -3.7911 10.40948
C -2.48754 -4.60085 11.71325
C -1.80621 -5.9541 11.67849
O -0.60431 -6.13954 11.55352
O -2.40265 -4.29717 1.24659
O -2.61275 -7.02924 11.87917
O -2.86126 -5.20174 8.52476
C -2.17494 -8.33699 11.89229
C -1.46178 -2.66759 10.82735
C -2.2178 -1.61778 11.64412
C -2.46272 -2.3814 12.93158
C -1.68747 -3.67143 12.63954
O -0.63388 -3.25379 11.80308
H -3.41422 -3.31867 10.16623
H -3.53986 -4.76247 12.03825
H -0.94846 -2.18988 9.96446
H -1.50277 -0.79017 11.85297
H -3.12796 -1.19816 11.16331
H -1.99246 -1.8184 13.76802
H -3.52917 -2.59192 13.16481
H -1.39089 -4.17655 13.58525
O -1.76228 -4.20267 4.37053
C -2.19584 -3.0397 0.7193
C -4.80526 -6.40122 3.05828
C -5.00663 -7.9107 2.93143
C -4.21379 -8.39821 4.12325
C -3.76653 -7.06271 4.72592
O -4.83661 -6.19439 4.44647
H -3.06319 -6.62216 1.77685
H -1.81064 -7.23202 3.71466
H -1.81555 -2.35341 1.50602
H -5.57486 -5.86175 2.46318
H -6.08424 -8.12635 3.11058
H -4.70257 -8.33678 1.95104
H -4.91271 -8.91028 4.82202
H -3.35857 -9.06775 3.8872
H -3.53778 -7.20979 5.80355
H -3.14298 -2.64033 0.2977
H -1.44279 -3.10493 -0.09256
H -3.03984 -9.00852 12.06964
H -1.43346 -8.48489 12.70624
H -1.71603 -8.59576 10.91388
H -0.64592 -6.60857 8.08865
H 0.84713 -5.62577 8.01421
H -1.21188 -3.96087 6.82086
H 0.21241 -4.72895 6.06562
$end

$opt
CONSTRAINT
tors           1           2           3           4     -84.749
tors           3           4           5           6    +167.303
tors           4           5           6           7    +169.797
tors           5           6           7           8    -178.520
tors           6           7           8           9    -121.372
tors           7           8           9          10     +60.328
tors           8           9          10          11    +176.336
tors           9          10          11          12     -80.804
tors          11          12          13          14     +66.433
ENDCONSTRAINT
$end

$rem
JOBTYPE                   OPT
METHOD                    B3LYP
DFT_D                     d3_op
BASIS                     STO-3G
GEOM_OPT_MAX_CYCLES       100
GEOM_OPT_TOL_GRADIENT     300
GEOM_OPT_TOL_DISPLACEMENT 1200
GEOM_OPT_TOL_ENERGY       100
SYMMETRY                  False
THRESH                    12
SCF_CONVERGENCE           8
MAX_SUB_FILE_NUM          128
MEM_STATIC                400
MEM_TOTAL                 4000
$end
--------------------------------------------------------------

   15   -1510.1511782605      5.80E-09 Convergence criterion met
 Total energy in the final basis set = -1510.15117826
   14   -1510.2203674480      7.43E-09 Convergence criterion met
 Total energy in the final basis set = -1510.22036745
   14   -1510.2569905640      4.33E-09 Convergence criterion met
 Total energy in the final basis set = -1510.25699056
   14   -1510.2720304907      5.73E-09 Convergence criterion met
 Total energy in the final basis set = -1510.27203049
   14   -1510.2759156198      5.11E-09 Convergence criterion met
 Total energy in the final basis set = -1510.27591562
   13   -1510.2768912301      3.02E-09 Convergence criterion met
 Total energy in the final basis set = -1510.27689123
   12   -1510.2773484683      7.37E-09 Convergence criterion met
 Total energy in the final basis set = -1510.27734847
   12   -1510.2775470527      3.77E-09 Convergence criterion met
   11   -1510.2782093162      9.77E-09 Convergence criterion met
 Total energy in the final basis set = -1510.27820932
   10   -1510.2782295087      9.15E-09 Convergence criterion met
 Total energy in the final basis set = -1510.27822951
   10   -1510.2782462512      9.26E-09 Convergence criterion met
 Total energy in the final basis set = -1510.27824625
   11   -1510.2782564256      1.65E-09 Convergence criterion met
 Total energy in the final basis set = -1510.27825643
    9   -1510.2782599903      7.94E-09 Convergence criterion met
 Total energy in the final basis set = -1510.27825999
    9   -1510.2782612682      4.73E-09 Convergence criterion met
 Total energy in the final basis set = -1510.27826127

             Standard Nuclear Orientation (Angstroms)
    I     Atom           X                Y                Z
 ----------------------------------------------------------------
    1      O      -4.5643236814     1.4765311877     1.4882153404
    2      C      -4.9709825760     0.9879545473     0.4129828565
    3      C      -4.8806486592    -0.5116877026    -0.0554709988
    4      C      -3.5034121988    -0.8914214192    -0.7387730880
    5      C      -2.5306416713     0.3265660209    -0.8962122565
    6      O      -1.2359549064    -0.1684688413    -1.2377473275
    7      C      -0.3458315804     0.9491911288    -1.6354494888
    8      C       1.0405194234     0.3056859855    -2.0295727301
    9      O       2.1931827975     0.7942623156    -1.2393640521
   10      C       2.0236018497     0.5165684608     0.1547108462
   11      C       3.3149677480     0.9727140086     0.9192946628
   12      C       4.4982100086    -0.0899034410     0.8279290374
   13      C       4.1258200831    -1.3757025623     0.0140030188
   14      O       3.8765411205    -1.4766862637    -1.2066767612
   15      O      -5.6965434727     1.7174061610    -0.5881982956
   16      O       4.1006902910    -2.4816992956     0.9267983696
   17      O       1.0249367836    -0.0530420421     0.6472154865
   18      C       3.7075103680    -3.7190943580     0.2134912255
   19      C       4.0055092929     2.2398116740     0.2589881699
   20      C       5.0511661179     2.8297441039     1.2866703358
   21      C       6.2196278537     1.7810065115     1.1684715882
   22      C       5.6192479793     0.7777433510     0.1066322205
   23      O       4.8533793363     1.6542789671    -0.8048747175
   24      H       3.0352100271     1.1513573424     1.9726599895
   25      H       4.8140853652    -0.4105988715     1.8362187266
   26      H       3.2986246485     2.9749343136    -0.1714929494
   27      H       5.3759956912     3.8342524543     0.9720077525
   28      H       4.6388286187     2.8938688860     2.3063155363
   29      H       7.1407307387     2.2442509566     0.7804138166
   30      H       6.4483238941     1.2870907916     2.1262530022
   31      H       6.3628266241     0.1852757594    -0.4607510933
   32      O      -2.8150578080     1.5415386832    -0.7985249787
   33      C      -5.7321138507     3.1522583607    -0.2293070950
   34      C      -4.8648241556    -1.4928678224     1.1923957431
   35      C      -5.1407304332    -2.9630651641     0.6832313601
   36      C      -3.7551446865    -3.3262099847     0.0309534879
   37      C      -2.9490661632    -1.9888201043     0.2685708642
   38      O      -3.4363495093    -1.5215244937     1.5850706355
   39      H      -5.7272355525    -0.7123862418    -0.7352298795
   40      H      -3.6608623465    -1.3229957229    -1.7448221153
   41      H      -4.7086436975     3.5768903699    -0.1779234232
   42      H      -5.4898382317    -1.1591737139     2.0429557977
   43      H      -5.3755240138    -3.6271104878     1.5303167294
   44      H      -5.9736150102    -3.0033878516    -0.0369339042
   45      H      -3.2693983144    -4.1647663155     0.5551496267
   46      H      -3.8388428990    -3.5787790950    -1.0381192075
   47      H      -1.8457676102    -2.0841069137     0.2672892393
   48      H      -6.2335487898     3.3198359311     0.7460636073
   49      H      -6.3034619363     3.6562052953    -1.0305069342
   50      H       3.7326674744    -4.5276982719     0.9669070914
   51      H       4.4091731508    -3.9572345119    -0.6118959527
   52      H       2.6845824247    -3.6375832524    -0.2078170608
   53      H       0.9426594248    -0.7989873634    -1.9349303922
   54      H       1.2995536465     0.5525747643    -3.0777199676
   55      H      -0.2265696445     1.6821124799    -0.8087609565
   56      H      -0.7841087956     1.4897442945    -2.5027975688
 ----------------------------------------------------------------

    9   -1510.2782615562      4.92E-09 Convergence criterion met
 Total energy in the final basis set = -1510.27826156
 Final energy is   -1510.27826155618
 **  OPTIMIZATION CONVERGED  **

                    Orbital Energies (a.u.)
 --------------------------------------------------------------

 Alpha MOs
 -- Occupied --
-18.937 -18.935 -18.934 -18.916 -18.888 -18.882 -18.880 -18.875
-18.874 -18.855 -10.102 -10.098 -10.097 -10.084 -10.075 -10.074
-10.064 -10.061 -10.060 -10.054 -10.053 -10.050 -10.038 -10.037
-10.036 -10.028 -10.021 -10.019 -10.017 -10.015  -1.017  -1.012
 -1.007  -0.993  -0.970  -0.964  -0.940  -0.936  -0.934  -0.919
 -0.763  -0.758  -0.727  -0.720  -0.712  -0.704  -0.692  -0.663
 -0.651  -0.615  -0.595  -0.581  -0.547  -0.540  -0.537  -0.533
 -0.514  -0.509  -0.486  -0.469  -0.459  -0.452  -0.449  -0.437
 -0.433  -0.432  -0.428  -0.413  -0.408  -0.403  -0.403  -0.397
 -0.395  -0.382  -0.372  -0.361  -0.359  -0.355  -0.349  -0.346
 -0.343  -0.341  -0.332  -0.328  -0.326  -0.325  -0.320  -0.310
 -0.308  -0.306  -0.301  -0.300  -0.294  -0.280  -0.279  -0.272
 -0.270  -0.256  -0.254  -0.247  -0.240  -0.234  -0.228  -0.180
 -0.179  -0.175  -0.160  -0.156  -0.153  -0.147  -0.143  -0.139
 -0.136

          Ground-State Mulliken Net Atomic Charges

     Atom                 Charge (a.u.)
  ----------------------------------------
      1 O                    -0.216445
      2 C                     0.213619
      3 C                    -0.081364
      4 C                    -0.078040
      5 C                     0.215121
      6 O                    -0.168631
      7 C                    -0.046245
      8 C                    -0.046378
      9 O                    -0.161415
     10 C                     0.204010
     11 C                    -0.078678
     12 C                    -0.079088
     13 C                     0.203955
     14 O                    -0.210374
     15 O                    -0.173896
     16 O                    -0.168909
     17 O                    -0.210937
     18 C                    -0.128976
     19 C                     0.026852
     20 C                    -0.144269
     21 C                    -0.143749
     22 C                     0.026506
     23 O                    -0.183089
     24 H                     0.086112
     25 H                     0.087206
     26 H                     0.084894
     27 H                     0.078013
     28 H                     0.074070
     29 H                     0.078028
     30 H                     0.073983
     31 H                     0.083822
     32 O                    -0.209223
     33 C                    -0.128197
     34 C                     0.025644
     35 C                    -0.144537
     36 C                    -0.143795
     37 C                     0.024533
     38 O                    -0.186452
     39 H                     0.083205
     40 H                     0.084354
     41 H                     0.092412
     42 H                     0.085133
     43 H                     0.077134
     44 H                     0.072462
     45 H                     0.077252
     46 H                     0.071935
     47 H                     0.092235
     48 H                     0.085357
     49 H                     0.085368
     50 H                     0.090829
     51 H                     0.088716
     52 H                     0.088611
     53 H                     0.096350
     54 H                     0.094490
     55 H                     0.095147
     56 H                     0.085328
  ----------------------------------------
  Sum of atomic charges =     0.000000

                    Cartesian Multipole Moments
 -----------------------------------------------------------------
    Charge (ESU x 10^10)
                 0.0000
    Dipole Moment (Debye)
         X       0.8513      Y      -1.1593      Z      -1.0097
       Tot       1.7573
    Quadrupole Moments (Debye-Ang)
        XX    -146.7568     XY       4.3412     YY    -147.6785
        XZ      14.5814     YZ       2.1246     ZZ    -163.2088

 Total job time:  51.72s(wall), 2460.89s(cpu)
        *  Thank you very much for using Q-Chem.  Have a nice day.  *
