 Q-Chem 5.0, Q-Chem, Inc., Pleasanton, CA (2017)
 Q-Chem 5.0.1 for Intel X86 EM64T Linux

User input:
--------------------------------------------------------------
$molecule
0  1
O -4.5643236814 1.4765311877 1.4882153404
C -4.970982576 0.9879545473 0.4129828565
C -4.8806486592 -0.5116877026 -0.0554709988
C -3.5034121988 -0.8914214192 -0.738773088
C -2.5306416713 0.3265660209 -0.8962122565
O -1.2359549064 -0.1684688413 -1.2377473275
C -0.3458315804 0.9491911288 -1.6354494888
C 1.0405194234 0.3056859855 -2.0295727301
O 2.1931827975 0.7942623156 -1.2393640521
C 2.0236018497 0.5165684608 0.1547108462
C 3.314967748 0.9727140086 0.9192946628
C 4.4982100086 -0.089903441 0.8279290374
C 4.1258200831 -1.3757025623 0.0140030188
O 3.8765411205 -1.4766862637 -1.2066767612
O -5.6965434727 1.717406161 -0.5881982956
O 4.100690291 -2.4816992956 0.9267983696
O 1.0249367836 -0.0530420421 0.6472154865
C 3.707510368 -3.719094358 0.2134912255
C 4.0055092929 2.239811674 0.2589881699
C 5.0511661179 2.8297441039 1.2866703358
C 6.2196278537 1.7810065115 1.1684715882
C 5.6192479793 0.777743351 0.1066322205
O 4.8533793363 1.6542789671 -0.8048747175
H 3.0352100271 1.1513573424 1.9726599895
H 4.8140853652 -0.4105988715 1.8362187266
H 3.2986246485 2.9749343136 -0.1714929494
H 5.3759956912 3.8342524543 0.9720077525
H 4.6388286187 2.893868886 2.3063155363
H 7.1407307387 2.2442509566 0.7804138166
H 6.4483238941 1.2870907916 2.1262530022
H 6.3628266241 0.1852757594 -0.4607510933
O -2.815057808 1.5415386832 -0.7985249787
C -5.7321138507 3.1522583607 -0.229307095
C -4.8648241556 -1.4928678224 1.1923957431
C -5.1407304332 -2.9630651641 0.6832313601
C -3.7551446865 -3.3262099847 0.0309534879
C -2.9490661632 -1.9888201043 0.2685708642
O -3.4363495093 -1.5215244937 1.5850706355
H -5.7272355525 -0.7123862418 -0.7352298795
H -3.6608623465 -1.3229957229 -1.7448221153
H -4.7086436975 3.5768903699 -0.1779234232
H -5.4898382317 -1.1591737139 2.0429557977
H -5.3755240138 -3.6271104878 1.5303167294
H -5.9736150102 -3.0033878516 -0.0369339042
H -3.2693983144 -4.1647663155 0.5551496267
H -3.838842899 -3.578779095 -1.0381192075
H -1.8457676102 -2.0841069137 0.2672892393
H -6.2335487898 3.3198359311 0.7460636073
H -6.3034619363 3.6562052953 -1.0305069342
H 3.7326674744 -4.5276982719 0.9669070914
H 4.4091731508 -3.9572345119 -0.6118959527
H 2.6845824247 -3.6375832524 -0.2078170608
H 0.9426594248 -0.7989873634 -1.9349303922
H 1.2995536465 0.5525747643 -3.0777199676
H -0.2265696445 1.6821124799 -0.8087609565
H -0.7841087956 1.4897442945 -2.5027975688
$end

$rem
JOBTYPE                   OPT
METHOD                    B3LYP
DFT_D                     d3_op
BASIS                     STO-3G
GEOM_OPT_MAX_CYCLES       100
GEOM_OPT_TOL_GRADIENT     300
GEOM_OPT_TOL_DISPLACEMENT 1200
GEOM_OPT_TOL_ENERGY       100
SYMMETRY                  False
THRESH                    12
SCF_CONVERGENCE           8
MAX_SUB_FILE_NUM          128
MEM_STATIC                400
MEM_TOTAL                 4000
$end
--------------------------------------------------------------

   16   -1510.2781526403      5.10E-09 Convergence criterion met
 Total energy in the final basis set = -1510.27815264
   14   -1510.2799665709      6.23E-09 Convergence criterion met
 Total energy in the final basis set = -1510.27996657
   14   -1510.2810731133      5.19E-09 Convergence criterion met
 Total energy in the final basis set = -1510.28107311
   14   -1510.2824461294      6.78E-09 Convergence criterion met
 Total energy in the final basis set = -1510.28244613
   14   -1510.2834827481      8.12E-09 Convergence criterion met
 Total energy in the final basis set = -1510.28348275
   14   -1510.2843022160      3.41E-09 Convergence criterion met
 Total energy in the final basis set = -1510.28430222
   13   -1510.2853338146      7.16E-09 Convergence criterion met
 Total energy in the final basis set = -1510.28533381
   13   -1510.2866427148      4.01E-09 Convergence criterion met
   11   -1510.3064393015      3.22E-09 Convergence criterion met
 Total energy in the final basis set = -1510.30643930
   11   -1510.3064416500      3.09E-09 Convergence criterion met
 Total energy in the final basis set = -1510.30644165
   11   -1510.3064479366      7.77E-09 Convergence criterion met
 Total energy in the final basis set = -1510.30644794
   11   -1510.3064449835      3.38E-09 Convergence criterion met
 Total energy in the final basis set = -1510.30644498
   11   -1510.3064502974      7.22E-09 Convergence criterion met
 Total energy in the final basis set = -1510.30645030
   10   -1510.3064513609      7.51E-09 Convergence criterion met
 Total energy in the final basis set = -1510.30645136

             Standard Nuclear Orientation (Angstroms)
    I     Atom           X                Y                Z
 ----------------------------------------------------------------
    1      O      -1.6078185982     2.0241604373     1.9247695055
    2      C      -2.5252729193     1.6712469197     1.1509043684
    3      C      -3.0782636512     0.2131888201     0.9432279063
    4      C      -2.6740182889    -0.4557809783    -0.4342843033
    5      C      -1.8122746664     0.4819254693    -1.3435296770
    6      O      -1.7823119546    -0.0756230862    -2.6595213347
    7      C      -0.8887101061     0.7005590174    -3.5561958934
    8      C       0.5600606930     0.0797664889    -3.5933418767
    9      O       1.2563575585     0.3555754398    -2.3188608870
   10      C       0.9946348722    -0.6986789515    -1.3779297646
   11      C       1.2957846879    -0.2122241317     0.0854306338
   12      C       2.5605720630    -0.8870784909     0.7435285849
   13      C       3.4268855867    -1.6288321536    -0.3249027623
   14      O       3.2386501128    -1.6249727145    -1.5643319488
   15      O      -3.3546010989     2.5760773841     0.4134288861
   16      O       4.5101322672    -2.2999240832     0.3170705913
   17      O       0.4185189092    -1.7699945137    -1.6970720950
   18      C       5.3592993191    -2.9744267164    -0.6931614409
   19      C       1.6743518565     1.3257896360     0.1929064342
   20      C       1.3786046553     1.8047773713     1.6614298887
   21      C       2.4987801576     1.0350784051     2.4528602566
   22      C       3.3329676631     0.3994996236     1.2659129780
   23      O       3.1587486741     1.3421616907     0.1386289845
   24      H       0.3769626242    -0.4493471397     0.6763750070
   25      H       2.3027535892    -1.5830591012     1.5620036594
   26      H       1.2416340500     1.9504724425    -0.6108127576
   27      H       1.5304494153     2.8940328171     1.7294063456
   28      H       0.3440199751     1.5792126313     1.9798789203
   29      H       3.1246051064     1.7178245875     3.0491780584
   30      H       2.0890565490     0.2588291407     3.1188512220
   31      H       4.4070709963     0.2291189765     1.4759117776
   32      O      -1.2345406381     1.5403163518    -1.0038068868
   33      C      -2.8178643155     3.9505532478     0.5278171686
   34      C      -2.4138211925    -0.7872191410     1.9739415963
   35      C      -3.2606632814    -2.1179575462     2.0062281736
   36      C      -2.8453400678    -2.7818758948     0.6389533270
   37      C      -1.8357524516    -1.7156944776     0.0686825041
   38      O      -1.1664809505    -1.2026077705     1.2882119113
   39      H      -4.1774048131     0.2444752099     1.0492955990
   40      H      -3.5591320159    -0.7796399557    -1.0098088281
   41      H      -1.8060121247     4.0208723889     0.0784611599
   42      H      -2.1814470809    -0.3354974608     2.9577659907
   43      H      -2.9665987553    -2.7426155897     2.8646499172
   44      H      -4.3419258179    -1.9165006290     2.0696573469
   45      H      -2.3364083055    -3.7461863000     0.7968910837
   46      H      -3.7024904964    -2.9419015997    -0.0342936129
   47      H      -1.0577504298    -2.0632072813    -0.6561674413
   48      H      -2.7603826197     4.2814692960     1.5848832669
   49      H      -3.5176151568     4.6009218919    -0.0284901051
   50      H       6.1960326574    -3.4305635409    -0.1329115781
   51      H       5.7566712640    -2.2547258542    -1.4375803411
   52      H       4.7989238104    -3.7655013676    -1.2324354169
   53      H       0.4940305243    -1.0151035152    -3.7694896194
   54      H       1.1482327228     0.5658943925    -4.3978830266
   55      H      -0.8320544725     1.7554939401    -3.2121199930
   56      H      -1.3430341296     0.6528626953    -4.5672640930
 ----------------------------------------------------------------

    9   -1510.3064513846      3.05E-09 Convergence criterion met
 Total energy in the final basis set = -1510.30645138
 Final energy is   -1510.30645138460
 **  OPTIMIZATION CONVERGED  **

                    Orbital Energies (a.u.)
 --------------------------------------------------------------

 Alpha MOs
 -- Occupied --
-18.940 -18.937 -18.927 -18.921 -18.896 -18.885 -18.877 -18.869
-18.866 -18.855 -10.107 -10.097 -10.097 -10.089 -10.072 -10.066
-10.064 -10.062 -10.058 -10.048 -10.045 -10.039 -10.036 -10.033
-10.025 -10.021 -10.018 -10.005 -10.001  -9.988  -1.021  -1.012
 -1.004  -0.996  -0.975  -0.951  -0.944  -0.936  -0.931  -0.923
 -0.764  -0.745  -0.725  -0.714  -0.704  -0.700  -0.684  -0.658
 -0.658  -0.614  -0.589  -0.572  -0.545  -0.538  -0.528  -0.517
 -0.511  -0.500  -0.484  -0.470  -0.462  -0.455  -0.449  -0.438
 -0.430  -0.426  -0.417  -0.414  -0.408  -0.406  -0.401  -0.395
 -0.391  -0.378  -0.368  -0.366  -0.358  -0.355  -0.351  -0.345
 -0.343  -0.340  -0.332  -0.328  -0.324  -0.316  -0.313  -0.306
 -0.305  -0.302  -0.293  -0.287  -0.282  -0.277  -0.273  -0.271
 -0.260  -0.254  -0.250  -0.247  -0.234  -0.233  -0.213  -0.191
 -0.178  -0.170  -0.164  -0.153  -0.152  -0.150  -0.148  -0.140
 -0.125

          Ground-State Mulliken Net Atomic Charges

     Atom                 Charge (a.u.)
  ----------------------------------------
      1 O                    -0.218620
      2 C                     0.219112
      3 C                    -0.082068
      4 C                    -0.080092
      5 C                     0.212016
      6 O                    -0.168827
      7 C                    -0.053665
      8 C                    -0.052145
      9 O                    -0.169437
     10 C                     0.216808
     11 C                    -0.099462
     12 C                    -0.078051
     13 C                     0.215156
     14 O                    -0.206800
     15 O                    -0.173195
     16 O                    -0.167809
     17 O                    -0.234867
     18 C                    -0.128049
     19 C                     0.021970
     20 C                    -0.151561
     21 C                    -0.144881
     22 C                     0.023919
     23 O                    -0.196633
     24 H                     0.112243
     25 H                     0.086451
     26 H                     0.091463
     27 H                     0.070219
     28 H                     0.095330
     29 H                     0.072626
     30 H                     0.071287
     31 H                     0.079590
     32 O                    -0.211596
     33 C                    -0.128213
     34 C                     0.025898
     35 C                    -0.143788
     36 C                    -0.143882
     37 C                     0.010710
     38 O                    -0.193015
     39 H                     0.085315
     40 H                     0.088198
     41 H                     0.093673
     42 H                     0.088458
     43 H                     0.078181
     44 H                     0.073641
     45 H                     0.079446
     46 H                     0.074256
     47 H                     0.114097
     48 H                     0.088068
     49 H                     0.087649
     50 H                     0.091013
     51 H                     0.091568
     52 H                     0.089711
     53 H                     0.102035
     54 H                     0.089632
     55 H                     0.097889
     56 H                     0.089028
  ----------------------------------------
  Sum of atomic charges =    -0.000000

                    Cartesian Multipole Moments
 -----------------------------------------------------------------
    Charge (ESU x 10^10)
                -0.0000
    Dipole Moment (Debye)
         X      -2.0379      Y      -0.7800      Z      -0.2453
       Tot       2.1958
    Quadrupole Moments (Debye-Ang)
        XX    -148.2646     XY      -6.7329     YY    -155.4275
        XZ      -0.4223     YZ      -4.0386     ZZ    -152.8421

 Total job time:  124.52s(wall), 5936.30s(cpu)
        *  Thank you very much for using Q-Chem.  Have a nice day.  *
