 Q-Chem 5.0, Q-Chem, Inc., Pleasanton, CA (2017)
 Q-Chem 5.0.1 for Intel X86 EM64T Linux

User input:
--------------------------------------------------------------
$molecule
0  1
O -3.94934 -3.66094 2.70899
C -3.26408 -4.56952 2.26188
C -3.36658 -6.02376 2.66595
C -2.12742 -6.66165 3.31512
C -0.98542 -5.72795 3.64997
O -0.83084 -5.65118 5.00483
C 0.26368 -4.81764 5.4004
C 0.71598 -5.17854 6.81154
O -0.21608 -4.65799 7.77237
C -1.04551 -5.57186 8.33452
C -1.40532 -5.23964 9.7631
C -0.87175 -6.22689 10.81138
C 0.21406 -7.17167 10.33693
O 0.71763 -7.17047 9.22293
O -2.37298 -4.28767 1.27559
O 0.67936 -8.05236 11.26177
O -1.44449 -6.57732 7.76
C 1.6797 -8.9717 11.02499
C -0.82235 -3.91988 10.33173
C -1.68314 -3.4339 11.49819
C -1.3339 -4.45876 12.55663
C -0.24887 -5.25216 11.82221
O 0.36425 -4.30384 10.98241
H -2.51533 -5.15785 9.78591
H -1.68587 -6.86163 11.22564
H -0.73192 -3.10405 9.58254
H -1.27349 -2.44733 11.81394
H -2.76764 -3.32442 11.28221
H -0.90759 -3.92539 13.43517
H -2.17147 -5.11549 12.87754
H 0.41926 -5.76182 12.55097
O -0.30205 -5.13914 2.821
C -2.15181 -3.02615 0.76405
C -4.4277 -6.28385 3.75851
C -4.92649 -7.72308 3.66128
C -3.71035 -8.47365 4.15495
C -2.80459 -7.30191 4.55529
O -3.70116 -6.29896 4.96249
H -3.66733 -6.56454 1.74018
H -1.68225 -7.45282 2.67231
H -1.79534 -2.34563 1.56672
H -5.29261 -5.58652 3.7173
H -5.74169 -7.83515 4.41205
H -5.30408 -8.03377 2.66341
H -4.00547 -9.06858 5.04792
H -3.22073 -9.13173 3.40489
H -2.07587 -7.65698 5.31545
H -3.08641 -2.62443 0.31743
H -1.3748 -3.08507 -0.02539
H 1.85907 -9.56 11.94814
H 2.61991 -8.45037 10.74457
H 1.37733 -9.66522 10.21136
H 0.876 -6.27857 6.8747
H 1.69442 -4.69475 7.01821
H 0.0217 -3.73745 5.29414
H 1.15445 -5.05084 4.7704
$end

$opt
CONSTRAINT
tors           1           2           3           4    -118.053
tors           3           4           5           6    +113.469
tors           4           5           6           7    +178.039
tors           5           6           7           8    -158.412
tors           6           7           8           9     -75.718
tors           7           8           9          10    +104.680
tors           8           9          10          11    +147.291
tors           9          10          11          12    -113.982
tors          11          12          13          14      +2.849
ENDCONSTRAINT
$end

$rem
JOBTYPE                   OPT
METHOD                    B3LYP
DFT_D                     d3_op
BASIS                     STO-3G
GEOM_OPT_MAX_CYCLES       100
GEOM_OPT_TOL_GRADIENT     300
GEOM_OPT_TOL_DISPLACEMENT 1200
GEOM_OPT_TOL_ENERGY       100
SYMMETRY                  False
THRESH                    12
SCF_CONVERGENCE           8
MAX_SUB_FILE_NUM          128
MEM_STATIC                400
MEM_TOTAL                 4000
$end
--------------------------------------------------------------

   15   -1510.1510887645      7.52E-09 Convergence criterion met
 Total energy in the final basis set = -1510.15108876
   13   -1510.2195475461      6.91E-09 Convergence criterion met
 Total energy in the final basis set = -1510.21954755
   13   -1510.2554280822      8.60E-09 Convergence criterion met
 Total energy in the final basis set = -1510.25542808
   13   -1510.2699756498      7.44E-09 Convergence criterion met
 Total energy in the final basis set = -1510.26997565
   12   -1510.2732354838      9.29E-09 Convergence criterion met
 Total energy in the final basis set = -1510.27323548
   12   -1510.2739198725      7.25E-09 Convergence criterion met
 Total energy in the final basis set = -1510.27391987
   12   -1510.2742345992      5.51E-09 Convergence criterion met
 Total energy in the final basis set = -1510.27423460
   10   -1510.2743198052      8.31E-09 Convergence criterion met
    9   -1510.2745288430      9.39E-09 Convergence criterion met
 Total energy in the final basis set = -1510.27452884
    9   -1510.2745304670      5.66E-09 Convergence criterion met
 Total energy in the final basis set = -1510.27453047
    9   -1510.2745325624      4.97E-09 Convergence criterion met
 Total energy in the final basis set = -1510.27453256
    9   -1510.2745346632      8.97E-09 Convergence criterion met
 Total energy in the final basis set = -1510.27453466
    9   -1510.2745370044      5.25E-09 Convergence criterion met
 Total energy in the final basis set = -1510.27453700
    9   -1510.2745382333      5.67E-09 Convergence criterion met
 Total energy in the final basis set = -1510.27453823

             Standard Nuclear Orientation (Angstroms)
    I     Atom           X                Y                Z
 ----------------------------------------------------------------
    1      O      -4.6435092684     1.6698272975     1.4103593391
    2      C      -4.8018230841     0.8411482691     0.4876446318
    3      C      -4.4814499066    -0.6962484228     0.5259580186
    4      C      -3.3773060952    -1.2031565381    -0.5067018068
    5      C      -2.8145567032    -0.1039354405    -1.4835892172
    6      O      -1.4402593551     0.1130797608    -1.1689756597
    7      C      -0.8149370594     1.1031969511    -2.0734451636
    8      C       0.7263981957     0.8310239643    -2.0012431919
    9      O       1.2993238448     1.3484094760    -0.7383129198
   10      C       1.5737221899     0.2650574436     0.1706154489
   11      C       2.8388447311     0.6036989371     1.0469020436
   12      C       4.0807608081    -0.3394017920     0.7720680266
   13      C       3.9708100208    -1.1380278124    -0.5727904244
   14      O       3.0680325263    -1.0716790740    -1.4360322612
   15      O      -5.4176561027     1.1470106411    -0.7664766241
   16      O       5.1173909602    -1.9842733810    -0.6841687663
   17      O       0.8823370205    -0.7725195388     0.2633029348
   18      C       5.0689111249    -2.7410367068    -1.9573701696
   19      C       3.4764807561     2.0370574597     0.8039885248
   20      C       4.2788353609     2.4283883265     2.1043955344
   21      C       5.5027257417     1.4431772453     2.0037491849
   22      C       5.2295323823     0.7503429259     0.6097971283
   23      O       4.5501851045     1.7958869089    -0.1895260667
   24      H       2.5366940656     0.4950276963     2.1049774220
   25      H       4.2757455522    -1.0414860119     1.6020127060
   26      H       2.7633115422     2.7946209160     0.4277528020
   27      H       4.6046911054     3.4795499403     2.0522150565
   28      H       3.6867510120     2.2850529274     3.0224387967
   29      H       6.4615505064     1.9849780287     1.9830520520
   30      H       5.5298849582     0.7118517497     2.8276618122
   31      H       6.1292980340     0.3757452605     0.0837258711
   32      O      -3.4071994220     0.4564956614    -2.4316350297
   33      C      -5.7211375982     2.5937879156    -0.8472958432
   34      C      -3.8117503487    -1.0934040935     1.9031276535
   35      C      -3.8988337064    -2.6607558520     2.0766297445
   36      C      -2.7818360045    -3.1396003540     1.0759989778
   37      C      -2.2743391253    -1.7595604339     0.4985292513
   38      O      -2.3732798545    -0.8457765237     1.6599607512
   39      H      -5.4311890597    -1.2367373023     0.3555398697
   40      H      -3.8002578178    -2.0086291570    -1.1346289058
   41      H      -4.7980187184     3.2063114413    -0.7943145520
   42      H      -4.1686644409    -0.4911010078     2.7610234505
   43      H      -3.6634489735    -2.9480315973     3.1137548434
   44      H      -4.8962957806    -3.0526444140     1.8206531062
   45      H      -1.9642978602    -3.6578530586     1.6018352392
   46      H      -3.1719339884    -3.8034109327     0.2878970401
   47      H      -1.2391145984    -1.7434727066     0.1017426751
   48      H      -6.4046506149     2.9156923084    -0.0349554266
   49      H      -6.2089221773     2.7472968809    -1.8272734874
   50      H       5.9685009379    -3.3834554834    -1.9642635220
   51      H       5.0896780803    -2.0633000793    -2.8351814177
   52      H       4.1597024034    -3.3729911220    -2.0216483038
   53      H       0.9250904620    -0.2546669400    -2.1137837499
   54      H       1.2319130724     1.3852319532    -2.8210938032
   55      H      -1.0408113323     2.1389599134    -1.7370256503
   56      H      -1.1938685501     0.9812322545    -3.1120592113
 ----------------------------------------------------------------

    9   -1510.2745387678      3.70E-09 Convergence criterion met
 Total energy in the final basis set = -1510.27453877
 Final energy is   -1510.27453876782
 **  OPTIMIZATION CONVERGED  **

                    Orbital Energies (a.u.)
 --------------------------------------------------------------

 Alpha MOs
 -- Occupied --
-18.942 -18.927 -18.926 -18.914 -18.885 -18.884 -18.873 -18.868
-18.867 -18.865 -10.106 -10.094 -10.090 -10.090 -10.069 -10.066
-10.065 -10.061 -10.057 -10.055 -10.047 -10.041 -10.041 -10.032
-10.029 -10.028 -10.020 -10.018 -10.011 -10.008  -1.019  -1.007
 -1.002  -0.995  -0.969  -0.956  -0.943  -0.931  -0.927  -0.923
 -0.762  -0.752  -0.723  -0.717  -0.710  -0.700  -0.686  -0.666
 -0.655  -0.607  -0.593  -0.573  -0.544  -0.536  -0.534  -0.526
 -0.512  -0.504  -0.482  -0.474  -0.462  -0.455  -0.449  -0.438
 -0.433  -0.421  -0.416  -0.412  -0.410  -0.405  -0.404  -0.396
 -0.389  -0.378  -0.372  -0.365  -0.363  -0.355  -0.344  -0.342
 -0.339  -0.336  -0.330  -0.328  -0.322  -0.319  -0.315  -0.311
 -0.304  -0.302  -0.300  -0.295  -0.286  -0.281  -0.273  -0.272
 -0.268  -0.259  -0.247  -0.240  -0.238  -0.233  -0.220  -0.184
 -0.174  -0.166  -0.161  -0.158  -0.148  -0.147  -0.142  -0.138
 -0.130

          Ground-State Mulliken Net Atomic Charges

     Atom                 Charge (a.u.)
  ----------------------------------------
      1 O                    -0.213894
      2 C                     0.206148
      3 C                    -0.078411
      4 C                    -0.078417
      5 C                     0.205548
      6 O                    -0.168145
      7 C                    -0.048997
      8 C                    -0.045391
      9 O                    -0.180875
     10 C                     0.221711
     11 C                    -0.081502
     12 C                    -0.077282
     13 C                     0.215390
     14 O                    -0.213145
     15 O                    -0.165080
     16 O                    -0.169584
     17 O                    -0.207128
     18 C                    -0.128268
     19 C                     0.024035
     20 C                    -0.143167
     21 C                    -0.144629
     22 C                     0.024334
     23 O                    -0.192440
     24 H                     0.084008
     25 H                     0.088710
     26 H                     0.093288
     27 H                     0.077657
     28 H                     0.074420
     29 H                     0.077932
     30 H                     0.073934
     31 H                     0.084667
     32 O                    -0.213940
     33 C                    -0.126890
     34 C                     0.023358
     35 C                    -0.144664
     36 C                    -0.144753
     37 C                     0.019898
     38 O                    -0.189760
     39 H                     0.083156
     40 H                     0.082503
     41 H                     0.087762
     42 H                     0.086673
     43 H                     0.075752
     44 H                     0.070519
     45 H                     0.076740
     46 H                     0.070062
     47 H                     0.106504
     48 H                     0.087188
     49 H                     0.091730
     50 H                     0.091941
     51 H                     0.090144
     52 H                     0.091050
     53 H                     0.105168
     54 H                     0.086717
     55 H                     0.086694
     56 H                     0.091023
  ----------------------------------------
  Sum of atomic charges =    -0.000000

                    Cartesian Multipole Moments
 -----------------------------------------------------------------
    Charge (ESU x 10^10)
                -0.0000
    Dipole Moment (Debye)
         X       1.8883      Y      -1.3913      Z      -0.2377
       Tot       2.3575
    Quadrupole Moments (Debye-Ang)
        XX    -145.2685     XY      -1.6045     YY    -151.7998
        XZ       1.3210     YZ       0.9524     ZZ    -157.6349

 Total job time:  75.52s(wall), 3593.19s(cpu)
        *  Thank you very much for using Q-Chem.  Have a nice day.  *
