 Q-Chem 5.0, Q-Chem, Inc., Pleasanton, CA (2017)
 Q-Chem 5.0.1 for Intel X86 EM64T Linux

User input:
--------------------------------------------------------------
$molecule
0  1
O -4.6435092684 1.6698272975 1.4103593391
C -4.8018230841 0.8411482691 0.4876446318
C -4.4814499066 -0.6962484228 0.5259580186
C -3.3773060952 -1.2031565381 -0.5067018068
C -2.8145567032 -0.1039354405 -1.4835892172
O -1.4402593551 0.1130797608 -1.1689756597
C -0.8149370594 1.1031969511 -2.0734451636
C 0.7263981957 0.8310239643 -2.0012431919
O 1.2993238448 1.348409476 -0.7383129198
C 1.5737221899 0.2650574436 0.1706154489
C 2.8388447311 0.6036989371 1.0469020436
C 4.0807608081 -0.339401792 0.7720680266
C 3.9708100208 -1.1380278124 -0.5727904244
O 3.0680325263 -1.071679074 -1.4360322612
O -5.4176561027 1.1470106411 -0.7664766241
O 5.1173909602 -1.984273381 -0.6841687663
O 0.8823370205 -0.7725195388 0.2633029348
C 5.0689111249 -2.7410367068 -1.9573701696
C 3.4764807561 2.0370574597 0.8039885248
C 4.2788353609 2.4283883265 2.1043955344
C 5.5027257417 1.4431772453 2.0037491849
C 5.2295323823 0.7503429259 0.6097971283
O 4.5501851045 1.7958869089 -0.1895260667
H 2.5366940656 0.4950276963 2.104977422
H 4.2757455522 -1.0414860119 1.602012706
H 2.7633115422 2.794620916 0.427752802
H 4.6046911054 3.4795499403 2.0522150565
H 3.686751012 2.2850529274 3.0224387967
H 6.4615505064 1.9849780287 1.983052052
H 5.5298849582 0.7118517497 2.8276618122
H 6.129298034 0.3757452605 0.0837258711
O -3.407199422 0.4564956614 -2.4316350297
C -5.7211375982 2.5937879156 -0.8472958432
C -3.8117503487 -1.0934040935 1.9031276535
C -3.8988337064 -2.660755852 2.0766297445
C -2.7818360045 -3.139600354 1.0759989778
C -2.2743391253 -1.7595604339 0.4985292513
O -2.3732798545 -0.8457765237 1.6599607512
H -5.4311890597 -1.2367373023 0.3555398697
H -3.8002578178 -2.008629157 -1.1346289058
H -4.7980187184 3.2063114413 -0.794314552
H -4.1686644409 -0.4911010078 2.7610234505
H -3.6634489735 -2.9480315973 3.1137548434
H -4.8962957806 -3.052644414 1.8206531062
H -1.9642978602 -3.6578530586 1.6018352392
H -3.1719339884 -3.8034109327 0.2878970401
H -1.2391145984 -1.7434727066 0.1017426751
H -6.4046506149 2.9156923084 -0.0349554266
H -6.2089221773 2.7472968809 -1.8272734874
H 5.9685009379 -3.3834554834 -1.964263522
H 5.0896780803 -2.0633000793 -2.8351814177
H 4.1597024034 -3.372991122 -2.0216483038
H 0.925090462 -0.25466694 -2.1137837499
H 1.2319130724 1.3852319532 -2.8210938032
H -1.0408113323 2.1389599134 -1.7370256503
H -1.1938685501 0.9812322545 -3.1120592113
$end

$rem
JOBTYPE                   OPT
METHOD                    B3LYP
DFT_D                     d3_op
BASIS                     STO-3G
GEOM_OPT_MAX_CYCLES       100
GEOM_OPT_TOL_GRADIENT     300
GEOM_OPT_TOL_DISPLACEMENT 1200
GEOM_OPT_TOL_ENERGY       100
SYMMETRY                  False
THRESH                    12
SCF_CONVERGENCE           8
MAX_SUB_FILE_NUM          128
MEM_STATIC                400
MEM_TOTAL                 4000
$end
--------------------------------------------------------------

   16   -1510.2745082978      4.47E-09 Convergence criterion met
 Total energy in the final basis set = -1510.27450830
   14   -1510.2784662182      5.48E-09 Convergence criterion met
 Total energy in the final basis set = -1510.27846622
   14   -1510.2820411822      3.92E-09 Convergence criterion met
 Total energy in the final basis set = -1510.28204118
   14   -1510.2841307439      6.52E-09 Convergence criterion met
 Total energy in the final basis set = -1510.28413074
   14   -1510.2854998073      5.20E-09 Convergence criterion met
 Total energy in the final basis set = -1510.28549981
   14   -1510.2868612193      6.22E-09 Convergence criterion met
 Total energy in the final basis set = -1510.28686122
   14   -1510.2888348773      2.84E-09 Convergence criterion met
 Total energy in the final basis set = -1510.28883488
   15   -1510.2831509759      4.08E-09 Convergence criterion met
   11   -1510.2988339568      8.11E-09 Convergence criterion met
 Total energy in the final basis set = -1510.29883396
   12   -1510.2988197897      2.19E-09 Convergence criterion met
 Total energy in the final basis set = -1510.29881979
   11   -1510.2988230132      6.34E-09 Convergence criterion met
 Total energy in the final basis set = -1510.29882301
   11   -1510.2988346852      5.30E-09 Convergence criterion met
 Total energy in the final basis set = -1510.29883469
    9   -1510.2988319096      9.97E-09 Convergence criterion met
 Total energy in the final basis set = -1510.29883191
    9   -1510.2988314269      2.05E-09 Convergence criterion met
 Total energy in the final basis set = -1510.29883143

             Standard Nuclear Orientation (Angstroms)
    I     Atom           X                Y                Z
 ----------------------------------------------------------------
    1      O      -1.6858465719     1.8527552192     1.4910848532
    2      C      -2.6397001566     1.2312769374     0.9766040685
    3      C      -3.0210787560    -0.2780890716     1.1885509323
    4      C      -2.7532660170    -1.1818632320    -0.0887740419
    5      C      -2.5591408242    -0.4405592312    -1.4507996085
    6      O      -1.5347435901     0.5587739017    -1.3490888047
    7      C      -1.2876488793     1.1759590405    -2.6787184824
    8      C       0.0756597178     0.6284040158    -3.2486653603
    9      O       1.0959717742     0.7657358687    -2.1885623581
   10      C       1.0164525759    -0.3760697363    -1.3116419153
   11      C       1.4605215053     0.0186718353     0.1415269982
   12      C       2.8720503563    -0.5271941515     0.5845866727
   13      C       3.6748774447    -1.0813093911    -0.6374239199
   14      O       3.3145614416    -1.0523416316    -1.8373001411
   15      O      -3.6066385040     1.8138265219     0.0950653410
   16      O       4.9215556839    -1.6147557593    -0.1900228612
   17      O       0.4957917317    -1.4680699627    -1.6499316712
   18      C       5.7071122025    -2.1031149506    -1.3480060357
   19      C       1.6483280952     1.5768908109     0.3686368916
   20      C       1.4834870701     1.8508424586     1.9121240033
   21      C       2.8164692291     1.2258141501     2.4669258279
   22      C       3.5438759358     0.8071528841     1.1251704861
   23      O       3.0953253715     1.8139285834     0.1383189418
   24      H       0.6475384522    -0.3744570540     0.7966635604
   25      H       2.8076274321    -1.3045020884     1.3673107617
   26      H       1.0362730940     2.2108144956    -0.2997159964
   27      H       1.4375028479     2.9342654488     2.1064098973
   28      H       0.5701642324     1.3817859103     2.3124590871
   29      H       3.4169755783     1.9668637884     3.0180711698
   30      H       2.6378198346     0.3587024954     3.1229520398
   31      H       4.6495406390     0.7695380109     1.1767401800
   32      O      -3.1875767180    -0.6831269109    -2.5056955389
   33      C      -3.2553826541     3.2264619634    -0.1731810578
   34      C      -2.0324022278    -0.9430428903     2.2259798362
   35      C      -2.5126530353    -2.4144566872     2.5537302026
   36      C      -2.0180362596    -3.2026832458     1.2794292239
   37      C      -1.4781223923    -2.0195891179     0.3915495630
   38      O      -0.8237852439    -1.1570182867     1.4012604402
   39      H      -4.0798612414    -0.3405456789     1.4990996354
   40      H      -3.6070482424    -1.8644060003    -0.2445572611
   41      H      -2.2107730209     3.3231363654    -0.5316093125
   42      H      -1.7958808828    -0.3077297348     3.1015281088
   43      H      -2.0308585555    -2.7836295432     3.4727256438
   44      H      -3.6056471967    -2.4679028947     2.6829625483
   45      H      -1.1993960798    -3.8961715783     1.5308648749
   46      H      -2.8245623936    -3.7695372116     0.7878265590
   47      H      -0.7391561097    -2.2363921116    -0.4171196781
   48      H      -3.3751363232     3.8546068562     0.7334803851
   49      H      -3.9539810440     3.5733685130    -0.9566815888
   50      H       6.6470042303    -2.5078642570    -0.9298796004
   51      H       5.9380475256    -1.2823201165    -2.0572919652
   52      H       5.1692920564    -2.9025083176    -1.8975368478
   53      H      -0.0348582523    -0.4360291211    -3.5468162776
   54      H       0.4028612293     1.2377490819    -4.1145310592
   55      H      -1.2232310551     2.2710463148    -2.5197869459
   56      H      -2.1310661050     0.9275043445    -3.3585680479
 ----------------------------------------------------------------

    8   -1510.2988313163      6.28E-09 Convergence criterion met
 Total energy in the final basis set = -1510.29883132
 Final energy is   -1510.29883131626
 **  OPTIMIZATION CONVERGED  **

                    Orbital Energies (a.u.)
 --------------------------------------------------------------

 Alpha MOs
 -- Occupied --
-18.936 -18.935 -18.935 -18.911 -18.899 -18.878 -18.877 -18.877
-18.870 -18.850 -10.103 -10.102 -10.096 -10.085 -10.066 -10.066
-10.066 -10.063 -10.062 -10.052 -10.048 -10.042 -10.038 -10.037
-10.026 -10.024 -10.021 -10.006 -10.002  -9.999  -1.018  -1.011
 -1.009  -0.991  -0.978  -0.954  -0.938  -0.937  -0.935  -0.918
 -0.767  -0.747  -0.726  -0.712  -0.707  -0.700  -0.684  -0.665
 -0.658  -0.611  -0.591  -0.575  -0.547  -0.540  -0.531  -0.520
 -0.512  -0.500  -0.484  -0.477  -0.463  -0.457  -0.446  -0.440
 -0.432  -0.420  -0.419  -0.417  -0.413  -0.408  -0.407  -0.397
 -0.386  -0.375  -0.368  -0.364  -0.360  -0.358  -0.352  -0.348
 -0.344  -0.341  -0.328  -0.328  -0.322  -0.319  -0.312  -0.310
 -0.304  -0.303  -0.297  -0.293  -0.290  -0.287  -0.274  -0.273
 -0.261  -0.255  -0.252  -0.247  -0.233  -0.229  -0.213  -0.184
 -0.178  -0.177  -0.162  -0.154  -0.153  -0.151  -0.148  -0.137
 -0.128

          Ground-State Mulliken Net Atomic Charges

     Atom                 Charge (a.u.)
  ----------------------------------------
      1 O                    -0.212142
      2 C                     0.215424
      3 C                    -0.078283
      4 C                    -0.081338
      5 C                     0.214028
      6 O                    -0.175841
      7 C                    -0.056389
      8 C                    -0.051944
      9 O                    -0.173551
     10 C                     0.224878
     11 C                    -0.101039
     12 C                    -0.078973
     13 C                     0.214215
     14 O                    -0.204977
     15 O                    -0.172529
     16 O                    -0.168864
     17 O                    -0.237424
     18 C                    -0.128172
     19 C                     0.025568
     20 C                    -0.144056
     21 C                    -0.144684
     22 C                     0.024334
     23 O                    -0.195277
     24 H                     0.117484
     25 H                     0.084821
     26 H                     0.085913
     27 H                     0.073097
     28 H                     0.084628
     29 H                     0.073697
     30 H                     0.071277
     31 H                     0.080714
     32 O                    -0.211512
     33 C                    -0.128095
     34 C                     0.027543
     35 C                    -0.144698
     36 C                    -0.142464
     37 C                     0.014887
     38 O                    -0.192408
     39 H                     0.086580
     40 H                     0.086581
     41 H                     0.090537
     42 H                     0.087750
     43 H                     0.078345
     44 H                     0.074130
     45 H                     0.079014
     46 H                     0.075465
     47 H                     0.113176
     48 H                     0.087382
     49 H                     0.090164
     50 H                     0.090627
     51 H                     0.090904
     52 H                     0.090456
     53 H                     0.097877
     54 H                     0.088279
     55 H                     0.083518
     56 H                     0.101366
  ----------------------------------------
  Sum of atomic charges =     0.000000

                    Cartesian Multipole Moments
 -----------------------------------------------------------------
    Charge (ESU x 10^10)
                 0.0000
    Dipole Moment (Debye)
         X      -1.3101      Y      -0.3842      Z       1.6098
       Tot       2.1108
    Quadrupole Moments (Debye-Ang)
        XX    -151.1041     XY      -8.1476     YY    -154.2707
        XZ      -4.7361     YZ      -6.4642     ZZ    -156.8768

 Total job time:  114.53s(wall), 5457.24s(cpu)
        *  Thank you very much for using Q-Chem.  Have a nice day.  *
