 Q-Chem 5.0, Q-Chem, Inc., Pleasanton, CA (2017)
 Q-Chem 5.0.1 for Intel X86 EM64T Linux

User input:
--------------------------------------------------------------
$molecule
0  1
O -5.6021156768 0.4555604283 2.0826347738
C -5.3346980502 0.7922976406 0.9099355043
C -5.1245781951 -0.1545775948 -0.330511573
C -3.6634416731 -0.1448934758 -0.9331919435
C -2.6434715657 0.5835804654 0.0086259396
O -1.3348822801 0.4487860415 -0.5398537992
C -0.3447172426 1.1682432532 0.3021703088
C 1.035458807 1.1084986703 -0.4521560559
O 1.9846332685 0.2297867841 0.2694101634
C 2.3386826924 -0.9120388545 -0.5301133622
C 3.8110416016 -1.3695116796 -0.2123479581
C 4.9254819348 -0.2555708451 -0.3264351178
C 4.5615222777 0.9973022967 -1.1892256568
O 3.4873089743 1.2670822293 -1.7677388563
O -5.3675857745 2.1450281047 0.4239257065
O 5.7139022325 1.8476752769 -1.2168939856
O 1.5897875526 -1.4178309545 -1.3944754654
C 5.4245942357 3.0677945582 -2.005282795
C 3.9204318491 -1.6892758241 1.3459242812
C 5.3190485071 -2.3575821422 1.6629693372
C 6.2706597445 -1.1029962427 1.6634190895
C 5.2642255011 0.024208947 1.2080137161
O 4.0278113081 -0.3330729993 1.9341202409
H 4.0364007101 -2.2465393269 -0.8438798713
H 5.8201866244 -0.6951212536 -0.8066566527
H 3.0434546969 -2.2215264524 1.7629848994
H 5.2975960729 -2.8523108474 2.6467015775
H 5.599592619 -3.101910985 0.9003402628
H 6.650407553 -0.8876030301 2.6751692868
H 7.1261290109 -1.2081025178 0.9774073185
H 5.5713888322 1.063797668 1.4330568403
O -2.8967829939 1.1701319898 1.0861032127
C -5.5229396669 3.0765803605 1.5614912491
C -5.2961055338 -1.6877483734 0.0366497456
C -5.6389847705 -2.466497036 -1.2912296416
C -4.2506693004 -2.4106356056 -2.0332953328
C -3.3459688534 -1.7024290106 -0.9470894017
O -3.9200100207 -2.1454652734 0.3445066419
H -5.8520102791 0.150968219 -1.104348324
H -3.6191044937 0.3032530007 -1.9420375806
H -4.6460638757 3.0298434168 2.2395425718
H -5.9662414436 -1.8736042992 0.8983622155
H -5.9305274313 -3.5044091969 -1.0637291327
H -6.4501347523 -1.9873998034 -1.8624732075
H -3.8676017518 -3.4186957696 -2.2573627774
H -4.2946791553 -1.8329624253 -2.9704999612
H -2.265220324 -1.9391785826 -1.000815877
H -6.4365446839 2.8573766747 2.151547964
H -5.5984091671 4.0890797142 1.1237912286
H 6.3446757702 3.679519941 -1.9688030212
H 4.579723113 3.6418172691 -1.5730000376
H 5.1816244024 2.8254496392 -3.060142779
H 0.8625464648 0.7409182348 -1.4856154402
H 1.4938245244 2.118513004 -0.4862981684
H -0.2506848637 0.6859023669 1.3003028945
H -0.6703599943 2.2191644264 0.4594022782
$end

$rem
JOBTYPE                   OPT
METHOD                    B3LYP
DFT_D                     d3_op
BASIS                     STO-3G
GEOM_OPT_MAX_CYCLES       100
GEOM_OPT_TOL_GRADIENT     300
GEOM_OPT_TOL_DISPLACEMENT 1200
GEOM_OPT_TOL_ENERGY       100
SYMMETRY                  False
THRESH                    12
SCF_CONVERGENCE           8
MAX_SUB_FILE_NUM          128
MEM_STATIC                400
MEM_TOTAL                 4000
$end
--------------------------------------------------------------

   16   -1510.2739937896      5.60E-09 Convergence criterion met
 Total energy in the final basis set = -1510.27399379
   14   -1510.2783190440      2.45E-09 Convergence criterion met
 Total energy in the final basis set = -1510.27831904
   14   -1510.2815715962      2.11E-09 Convergence criterion met
 Total energy in the final basis set = -1510.28157160
   13   -1510.2831594698      8.94E-09 Convergence criterion met
 Total energy in the final basis set = -1510.28315947
   13   -1510.2841124150      8.03E-09 Convergence criterion met
 Total energy in the final basis set = -1510.28411241
   13   -1510.2849251292      7.68E-09 Convergence criterion met
 Total energy in the final basis set = -1510.28492513
   13   -1510.2855438760      5.96E-09 Convergence criterion met
 Total energy in the final basis set = -1510.28554388
   13   -1510.2861106109      7.24E-09 Convergence criterion met
   12   -1510.3052648665      4.65E-09 Convergence criterion met
 Total energy in the final basis set = -1510.30526487
   12   -1510.3052673330      2.38E-09 Convergence criterion met
 Total energy in the final basis set = -1510.30526733
   11   -1510.3052714581      7.59E-09 Convergence criterion met
 Total energy in the final basis set = -1510.30527146
   10   -1510.3052771367      6.40E-09 Convergence criterion met
 Total energy in the final basis set = -1510.30527714
   10   -1510.3052749887      9.54E-09 Convergence criterion met
 Total energy in the final basis set = -1510.30527499
    9   -1510.3052735295      4.46E-09 Convergence criterion met
 Total energy in the final basis set = -1510.30527353

             Standard Nuclear Orientation (Angstroms)
    I     Atom           X                Y                Z
 ----------------------------------------------------------------
    1      O      -2.1102272268    -0.6868098164     2.3533226180
    2      C      -2.9054610385    -0.3130383324     1.4652204772
    3      C      -3.1532600102    -0.9874246033     0.0636601488
    4      C      -2.5547659584    -0.1875559569    -1.1656230402
    5      C      -1.8277127267     1.1306018501    -0.7427900666
    6      O      -1.6035639351     1.9273770005    -1.9037894000
    7      C      -0.8012599168     3.1325876121    -1.5717917672
    8      C       0.7339250647     2.8659682277    -1.7960347079
    9      O       1.2477402490     1.9222032773    -0.7802652767
   10      C       1.2503230006     0.5857131946    -1.3058633094
   11      C       1.5759099516    -0.4362659554    -0.1597695855
   12      C       3.1118909824    -0.6040249148     0.1686179954
   13      C       4.0107136621     0.3145297305    -0.7220531251
   14      O       3.6432589882     0.9840171087    -1.7154863298
   15      O      -3.8587705126     0.7483995135     1.6222688939
   16      O       5.3529607635     0.2794834964    -0.2373381603
   17      O       0.8728494699     0.2963116407    -2.4679421210
   18      C       6.2134780063     1.1563487514    -1.0659147206
   19      C       1.0179463264     0.0436403799     1.2483408432
   20      C       0.9908439340    -1.2107599168     2.2038617509
   21      C       2.5193387352    -1.3710708930     2.5447109317
   22      C       3.1416867494    -0.1867090104     1.7042775989
   23      O       2.1186776288     0.8771697151     1.7879847354
   24      H       1.1104020430    -1.3944664613    -0.4518116350
   25      H       3.4462364857    -1.6494076069     0.0351846890
   26      H       0.0677921179     0.6164915636     1.1828316497
   27      H       0.3866413758    -0.9980665389     3.0995841652
   28      H       0.5664464775    -2.0916026487     1.6970812859
   29      H       2.7139745247    -1.2201928930     3.6185932552
   30      H       2.9256921437    -2.3508950811     2.2466109595
   31      H       4.1271521921     0.1815130624     2.0504789429
   32      O      -1.4795515940     1.4597823775     0.4174978359
   33      C      -3.6112667016     1.4514578449     2.9000852378
   34      C      -2.3612064821    -2.3548479373    -0.0517469488
   35      C      -2.9464537483    -3.1766851473    -1.2660099291
   36      C      -2.3505188045    -2.3802764319    -2.4875565924
   37      C      -1.5238760191    -1.2558153653    -1.7510177745
   38      O      -1.0253461016    -1.9359394605    -0.5344958588
   39      H      -4.2417701264    -1.1290565180    -0.0612162172
   40      H      -3.3284325641     0.0639242128    -1.9124636304
   41      H      -2.6121269087     1.9336497812     2.9034327986
   42      H      -2.2700130103    -2.9042910346     0.9051977821
   43      H      -2.5779769474    -4.2147051758    -1.2423373808
   44      H      -4.0480433040    -3.1928679373    -1.2646925152
   45      H      -1.6815859082    -3.0117324570    -3.0939129295
   46      H      -3.1295541131    -1.9605076104    -3.1435965938
   47      H      -0.6704267316    -0.8076190239    -2.3120022514
   48      H      -3.6735985229     0.7621825510     3.7668773747
   49      H      -4.3968254609     2.2249009119     2.9833905091
   50      H       7.2230710532     1.1028929965    -0.6187648614
   51      H       5.8552929990     2.2059572883    -1.0536961538
   52      H       6.2542096205     0.8098959941    -2.1188927782
   53      H       0.8953452144     2.4512929468    -2.8140784321
   54      H       1.2920360159     3.8166619650    -1.6727046347
   55      H      -0.9806695362     3.4243543473    -0.5151626765
   56      H      -1.1454563116     3.9350328303    -2.2558443677
 ----------------------------------------------------------------

    9   -1510.3052724307      8.06E-09 Convergence criterion met
 Total energy in the final basis set = -1510.30527243
 Final energy is   -1510.30527243070
 **  OPTIMIZATION CONVERGED  **

                    Orbital Energies (a.u.)
 --------------------------------------------------------------

 Alpha MOs
 -- Occupied --
-18.944 -18.940 -18.922 -18.919 -18.887 -18.883 -18.881 -18.870
-18.860 -18.859 -10.108 -10.101 -10.091 -10.090 -10.073 -10.066
-10.065 -10.055 -10.053 -10.047 -10.046 -10.037 -10.031 -10.031
-10.030 -10.017 -10.016 -10.015 -10.005  -9.996  -1.022  -1.015
 -0.999  -0.997  -0.967  -0.953  -0.944  -0.939  -0.925  -0.924
 -0.760  -0.750  -0.723  -0.712  -0.705  -0.697  -0.687  -0.660
 -0.653  -0.613  -0.590  -0.573  -0.541  -0.535  -0.531  -0.518
 -0.507  -0.504  -0.485  -0.471  -0.457  -0.455  -0.448  -0.435
 -0.429  -0.424  -0.417  -0.414  -0.410  -0.404  -0.402  -0.397
 -0.392  -0.379  -0.370  -0.364  -0.359  -0.353  -0.349  -0.343
 -0.341  -0.337  -0.331  -0.327  -0.322  -0.319  -0.315  -0.304
 -0.299  -0.298  -0.298  -0.289  -0.280  -0.278  -0.274  -0.267
 -0.262  -0.255  -0.252  -0.243  -0.235  -0.230  -0.217  -0.190
 -0.181  -0.165  -0.164  -0.156  -0.154  -0.143  -0.142  -0.141
 -0.128

          Ground-State Mulliken Net Atomic Charges

     Atom                 Charge (a.u.)
  ----------------------------------------
      1 O                    -0.218511
      2 C                     0.214672
      3 C                    -0.081720
      4 C                    -0.079370
      5 C                     0.217070
      6 O                    -0.166233
      7 C                    -0.053130
      8 C                    -0.052168
      9 O                    -0.167875
     10 C                     0.217539
     11 C                    -0.086372
     12 C                    -0.079160
     13 C                     0.214823
     14 O                    -0.208822
     15 O                    -0.176263
     16 O                    -0.167772
     17 O                    -0.229577
     18 C                    -0.127786
     19 C                     0.018778
     20 C                    -0.143741
     21 C                    -0.144712
     22 C                     0.024648
     23 O                    -0.192542
     24 H                     0.097907
     25 H                     0.085647
     26 H                     0.102049
     27 H                     0.083246
     28 H                     0.078067
     29 H                     0.074551
     30 H                     0.069739
     31 H                     0.082835
     32 O                    -0.211872
     33 C                    -0.128728
     34 C                     0.024925
     35 C                    -0.144459
     36 C                    -0.144023
     37 C                     0.012195
     38 O                    -0.197636
     39 H                     0.083656
     40 H                     0.087656
     41 H                     0.092357
     42 H                     0.086430
     43 H                     0.076501
     44 H                     0.072428
     45 H                     0.078037
     46 H                     0.073099
     47 H                     0.106304
     48 H                     0.086644
     49 H                     0.086103
     50 H                     0.091722
     51 H                     0.091473
     52 H                     0.089762
     53 H                     0.102574
     54 H                     0.089043
     55 H                     0.100263
     56 H                     0.089730
  ----------------------------------------
  Sum of atomic charges =    -0.000000

                    Cartesian Multipole Moments
 -----------------------------------------------------------------
    Charge (ESU x 10^10)
                 0.0000
    Dipole Moment (Debye)
         X      -0.4122      Y       0.1510      Z      -0.9554
       Tot       1.0514
    Quadrupole Moments (Debye-Ang)
        XX    -141.2023     XY       1.4075     YY    -149.3683
        XZ      -0.7978     YZ      -1.9789     ZZ    -163.2238

 Total job time:  123.33s(wall), 5864.89s(cpu)
        *  Thank you very much for using Q-Chem.  Have a nice day.  *
