 Q-Chem 5.0, Q-Chem, Inc., Pleasanton, CA (2017)
 Q-Chem 5.0.1 for Intel X86 EM64T Linux

User input:
--------------------------------------------------------------
$molecule
0  1
O -3.94934 -3.66094 2.70899
C -3.26408 -4.56952 2.26188
C -3.36658 -6.02376 2.66595
C -2.15507 -6.64055 3.38405
C -1.04704 -5.68848 3.77637
O -0.09858 -6.35334 4.50013
C 1.00899 -5.52591 4.87148
C 2.09275 -6.36657 5.53848
O 2.17281 -6.04282 6.9355
C 1.86245 -7.05197 7.78664
C 2.62863 -6.98224 9.08616
C 4.15429 -6.8953 8.93424
C 4.66125 -6.53499 7.55226
O 3.95981 -6.26645 6.58768
O -2.37569 -4.2919 1.27013
O 6.01152 -6.46349 7.41556
O 1.10686 -7.97471 7.50968
C 6.656 -6.12656 6.24377
C 2.3598 -5.69709 9.89529
C 2.66881 -5.9489 11.37018
C 4.1807 -6.06078 11.32766
C 4.44198 -5.70163 9.85956
O 3.3966 -4.81809 9.53002
H 2.31888 -7.8589 9.70018
H 4.65139 -7.84601 9.22737
H 1.32376 -5.31151 9.77486
H 2.39674 -5.01721 11.91661
H 2.14301 -6.80982 11.83616
H 4.60805 -5.2943 12.01147
H 4.58988 -7.06489 11.573
H 5.47307 -5.30411 9.7327
O -0.99478 -4.48764 3.54095
C -2.16467 -3.03408 0.74508
C -4.45943 -6.25691 3.73249
C -4.91126 -7.71699 3.71324
C -3.71039 -8.39092 4.33874
C -2.84333 -7.17031 4.65919
O -3.7755 -6.16089 4.95637
H -3.64206 -6.58346 1.74408
H -1.68546 -7.4532 2.78603
H -1.81258 -2.3419 1.53961
H -5.34369 -5.59353 3.6119
H -5.77226 -7.81038 4.41342
H -5.20697 -8.10175 2.71354
H -4.03635 -8.88445 5.28156
H -3.18293 -9.12356 3.69029
H -2.12777 -7.42242 5.472
H -3.10304 -2.64436 0.29578
H -1.38853 -3.09538 -0.04502
H 7.75213 -6.14586 6.41279
H 6.36075 -5.10392 5.92521
H 6.40358 -6.85628 5.44487
H 1.9263 -7.44817 5.32089
H 2.93742 -6.1212 4.83102
H 0.69885 -4.67976 5.52624
H 1.41902 -5.07621 3.93132
$end

$opt
CONSTRAINT
tors           1           2           3           4    -114.818
tors           3           4           5           6    +174.883
tors           4           5           6           7    +178.039
tors           5           6           7           8    -173.759
tors           6           7           8           9    -110.446
tors           7           8           9          10    +116.256
tors           8           9          10          11    +148.393
tors           9          10          11          12     -53.582
tors          11          12          13          14      +2.849
ENDCONSTRAINT
$end

$rem
JOBTYPE                   OPT
METHOD                    B3LYP
DFT_D                     d3_op
BASIS                     STO-3G
GEOM_OPT_MAX_CYCLES       100
GEOM_OPT_TOL_GRADIENT     300
GEOM_OPT_TOL_DISPLACEMENT 1200
GEOM_OPT_TOL_ENERGY       100
SYMMETRY                  False
THRESH                    12
SCF_CONVERGENCE           8
MAX_SUB_FILE_NUM          128
MEM_STATIC                400
MEM_TOTAL                 4000
$end
--------------------------------------------------------------

   16   -1510.0618646831      3.94E-09 Convergence criterion met
 Total energy in the final basis set = -1510.06186468
   14   -1510.1455963851      5.64E-09 Convergence criterion met
 Total energy in the final basis set = -1510.14559639
   14   -1510.2012742792      5.91E-09 Convergence criterion met
 Total energy in the final basis set = -1510.20127428
   14   -1510.2346990491      5.44E-09 Convergence criterion met
 Total energy in the final basis set = -1510.23469905
   14   -1510.2528689607      4.31E-09 Convergence criterion met
 Total energy in the final basis set = -1510.25286896
   13   -1510.2618543830      9.59E-09 Convergence criterion met
 Total energy in the final basis set = -1510.26185438
   13   -1510.2660739324      5.13E-09 Convergence criterion met
 Total energy in the final basis set = -1510.26607393
   12   -1510.2676139291      8.36E-09 Convergence criterion met
   10   -1510.2739622662      5.68E-09 Convergence criterion met
 Total energy in the final basis set = -1510.27396227
   10   -1510.2739745887      6.84E-09 Convergence criterion met
 Total energy in the final basis set = -1510.27397459
    9   -1510.2739842422      9.38E-09 Convergence criterion met
 Total energy in the final basis set = -1510.27398424
    9   -1510.2739914678      4.71E-09 Convergence criterion met
 Total energy in the final basis set = -1510.27399147
    9   -1510.2739961042      5.13E-09 Convergence criterion met
 Total energy in the final basis set = -1510.27399610
    9   -1510.2739978618      4.65E-09 Convergence criterion met
 Total energy in the final basis set = -1510.27399786

             Standard Nuclear Orientation (Angstroms)
    I     Atom           X                Y                Z
 ----------------------------------------------------------------
    1      O      -5.6021156768     0.4555604283     2.0826347738
    2      C      -5.3346980502     0.7922976406     0.9099355043
    3      C      -5.1245781951    -0.1545775948    -0.3305115730
    4      C      -3.6634416731    -0.1448934758    -0.9331919435
    5      C      -2.6434715657     0.5835804654     0.0086259396
    6      O      -1.3348822801     0.4487860415    -0.5398537992
    7      C      -0.3447172426     1.1682432532     0.3021703088
    8      C       1.0354588070     1.1084986703    -0.4521560559
    9      O       1.9846332685     0.2297867841     0.2694101634
   10      C       2.3386826924    -0.9120388545    -0.5301133622
   11      C       3.8110416016    -1.3695116796    -0.2123479581
   12      C       4.9254819348    -0.2555708451    -0.3264351178
   13      C       4.5615222777     0.9973022967    -1.1892256568
   14      O       3.4873089743     1.2670822293    -1.7677388563
   15      O      -5.3675857745     2.1450281047     0.4239257065
   16      O       5.7139022325     1.8476752769    -1.2168939856
   17      O       1.5897875526    -1.4178309545    -1.3944754654
   18      C       5.4245942357     3.0677945582    -2.0052827950
   19      C       3.9204318491    -1.6892758241     1.3459242812
   20      C       5.3190485071    -2.3575821422     1.6629693372
   21      C       6.2706597445    -1.1029962427     1.6634190895
   22      C       5.2642255011     0.0242089470     1.2080137161
   23      O       4.0278113081    -0.3330729993     1.9341202409
   24      H       4.0364007101    -2.2465393269    -0.8438798713
   25      H       5.8201866244    -0.6951212536    -0.8066566527
   26      H       3.0434546969    -2.2215264524     1.7629848994
   27      H       5.2975960729    -2.8523108474     2.6467015775
   28      H       5.5995926190    -3.1019109850     0.9003402628
   29      H       6.6504075530    -0.8876030301     2.6751692868
   30      H       7.1261290109    -1.2081025178     0.9774073185
   31      H       5.5713888322     1.0637976680     1.4330568403
   32      O      -2.8967829939     1.1701319898     1.0861032127
   33      C      -5.5229396669     3.0765803605     1.5614912491
   34      C      -5.2961055338    -1.6877483734     0.0366497456
   35      C      -5.6389847705    -2.4664970360    -1.2912296416
   36      C      -4.2506693004    -2.4106356056    -2.0332953328
   37      C      -3.3459688534    -1.7024290106    -0.9470894017
   38      O      -3.9200100207    -2.1454652734     0.3445066419
   39      H      -5.8520102791     0.1509682190    -1.1043483240
   40      H      -3.6191044937     0.3032530007    -1.9420375806
   41      H      -4.6460638757     3.0298434168     2.2395425718
   42      H      -5.9662414436    -1.8736042992     0.8983622155
   43      H      -5.9305274313    -3.5044091969    -1.0637291327
   44      H      -6.4501347523    -1.9873998034    -1.8624732075
   45      H      -3.8676017518    -3.4186957696    -2.2573627774
   46      H      -4.2946791553    -1.8329624253    -2.9704999612
   47      H      -2.2652203240    -1.9391785826    -1.0008158770
   48      H      -6.4365446839     2.8573766747     2.1515479640
   49      H      -5.5984091671     4.0890797142     1.1237912286
   50      H       6.3446757702     3.6795199410    -1.9688030212
   51      H       4.5797231130     3.6418172691    -1.5730000376
   52      H       5.1816244024     2.8254496392    -3.0601427790
   53      H       0.8625464648     0.7409182348    -1.4856154402
   54      H       1.4938245244     2.1185130040    -0.4862981684
   55      H      -0.2506848637     0.6859023669     1.3003028945
   56      H      -0.6703599943     2.2191644264     0.4594022782
 ----------------------------------------------------------------

    9   -1510.2739984918      2.72E-09 Convergence criterion met
 Total energy in the final basis set = -1510.27399849
 Final energy is   -1510.27399849184
 **  OPTIMIZATION CONVERGED  **

                    Orbital Energies (a.u.)
 --------------------------------------------------------------

 Alpha MOs
 -- Occupied --
-18.941 -18.935 -18.918 -18.912 -18.891 -18.883 -18.879 -18.879
-18.874 -18.854 -10.107 -10.100 -10.096 -10.084 -10.071 -10.069
-10.066 -10.064 -10.062 -10.054 -10.050 -10.049 -10.042 -10.039
-10.034 -10.026 -10.023 -10.022 -10.015 -10.013  -1.019  -1.014
 -1.002  -0.991  -0.973  -0.963  -0.944  -0.938  -0.928  -0.918
 -0.766  -0.756  -0.727  -0.719  -0.712  -0.704  -0.691  -0.668
 -0.648  -0.610  -0.596  -0.575  -0.547  -0.540  -0.538  -0.531
 -0.516  -0.507  -0.487  -0.474  -0.463  -0.451  -0.448  -0.440
 -0.436  -0.425  -0.421  -0.416  -0.412  -0.408  -0.400  -0.396
 -0.395  -0.381  -0.375  -0.364  -0.359  -0.351  -0.348  -0.343
 -0.340  -0.335  -0.332  -0.332  -0.326  -0.326  -0.318  -0.316
 -0.308  -0.306  -0.302  -0.299  -0.294  -0.285  -0.278  -0.270
 -0.266  -0.261  -0.251  -0.239  -0.238  -0.236  -0.228  -0.185
 -0.178  -0.168  -0.160  -0.158  -0.152  -0.149  -0.145  -0.138
 -0.135

          Ground-State Mulliken Net Atomic Charges

     Atom                 Charge (a.u.)
  ----------------------------------------
      1 O                    -0.219243
      2 C                     0.216269
      3 C                    -0.082049
      4 C                    -0.076869
      5 C                     0.215418
      6 O                    -0.170300
      7 C                    -0.049092
      8 C                    -0.045119
      9 O                    -0.176064
     10 C                     0.215478
     11 C                    -0.078837
     12 C                    -0.079424
     13 C                     0.211256
     14 O                    -0.215377
     15 O                    -0.177988
     16 O                    -0.171271
     17 O                    -0.208698
     18 C                    -0.128442
     19 C                     0.025987
     20 C                    -0.145380
     21 C                    -0.141850
     22 C                     0.027225
     23 O                    -0.183968
     24 H                     0.085278
     25 H                     0.085848
     26 H                     0.084121
     27 H                     0.079009
     28 H                     0.073974
     29 H                     0.078538
     30 H                     0.074067
     31 H                     0.086764
     32 O                    -0.207541
     33 C                    -0.128424
     34 C                     0.023706
     35 C                    -0.143249
     36 C                    -0.144435
     37 C                     0.023931
     38 O                    -0.191459
     39 H                     0.082288
     40 H                     0.086536
     41 H                     0.090786
     42 H                     0.089339
     43 H                     0.077046
     44 H                     0.072313
     45 H                     0.078007
     46 H                     0.072973
     47 H                     0.089708
     48 H                     0.085897
     49 H                     0.084304
     50 H                     0.091735
     51 H                     0.088892
     52 H                     0.089654
     53 H                     0.106366
     54 H                     0.089207
     55 H                     0.095538
     56 H                     0.087622
  ----------------------------------------
  Sum of atomic charges =     0.000000

                    Cartesian Multipole Moments
 -----------------------------------------------------------------
    Charge (ESU x 10^10)
                 0.0000
    Dipole Moment (Debye)
         X       3.3647      Y       1.1504      Z      -2.4513
       Tot       4.3190
    Quadrupole Moments (Debye-Ang)
        XX    -139.8715     XY      -1.0929     YY    -149.4767
        XZ       8.6494     YZ      -1.3539     ZZ    -164.5888

 Total job time:  77.89s(wall), 3700.42s(cpu)
        *  Thank you very much for using Q-Chem.  Have a nice day.  *
