 Q-Chem 5.0, Q-Chem, Inc., Pleasanton, CA (2017)
 Q-Chem 5.0.1 for Intel X86 EM64T Linux

User input:
--------------------------------------------------------------
$molecule
0  1
O -5.550782467 1.5805053309 1.2223671067
C -5.3381600205 1.0364676638 0.1181907305
C -4.9991642231 -0.4761314656 -0.1551707708
C -3.5750106539 -0.7321057535 -0.791539295
C -2.6463376896 0.5286798276 -0.6624409628
O -1.2955044819 0.1364182245 -0.8885003248
C -0.3948767498 1.3169792013 -0.8199291173
C 1.0476146086 0.7920109673 -1.179011305
O 2.1210972622 1.4780673427 -0.4270329131
C 2.3317249831 0.8625993455 0.8589114172
C 3.8701313295 0.8681625325 1.2025024246
C 4.6648867314 -0.4054115381 0.6904116761
C 3.7977580918 -1.5257949038 0.0278267619
O 2.5883169016 -1.5026362721 -0.2914119629
O -5.5987684028 1.6530942531 -1.1549569597
O 4.643150421 -2.660086939 -0.1780970164
O 1.4208187301 0.4113526438 1.5860669885
C 3.8800670622 -3.7540933168 -0.8241133884
C 4.6405893072 2.0190043506 0.424208077
C 6.0721409408 2.2029461146 1.0683483121
C 6.8318423951 0.9501093953 0.494894088
C 5.683151284 0.2611014 -0.340600167
O 4.9247825221 1.4024272567 -0.8934657639
H 3.9740891004 0.9663753534 2.2978602517
H 5.2223542382 -0.8756962321 1.520819083
H 4.0591621432 2.9518469288 0.2958724218
H 6.529568224 3.1449202538 0.7268001298
H 6.0322935322 2.2089349356 2.1693696282
H 7.6604046 1.2482897898 -0.1673312766
H 7.2279187952 0.2899288247 1.2826439534
H 6.0241094456 -0.4162221314 -1.1477481165
O -2.9962972791 1.6917556281 -0.3558282878
C -5.8913283363 3.0890118868 -0.9607923436
C -4.9182521791 -1.3635855856 1.156766467
C -5.1970657056 -2.8584932234 0.7369751942
C -3.8761212001 -3.193360149 -0.0513301077
C -3.0352739017 -1.8728786812 0.1719453917
O -3.4758718663 -1.3830724005 1.4995184179
H -5.7821878151 -0.8583624155 -0.8352759262
H -3.6293621425 -1.050549695 -1.848371195
H -5.0063670915 3.6266984337 -0.562547405
H -5.5139185826 -0.9753951771 2.0057240005
H -5.3034190189 -3.4940740595 1.6306468172
H -6.1030541721 -2.9617113885 0.1186585165
H -3.3544216885 -4.0626924887 0.3792450565
H -4.0593090429 -3.3860793652 -1.1207192548
H -1.9352489769 -1.9963104087 0.1455782896
H -6.741670943 3.2449472816 -0.2656456055
H -6.149163014 3.4897291686 -1.9585085063
H 4.5806304065 -4.6050583076 -0.9080461727
H 3.52726961 -3.4625013834 -1.8345814419
H 3.001689508 -4.0518393538 -0.216191112
H 1.1039739024 -0.3012914097 -0.9852164615
H 1.2695620419 0.9852171422 -2.247783804
H -0.3989529418 1.7386101685 0.2089827434
H -0.7315437635 2.1098351925 -1.5213695617
$end

$rem
JOBTYPE                   OPT
METHOD                    B3LYP
DFT_D                     d3_op
BASIS                     STO-3G
GEOM_OPT_MAX_CYCLES       100
GEOM_OPT_TOL_GRADIENT     300
GEOM_OPT_TOL_DISPLACEMENT 1200
GEOM_OPT_TOL_ENERGY       100
SYMMETRY                  False
THRESH                    12
SCF_CONVERGENCE           8
MAX_SUB_FILE_NUM          128
MEM_STATIC                400
MEM_TOTAL                 4000
$end
--------------------------------------------------------------

   16   -1510.2754730268      5.72E-09 Convergence criterion met
 Total energy in the final basis set = -1510.27547303
   14   -1510.2782171740      1.63E-09 Convergence criterion met
 Total energy in the final basis set = -1510.27821717
   14   -1510.2814955762      1.76E-09 Convergence criterion met
 Total energy in the final basis set = -1510.28149558
   14   -1510.2832047812      1.73E-09 Convergence criterion met
 Total energy in the final basis set = -1510.28320478
   14   -1510.2839872000      2.08E-09 Convergence criterion met
 Total energy in the final basis set = -1510.28398720
   13   -1510.2844789526      3.03E-09 Convergence criterion met
 Total energy in the final basis set = -1510.28447895
   13   -1510.2850327635      3.08E-09 Convergence criterion met
 Total energy in the final basis set = -1510.28503276
   13   -1510.2854460859      2.80E-09 Convergence criterion met
   13   -1510.2866019168      5.05E-09 Convergence criterion met
 Total energy in the final basis set = -1510.28660192
   12   -1510.2866760876      8.06E-09 Convergence criterion met
 Total energy in the final basis set = -1510.28667609
   13   -1510.2866764467      4.40E-09 Convergence criterion met
 Total energy in the final basis set = -1510.28667645
   12   -1510.2867005102      8.89E-09 Convergence criterion met
 Total energy in the final basis set = -1510.28670051
   10   -1510.2867152911      7.99E-09 Convergence criterion met
 Total energy in the final basis set = -1510.28671529
   10   -1510.2867202779      7.81E-09 Convergence criterion met
 Total energy in the final basis set = -1510.28672028

             Standard Nuclear Orientation (Angstroms)
    I     Atom           X                Y                Z
 ----------------------------------------------------------------
    1      O      -5.3225017561     1.4921092392     1.8426908269
    2      C      -5.1629491531     1.3095305219     0.6175377458
    3      C      -5.3221573627    -0.0424762036    -0.1751258401
    4      C      -3.9619707563    -0.6765020389    -0.6773172024
    5      C      -2.7044418645     0.1235853093    -0.1977814356
    6      O      -1.5445545735    -0.4502003808    -0.7995275786
    7      C      -0.3233781565     0.2562014689    -0.3329260454
    8      C       0.8970647274    -0.5977946254    -0.8282385712
    9      O       2.1826166807     0.1139171058    -0.6469562243
   10      C       2.5824928557     0.0745270417     0.7328955925
   11      C       3.9987545696     0.7453737420     0.8701017159
   12      C       5.2085140836    -0.2121634928     0.5091718844
   13      C       4.7538640194    -1.6466350570     0.0769414366
   14      O       3.5950626372    -2.1190358135     0.1105027327
   15      O      -4.9465029953     2.3571934069    -0.3413588582
   16      O       5.8986056907    -2.3715846758    -0.3747403825
   17      O       1.8594497935    -0.3349453860     1.6669743481
   18      C       5.5018459705    -3.7344153227    -0.8007736523
   19      C       4.2285807414     1.9131960174    -0.1823623018
   20      C       5.4668462880     2.7739127421     0.2905390496
   21      C       6.6621847712     1.8189806996    -0.0779951252
   22      C       5.8865078826     0.5862656125    -0.6876620918
   23      O       4.7351307968     1.2042748377    -1.3807593055
   24      H       4.0869789296     1.1082834311     1.9092527640
   25      H       5.9090721254    -0.3163476643     1.3580112022
   26      H       3.3188253230     2.4921544814    -0.4319929467
   27      H       5.5163466681     3.7188927717    -0.2733277007
   28      H       5.4231912544     3.0063754069     1.3664975904
   29      H       7.3231591972     2.2706620934    -0.8346611802
   30      H       7.2677907316     1.5356633235     0.7976312359
   31      H       6.4694005149    -0.0510231677    -1.3807362272
   32      O      -2.6789623697     1.0878888435     0.6000300931
   33      C      -4.7323693945     3.6387694760     0.3650151454
   34      C      -5.8679517758    -1.1996710110     0.7620025408
   35      C      -6.4381569261    -2.3531257135    -0.1525853253
   36      C      -5.1064329385    -2.9836985883    -0.7063377272
   37      C      -4.0202941246    -2.1016964645     0.0282557108
   38      O      -4.6378775515    -1.7955386870     1.3366025453
   39      H      -5.9977234154     0.1432824942    -1.0295149405
   40      H      -3.9255809313    -0.7715883008    -1.7773792713
   41      H      -3.8180039701     3.6019421256     0.9922187060
   42      H      -6.5363871640    -0.8476326763     1.5714797306
   43      H      -7.0068790296    -3.0782203107     0.4510534572
   44      H      -7.0913769907    -1.9680121232    -0.9518140670
   45      H      -5.0053042415    -4.0408877232    -0.4138329477
   46      H      -5.0245650458    -2.9111746748    -1.8026849005
   47      H      -3.0317474127    -2.5829038067     0.1611597549
   48      H      -5.5942380695     3.8999336263     1.0128153279
   49      H      -4.6124140710     4.4076213075    -0.4203933497
   50      H       6.4304114999    -4.2291140661    -1.1401396527
   51      H       4.7707009754    -3.7040247062    -1.6343464971
   52      H       5.0582536163    -4.3102718970     0.0369887453
   53      H       0.9090067711    -1.5729746137    -0.2964581044
   54      H       0.8059832100    -0.7764862744    -1.9188595811
   55      H      -0.3088997940     0.3389407394     0.7746316957
   56      H      -0.2767256197     1.2804226805    -0.7639399489
 ----------------------------------------------------------------

   11   -1510.2867201121      9.50E-09 Convergence criterion met
 Total energy in the final basis set = -1510.28672011
 Final energy is   -1510.28672011212
 **  OPTIMIZATION CONVERGED  **

                    Orbital Energies (a.u.)
 --------------------------------------------------------------

 Alpha MOs
 -- Occupied --
-18.945 -18.936 -18.924 -18.914 -18.890 -18.888 -18.883 -18.880
-18.864 -18.856 -10.109 -10.101 -10.094 -10.085 -10.071 -10.068
-10.066 -10.062 -10.061 -10.057 -10.052 -10.050 -10.042 -10.036
-10.036 -10.028 -10.022 -10.021 -10.017 -10.016  -1.022  -1.015
 -1.002  -0.992  -0.972  -0.966  -0.945  -0.939  -0.928  -0.919
 -0.765  -0.758  -0.726  -0.721  -0.713  -0.704  -0.691  -0.668
 -0.650  -0.612  -0.595  -0.577  -0.547  -0.541  -0.539  -0.533
 -0.515  -0.507  -0.486  -0.470  -0.467  -0.451  -0.448  -0.447
 -0.435  -0.433  -0.426  -0.417  -0.410  -0.404  -0.399  -0.396
 -0.385  -0.381  -0.379  -0.368  -0.359  -0.356  -0.348  -0.342
 -0.338  -0.335  -0.333  -0.331  -0.328  -0.326  -0.321  -0.316
 -0.308  -0.307  -0.302  -0.300  -0.294  -0.283  -0.278  -0.271
 -0.269  -0.262  -0.254  -0.245  -0.240  -0.236  -0.230  -0.187
 -0.180  -0.168  -0.162  -0.160  -0.154  -0.146  -0.143  -0.140
 -0.136

          Ground-State Mulliken Net Atomic Charges

     Atom                 Charge (a.u.)
  ----------------------------------------
      1 O                    -0.216608
      2 C                     0.216009
      3 C                    -0.081433
      4 C                    -0.077853
      5 C                     0.215321
      6 O                    -0.173650
      7 C                    -0.052142
      8 C                    -0.046143
      9 O                    -0.171258
     10 C                     0.214440
     11 C                    -0.081490
     12 C                    -0.078272
     13 C                     0.214960
     14 O                    -0.207846
     15 O                    -0.177437
     16 O                    -0.168875
     17 O                    -0.218826
     18 C                    -0.128001
     19 C                     0.026700
     20 C                    -0.144337
     21 C                    -0.143685
     22 C                     0.025044
     23 O                    -0.187167
     24 H                     0.084260
     25 H                     0.087063
     26 H                     0.085671
     27 H                     0.078124
     28 H                     0.074106
     29 H                     0.078370
     30 H                     0.073831
     31 H                     0.087457
     32 O                    -0.206012
     33 C                    -0.128495
     34 C                     0.024767
     35 C                    -0.144010
     36 C                    -0.143905
     37 C                     0.025189
     38 O                    -0.188773
     39 H                     0.082722
     40 H                     0.086021
     41 H                     0.091945
     42 H                     0.089192
     43 H                     0.077570
     44 H                     0.072727
     45 H                     0.077713
     46 H                     0.072926
     47 H                     0.085110
     48 H                     0.085949
     49 H                     0.084804
     50 H                     0.092481
     51 H                     0.091554
     52 H                     0.091140
     53 H                     0.097209
     54 H                     0.090220
     55 H                     0.101023
     56 H                     0.084603
  ----------------------------------------
  Sum of atomic charges =     0.000000

                    Cartesian Multipole Moments
 -----------------------------------------------------------------
    Charge (ESU x 10^10)
                 0.0000
    Dipole Moment (Debye)
         X       2.7516      Y      -0.6422      Z      -2.4932
       Tot       3.7682
    Quadrupole Moments (Debye-Ang)
        XX    -137.6606     XY       1.1630     YY    -147.2124
        XZ      15.1438     YZ       5.0761     ZZ    -167.9859

 Total job time:  57.08s(wall), 2714.59s(cpu)
        *  Thank you very much for using Q-Chem.  Have a nice day.  *
