 Q-Chem 5.0, Q-Chem, Inc., Pleasanton, CA (2017)
 Q-Chem 5.0.1 for Intel X86 EM64T Linux

User input:
--------------------------------------------------------------
$molecule
0  1
O -3.94934 -3.66094 2.70899
C -3.26408 -4.56952 2.26188
C -3.36658 -6.02376 2.66595
C -2.13792 -6.65325 3.3427
C -1.00901 -5.71221 3.70062
O -0.17223 -6.31164 4.59835
C 0.94997 -5.49678 4.95317
C 1.88436 -6.26476 5.88228
O 2.46682 -5.36799 6.84115
C 1.72299 -5.1383 7.9516
C 2.5581 -5.01297 9.20361
C 2.82201 -6.33411 9.94063
C 2.53349 -7.59783 9.15547
O 2.26334 -7.64599 7.96414
O -2.40581 -4.29727 1.24201
O 2.68707 -8.76421 9.83592
O 0.51571 -5.33987 8.01373
C 2.50931 -10.01504 9.28291
C 4.02131 -4.55668 8.97246
C 4.57006 -3.91926 10.2487
C 4.70066 -5.13758 11.14016
C 4.34078 -6.24545 10.1438
O 4.76932 -5.7465 8.90021
H 2.07037 -4.23618 9.83489
H 2.2219 -6.39449 10.87507
H 4.13506 -3.85204 8.1198
H 5.5915 -3.54722 10.00558
H 3.97162 -3.08396 10.67161
H 5.76038 -5.22039 11.46867
H 4.02327 -5.156 12.02148
H 4.78455 -7.21548 10.45927
O -0.88574 -4.54642 3.34774
C -2.21334 -3.04307 0.70115
C -4.4427 -6.24602 3.74835
C -4.90664 -7.70161 3.73834
C -3.70242 -8.3808 4.34722
C -2.81738 -7.1657 4.64037
O -3.73396 -6.14858 4.95524
H -3.66228 -6.57534 1.74551
H -1.69488 -7.49696 2.76873
H -1.84029 -2.34381 1.47977
H -5.32377 -5.576 3.64171
H -5.75963 -7.79025 4.44881
H -5.2156 -8.08292 2.74128
H -4.0163 -8.85806 5.30265
H -3.19702 -9.12934 3.69949
H -2.10282 -7.43194 5.44845
H -3.16526 -2.6591 0.27606
H -1.46017 -3.10879 -0.11053
H 2.69623 -10.78569 10.05855
H 3.22385 -10.16875 8.44613
H 1.46759 -10.12483 8.91247
H 1.13639 -6.94871 6.32744
H 2.63456 -6.87949 5.34147
H 0.54072 -4.61702 5.50038
H 1.52739 -5.12469 4.07689
$end

$opt
CONSTRAINT
tors           1           2           3           4    -116.767
tors           3           4           5           6    +163.485
tors           4           5           6           7    +178.039
tors           5           6           7           8    -176.225
tors           6           7           8           9    -144.821
tors           7           8           9          10     +85.337
tors           8           9          10          11    +142.768
tors           9          10          11          12     -89.231
tors          11          12          13          14      +8.819
ENDCONSTRAINT
$end

$rem
JOBTYPE                   OPT
METHOD                    B3LYP
DFT_D                     d3_op
BASIS                     STO-3G
GEOM_OPT_MAX_CYCLES       100
GEOM_OPT_TOL_GRADIENT     300
GEOM_OPT_TOL_DISPLACEMENT 1200
GEOM_OPT_TOL_ENERGY       100
SYMMETRY                  False
THRESH                    12
SCF_CONVERGENCE           8
MAX_SUB_FILE_NUM          128
MEM_STATIC                400
MEM_TOTAL                 4000
$end
--------------------------------------------------------------

   15   -1510.1353078869      7.87E-09 Convergence criterion met
 Total energy in the final basis set = -1510.13530789
   13   -1510.2053114110      8.60E-09 Convergence criterion met
 Total energy in the final basis set = -1510.20531141
   14   -1510.2411073598      3.33E-09 Convergence criterion met
 Total energy in the final basis set = -1510.24110736
   14   -1510.2604521957      1.86E-09 Convergence criterion met
 Total energy in the final basis set = -1510.26045220
   13   -1510.2677781904      6.68E-09 Convergence criterion met
 Total energy in the final basis set = -1510.26777819
   13   -1510.2711782283      3.36E-09 Convergence criterion met
 Total energy in the final basis set = -1510.27117823
   13   -1510.2729403798      2.67E-09 Convergence criterion met
 Total energy in the final basis set = -1510.27294038
   13   -1510.2736962493      2.39E-09 Convergence criterion met
   12   -1510.2753535297      1.99E-09 Convergence criterion met
 Total energy in the final basis set = -1510.27535353
   10   -1510.2753946107      9.50E-09 Convergence criterion met
 Total energy in the final basis set = -1510.27539461
   10   -1510.2754269378      8.66E-09 Convergence criterion met
 Total energy in the final basis set = -1510.27542694
   10   -1510.2754522681      9.15E-09 Convergence criterion met
 Total energy in the final basis set = -1510.27545227
    9   -1510.2754642092      9.49E-09 Convergence criterion met
 Total energy in the final basis set = -1510.27546421
    9   -1510.2754661410      4.80E-09 Convergence criterion met
 Total energy in the final basis set = -1510.27546614

             Standard Nuclear Orientation (Angstroms)
    I     Atom           X                Y                Z
 ----------------------------------------------------------------
    1      O      -5.5507824670     1.5805053309     1.2223671067
    2      C      -5.3381600205     1.0364676638     0.1181907305
    3      C      -4.9991642231    -0.4761314656    -0.1551707708
    4      C      -3.5750106539    -0.7321057535    -0.7915392950
    5      C      -2.6463376896     0.5286798276    -0.6624409628
    6      O      -1.2955044819     0.1364182245    -0.8885003248
    7      C      -0.3948767498     1.3169792013    -0.8199291173
    8      C       1.0476146086     0.7920109673    -1.1790113050
    9      O       2.1210972622     1.4780673427    -0.4270329131
   10      C       2.3317249831     0.8625993455     0.8589114172
   11      C       3.8701313295     0.8681625325     1.2025024246
   12      C       4.6648867314    -0.4054115381     0.6904116761
   13      C       3.7977580918    -1.5257949038     0.0278267619
   14      O       2.5883169016    -1.5026362721    -0.2914119629
   15      O      -5.5987684028     1.6530942531    -1.1549569597
   16      O       4.6431504210    -2.6600869390    -0.1780970164
   17      O       1.4208187301     0.4113526438     1.5860669885
   18      C       3.8800670622    -3.7540933168    -0.8241133884
   19      C       4.6405893072     2.0190043506     0.4242080770
   20      C       6.0721409408     2.2029461146     1.0683483121
   21      C       6.8318423951     0.9501093953     0.4948940880
   22      C       5.6831512840     0.2611014000    -0.3406001670
   23      O       4.9247825221     1.4024272567    -0.8934657639
   24      H       3.9740891004     0.9663753534     2.2978602517
   25      H       5.2223542382    -0.8756962321     1.5208190830
   26      H       4.0591621432     2.9518469288     0.2958724218
   27      H       6.5295682240     3.1449202538     0.7268001298
   28      H       6.0322935322     2.2089349356     2.1693696282
   29      H       7.6604046000     1.2482897898    -0.1673312766
   30      H       7.2279187952     0.2899288247     1.2826439534
   31      H       6.0241094456    -0.4162221314    -1.1477481165
   32      O      -2.9962972791     1.6917556281    -0.3558282878
   33      C      -5.8913283363     3.0890118868    -0.9607923436
   34      C      -4.9182521791    -1.3635855856     1.1567664670
   35      C      -5.1970657056    -2.8584932234     0.7369751942
   36      C      -3.8761212001    -3.1933601490    -0.0513301077
   37      C      -3.0352739017    -1.8728786812     0.1719453917
   38      O      -3.4758718663    -1.3830724005     1.4995184179
   39      H      -5.7821878151    -0.8583624155    -0.8352759262
   40      H      -3.6293621425    -1.0505496950    -1.8483711950
   41      H      -5.0063670915     3.6266984337    -0.5625474050
   42      H      -5.5139185826    -0.9753951771     2.0057240005
   43      H      -5.3034190189    -3.4940740595     1.6306468172
   44      H      -6.1030541721    -2.9617113885     0.1186585165
   45      H      -3.3544216885    -4.0626924887     0.3792450565
   46      H      -4.0593090429    -3.3860793652    -1.1207192548
   47      H      -1.9352489769    -1.9963104087     0.1455782896
   48      H      -6.7416709430     3.2449472816    -0.2656456055
   49      H      -6.1491630140     3.4897291686    -1.9585085063
   50      H       4.5806304065    -4.6050583076    -0.9080461727
   51      H       3.5272696100    -3.4625013834    -1.8345814419
   52      H       3.0016895080    -4.0518393538    -0.2161911120
   53      H       1.1039739024    -0.3012914097    -0.9852164615
   54      H       1.2695620419     0.9852171422    -2.2477838040
   55      H      -0.3989529418     1.7386101685     0.2089827434
   56      H      -0.7315437635     2.1098351925    -1.5213695617
 ----------------------------------------------------------------

    9   -1510.2754665834      2.53E-09 Convergence criterion met
 Total energy in the final basis set = -1510.27546658
 Final energy is   -1510.27546658337
 **  OPTIMIZATION CONVERGED  **

                    Orbital Energies (a.u.)
 --------------------------------------------------------------

 Alpha MOs
 -- Occupied --
-18.946 -18.934 -18.913 -18.910 -18.891 -18.891 -18.878 -18.877
-18.873 -18.853 -10.112 -10.099 -10.095 -10.083 -10.073 -10.065
-10.065 -10.060 -10.060 -10.052 -10.050 -10.047 -10.044 -10.037
-10.034 -10.025 -10.023 -10.021 -10.015 -10.013  -1.024  -1.012
 -0.999  -0.990  -0.973  -0.962  -0.948  -0.936  -0.928  -0.917
 -0.766  -0.756  -0.726  -0.720  -0.712  -0.702  -0.688  -0.670
 -0.647  -0.610  -0.595  -0.575  -0.548  -0.539  -0.538  -0.531
 -0.516  -0.505  -0.487  -0.471  -0.460  -0.451  -0.448  -0.441
 -0.436  -0.433  -0.425  -0.419  -0.413  -0.401  -0.396  -0.395
 -0.393  -0.380  -0.377  -0.365  -0.356  -0.355  -0.347  -0.344
 -0.339  -0.336  -0.333  -0.329  -0.325  -0.322  -0.318  -0.314
 -0.308  -0.305  -0.304  -0.300  -0.293  -0.284  -0.278  -0.269
 -0.267  -0.262  -0.250  -0.241  -0.237  -0.235  -0.227  -0.189
 -0.177  -0.168  -0.162  -0.157  -0.150  -0.147  -0.144  -0.137
 -0.134

          Ground-State Mulliken Net Atomic Charges

     Atom                 Charge (a.u.)
  ----------------------------------------
      1 O                    -0.219453
      2 C                     0.216027
      3 C                    -0.081987
      4 C                    -0.076510
      5 C                     0.216336
      6 O                    -0.170565
      7 C                    -0.049510
      8 C                    -0.052778
      9 O                    -0.182048
     10 C                     0.214477
     11 C                    -0.080757
     12 C                    -0.079145
     13 C                     0.215137
     14 O                    -0.212522
     15 O                    -0.177455
     16 O                    -0.168628
     17 O                    -0.204846
     18 C                    -0.128453
     19 C                     0.027230
     20 C                    -0.144939
     21 C                    -0.143080
     22 C                     0.025730
     23 O                    -0.186535
     24 H                     0.083463
     25 H                     0.088415
     26 H                     0.088614
     27 H                     0.078365
     28 H                     0.074068
     29 H                     0.078479
     30 H                     0.074252
     31 H                     0.084570
     32 O                    -0.207502
     33 C                    -0.128312
     34 C                     0.023224
     35 C                    -0.142841
     36 C                    -0.145076
     37 C                     0.023519
     38 O                    -0.190444
     39 H                     0.081938
     40 H                     0.085313
     41 H                     0.090855
     42 H                     0.089421
     43 H                     0.076968
     44 H                     0.072145
     45 H                     0.076867
     46 H                     0.071876
     47 H                     0.090462
     48 H                     0.085742
     49 H                     0.084215
     50 H                     0.092816
     51 H                     0.089821
     52 H                     0.092494
     53 H                     0.111608
     54 H                     0.086083
     55 H                     0.097117
     56 H                     0.085740
  ----------------------------------------
  Sum of atomic charges =     0.000000

                    Cartesian Multipole Moments
 -----------------------------------------------------------------
    Charge (ESU x 10^10)
                 0.0000
    Dipole Moment (Debye)
         X       3.0744      Y      -2.2834      Z      -2.0254
       Tot       4.3322
    Quadrupole Moments (Debye-Ang)
        XX    -143.3838     XY       3.1547     YY    -149.0027
        XZ      13.3997     YZ       2.2108     ZZ    -162.2917

 Total job time:  51.77s(wall), 2458.66s(cpu)
        *  Thank you very much for using Q-Chem.  Have a nice day.  *
