 Q-Chem 5.0, Q-Chem, Inc., Pleasanton, CA (2017)
 Q-Chem 5.0.1 for Intel X86 EM64T Linux

User input:
--------------------------------------------------------------
$molecule
0  1
O -5.2248137332 0.8266240311 1.7370311407
C -4.8450078727 0.5907313784 0.5697421371
C -4.0644608222 -0.6725033167 0.0609816291
C -2.8234034021 -0.4025434148 -0.8866868856
C -2.1940412221 1.0310884651 -0.6693024376
O -0.7707809463 0.9449544572 -0.7966364362
C -0.1771531641 2.294019749 -0.6533509808
C 1.2920920753 2.3072998778 -1.2383568766
O 2.3815962818 2.4456957984 -0.2508586446
C 2.2815485639 1.5402082028 0.8769519038
C 3.5724813578 0.6235090231 0.9753188112
C 3.4125634836 -0.9388310788 0.7822643676
C 2.1780135618 -1.3292557321 -0.1065223074
O 1.1040745463 -0.697923091 -0.2239369
O -5.3087319817 1.3064996821 -0.5839822292
O 2.4600287682 -2.564608428 -0.7660768667
O 1.3702203187 1.5878707178 1.7303361015
C 1.3347707882 -2.9695949056 -1.6376770006
C 4.7369228836 0.9468383006 -0.0605178301
C 6.0999865944 0.647325521 0.6714356183
C 6.0189870623 -0.9201666167 0.7928363738
C 4.7264768136 -1.2360637759 -0.0595615758
O 4.6646334325 -0.1437961943 -1.0615715112
H 3.9556117383 0.7848477334 2.0012195703
H 3.3633810257 -1.4782262183 1.7459815398
H 4.642555906 1.9344359858 -0.5507174143
H 6.9491633929 0.9568622109 0.0409717666
H 6.1799256162 1.1517846305 1.6474754387
H 6.9022107125 -1.4112337481 0.3548771526
H 5.9103196277 -1.2576955855 1.8362146602
H 4.71059848 -2.2235948576 -0.5584313811
O -2.7901811587 2.0926577404 -0.3829109432
C -6.0695639282 2.5028943553 -0.1636218647
C -3.429974579 -1.5873244137 1.1862069611
C -3.4324083546 -3.0622802125 0.6282560791
C -2.3533168453 -2.9360154442 -0.5124048846
C -1.8086912133 -1.4686449222 -0.2806501222
O -1.9908264171 -1.2429997376 1.1754664881
H -4.8118540446 -1.2560832762 -0.5102110747
H -3.0623283994 -0.557128787 -1.9543902732
H -5.405065183 3.2483906724 0.3191424505
H -3.8672743811 -1.4414223688 2.1932891212
H -3.107788993 -3.7688837054 1.4091767684
H -4.4199178386 -3.3759891609 0.2537508132
H -1.548264383 -3.6771529262 -0.3854764608
H -2.7854724965 -3.0609070054 -1.5184814688
H -0.7438024105 -1.2849764382 -0.54038692
H -6.8845009813 2.2430334886 0.5425852094
H -6.4979107297 2.9353940436 -1.0864614171
H 1.7186147741 -3.7913175743 -2.2699665489
H 0.9910062801 -2.1329236763 -2.2784518358
H 0.4756797038 -3.336794387 -1.0413067138
H 1.4354554818 1.3757860475 -1.8344863227
H 1.4169997981 3.1778621732 -1.9144007173
H -0.1373618114 2.5671001351 0.4245118822
H -0.8079022135 3.0424525289 -1.178565942
$end

$rem
JOBTYPE                   OPT
METHOD                    B3LYP
DFT_D                     d3_op
BASIS                     STO-3G
GEOM_OPT_MAX_CYCLES       100
GEOM_OPT_TOL_GRADIENT     300
GEOM_OPT_TOL_DISPLACEMENT 1200
GEOM_OPT_TOL_ENERGY       100
SYMMETRY                  False
THRESH                    12
SCF_CONVERGENCE           8
MAX_SUB_FILE_NUM          128
MEM_STATIC                400
MEM_TOTAL                 4000
$end
--------------------------------------------------------------

   16   -1510.2570309713      3.62E-09 Convergence criterion met
 Total energy in the final basis set = -1510.25703097
   14   -1510.2585557224      3.60E-09 Convergence criterion met
 Total energy in the final basis set = -1510.25855572
   13   -1510.2642656903      8.63E-09 Convergence criterion met
 Total energy in the final basis set = -1510.26426569
   13   -1510.2682226739      5.50E-09 Convergence criterion met
 Total energy in the final basis set = -1510.26822267
   13   -1510.2711116070      6.49E-09 Convergence criterion met
 Total energy in the final basis set = -1510.27111161
   13   -1510.2727482827      8.68E-09 Convergence criterion met
 Total energy in the final basis set = -1510.27274828
   13   -1510.2748303742      4.65E-09 Convergence criterion met
 Total energy in the final basis set = -1510.27483037
   13   -1510.2767120497      6.74E-09 Convergence criterion met
   12   -1510.2873076621      2.43E-09 Convergence criterion met
 Total energy in the final basis set = -1510.28730766
   11   -1510.2873273983      8.79E-09 Convergence criterion met
 Total energy in the final basis set = -1510.28732740
   11   -1510.2873415372      9.61E-09 Convergence criterion met
 Total energy in the final basis set = -1510.28734154
   11   -1510.2873597198      8.48E-09 Convergence criterion met
 Total energy in the final basis set = -1510.28735972
   10   -1510.2873618271      5.56E-09 Convergence criterion met
 Total energy in the final basis set = -1510.28736183
    9   -1510.2873644226      5.94E-09 Convergence criterion met
 Total energy in the final basis set = -1510.28736442

             Standard Nuclear Orientation (Angstroms)
    I     Atom           X                Y                Z
 ----------------------------------------------------------------
    1      O      -2.9520722757     0.7374872359     2.2878694427
    2      C      -3.6388673160     0.5353361899     1.2646793311
    3      C      -3.5559314571    -0.6844273793     0.2735570717
    4      C      -2.7080127488    -0.3985604376    -1.0323999135
    5      C      -2.1223448192     1.0535492530    -1.0908224961
    6      O      -1.3404904840     1.1498849043    -2.2847098690
    7      C      -0.4821822478     2.3548615652    -2.2723773164
    8      C       1.0200370866     1.8843037248    -2.4213049126
    9      O       1.8719567660     1.8822466682    -1.2120683557
   10      C       1.3374933811     1.0875796350    -0.1451822737
   11      C       2.4880296653     0.7445198433     0.8737138030
   12      C       2.9882991905    -0.7537866226     0.7287300262
   13      C       2.2949635208    -1.5330401960    -0.4374666467
   14      O       1.6471469006    -1.0574683940    -1.3994070990
   15      O      -4.7666718501     1.3347312633     0.8699817785
   16      O       2.5440826227    -2.9269088767    -0.2590278600
   17      O       0.1362807479     0.7846041328     0.0119590210
   18      C       1.9202452017    -3.7014247705    -1.3573975989
   19      C       3.8352565655     1.5368028213     0.6123310444
   20      C       4.7499151264     1.3998746499     1.8938928978
   21      C       5.2472356645    -0.0868179414     1.7572924091
   22      C       4.5334844958    -0.5235290111     0.4183101464
   23      O       4.5331002033     0.7083029181    -0.4002206857
   24      H       2.0966790602     0.9200598547     1.8917079289
   25      H       2.8494805494    -1.3297963947     1.6608590526
   26      H       3.6945265999     2.5678677508     0.2369203301
   27      H       5.5893447421     2.1116531258     1.8457607045
   28      H       4.1888195878     1.5773033700     2.8252998218
   29      H       6.3417347412    -0.1392103711     1.6432718734
   30      H       4.9496165664    -0.7168724946     2.6106282294
   31      H       5.0185316222    -1.3573497070    -0.1259057709
   32      O      -2.3194167826     1.9932629180    -0.2887441209
   33      C      -4.8375090993     2.5452431954     1.7160653920
   34      C      -2.7403655995    -1.8918203324     0.8981169900
   35      C      -3.0387333598    -3.1883287310     0.0435235185
   36      C      -2.1886449758    -2.9010103900    -1.2497339776
   37      C      -1.5603207184    -1.4942284521    -0.8971399036
   38      O      -1.3336933560    -1.5760525378     0.5623967543
   39      H      -4.5879080808    -0.9773341036     0.0103242566
   40      H      -3.3051739149    -0.5655566733    -1.9476692107
   41      H      -3.9429483249     3.1849107928     1.5703756552
   42      H      -2.8588367574    -2.0034768358     1.9932213452
   43      H      -2.6808484916    -4.0879965194     0.5688920689
   44      H      -4.1127050397    -3.3083084551    -0.1712993311
   45      H      -1.3971954896    -3.6555136528    -1.3856782797
   46      H      -2.8002979346    -2.8675329334    -2.1653966060
   47      H      -0.6130603620    -1.2393006605    -1.4162917286
   48      H      -4.9189267255     2.2911070554     2.7929221250
   49      H      -5.7420721224     3.0942443745     1.3955514260
   50      H       2.2022278549    -4.7561721350    -1.1844984246
   51      H       2.2895705469    -3.3730729058    -2.3502324291
   52      H       0.8155814389    -3.6056040354    -1.3416096840
   53      H       1.0046708309     0.8590902651    -2.8557818891
   54      H       1.5508845518     2.5608667064    -3.1212323509
   55      H      -0.6582291803     2.9411222690    -1.3448359864
   56      H      -0.7518896973     2.9789654274    -3.1510995209
 ----------------------------------------------------------------

    9   -1510.2873644256      2.33E-09 Convergence criterion met
 Total energy in the final basis set = -1510.28736443
 Final energy is   -1510.28736442563
 **  OPTIMIZATION CONVERGED  **

                    Orbital Energies (a.u.)
 --------------------------------------------------------------

 Alpha MOs
 -- Occupied --
-18.944 -18.922 -18.921 -18.908 -18.886 -18.884 -18.875 -18.869
-18.864 -18.849 -10.107 -10.095 -10.094 -10.079 -10.069 -10.065
-10.064 -10.061 -10.056 -10.047 -10.046 -10.045 -10.038 -10.031
-10.027 -10.022 -10.019 -10.017 -10.013 -10.012  -1.019  -1.007
 -0.995  -0.986  -0.969  -0.958  -0.943  -0.931  -0.926  -0.913
 -0.761  -0.752  -0.722  -0.716  -0.710  -0.699  -0.686  -0.667
 -0.645  -0.611  -0.592  -0.574  -0.545  -0.535  -0.534  -0.529
 -0.510  -0.500  -0.483  -0.466  -0.457  -0.448  -0.441  -0.439
 -0.432  -0.431  -0.423  -0.416  -0.409  -0.402  -0.394  -0.392
 -0.386  -0.380  -0.372  -0.364  -0.356  -0.349  -0.346  -0.342
 -0.339  -0.331  -0.329  -0.324  -0.319  -0.319  -0.313  -0.310
 -0.304  -0.301  -0.298  -0.294  -0.284  -0.282  -0.273  -0.265
 -0.261  -0.258  -0.246  -0.239  -0.234  -0.232  -0.222  -0.184
 -0.172  -0.160  -0.159  -0.153  -0.148  -0.144  -0.138  -0.131
 -0.130

          Ground-State Mulliken Net Atomic Charges

     Atom                 Charge (a.u.)
  ----------------------------------------
      1 O                    -0.217306
      2 C                     0.216601
      3 C                    -0.080946
      4 C                    -0.076015
      5 C                     0.232095
      6 O                    -0.177893
      7 C                    -0.052819
      8 C                    -0.049048
      9 O                    -0.174499
     10 C                     0.218812
     11 C                    -0.079933
     12 C                    -0.077645
     13 C                     0.219057
     14 O                    -0.214642
     15 O                    -0.176511
     16 O                    -0.165996
     17 O                    -0.211740
     18 C                    -0.128099
     19 C                     0.025449
     20 C                    -0.144294
     21 C                    -0.143508
     22 C                     0.025075
     23 O                    -0.189283
     24 H                     0.087525
     25 H                     0.090466
     26 H                     0.089989
     27 H                     0.077293
     28 H                     0.074499
     29 H                     0.077675
     30 H                     0.074680
     31 H                     0.082758
     32 O                    -0.211909
     33 C                    -0.128313
     34 C                     0.025299
     35 C                    -0.144819
     36 C                    -0.144307
     37 C                     0.023318
     38 O                    -0.186861
     39 H                     0.081225
     40 H                     0.083070
     41 H                     0.091827
     42 H                     0.084639
     43 H                     0.074534
     44 H                     0.071724
     45 H                     0.068922
     46 H                     0.072008
     47 H                     0.095456
     48 H                     0.084364
     49 H                     0.083675
     50 H                     0.092232
     51 H                     0.090372
     52 H                     0.090621
     53 H                     0.098034
     54 H                     0.087294
     55 H                     0.103276
     56 H                     0.082520
  ----------------------------------------
  Sum of atomic charges =    -0.000000

                    Cartesian Multipole Moments
 -----------------------------------------------------------------
    Charge (ESU x 10^10)
                -0.0000
    Dipole Moment (Debye)
         X       0.9235      Y      -1.5318      Z      -1.1382
       Tot       2.1201
    Quadrupole Moments (Debye-Ang)
        XX    -153.1707     XY       0.4961     YY    -147.3682
        XZ       6.6938     YZ       1.9095     ZZ    -156.3896

 Total job time:  100.76s(wall), 4799.22s(cpu)
        *  Thank you very much for using Q-Chem.  Have a nice day.  *
