 Q-Chem 5.0, Q-Chem, Inc., Pleasanton, CA (2017)
 Q-Chem 5.0.1 for Intel X86 EM64T Linux

User input:
--------------------------------------------------------------
$molecule
0  1
O -3.94934 -3.66094 2.70899
C -3.26408 -4.56952 2.26188
C -3.36658 -6.02376 2.66595
C -2.0524 -6.76565 2.95986
C -0.7954 -5.92473 2.98994
O 0.04396 -6.37969 3.96662
C 1.28422 -5.66685 4.02028
C 2.32331 -6.47701 4.78843
O 2.60925 -5.84106 6.04409
C 1.52556 -5.48735 6.7787
C 1.50474 -6.13163 8.14439
C 0.33572 -7.09753 8.3867
C -0.41631 -7.54804 7.1505
O -0.5513 -6.89516 6.12576
O -2.57449 -4.32395 1.11645
O -1.17772 -8.64458 7.43717
O 0.72647 -4.61698 6.46182
C -2.12577 -9.32507 6.72579
C 2.71085 -7.04704 8.47156
C 2.88131 -7.1601 9.98543
C 1.68535 -8.01263 10.3379
C 1.13765 -8.30607 8.93724
O 2.27824 -8.33282 8.1173
H 1.51664 -5.29114 8.87439
H -0.41362 -6.73411 9.12399
H 3.67282 -6.71168 8.02754
H 3.806 -7.75394 10.16755
H 2.95433 -6.19471 10.53094
H 2.05183 -8.94642 10.81993
H 0.924 -7.52388 10.98366
H 0.55357 -9.25059 8.97195
O -0.42992 -5.2052 2.06939
C -2.46327 -3.08518 0.51901
C -4.12686 -6.31051 3.9796
C -4.81199 -7.66636 3.86468
C -3.6041 -8.57694 3.78928
C -2.47969 -7.57328 4.15524
O -3.1183 -6.58788 4.92857
H -3.90961 -6.50572 1.81945
H -1.8439 -7.44976 2.10608
H -1.9744 -2.36917 1.21377
H -4.86292 -5.52911 4.26692
H -5.33032 -7.82979 4.83739
H -5.5442 -7.79291 3.03847
H -3.75291 -9.405 4.51162
H -3.41736 -9.01427 2.78413
H -1.60317 -8.10946 4.52778
H -3.46716 -2.70566 0.23192
H -1.84167 -3.17714 -0.39509
H -2.50684 -10.15341 7.35705
H -1.67593 -9.79438 5.82862
H -2.98193 -8.65655 6.52073
H 2.00948 -7.5366 4.91548
H 3.29026 -6.4839 4.2381
H 1.22427 -4.57279 4.20162
H 1.70288 -5.71709 2.98691
$end

$opt
CONSTRAINT
tors           1           2           3           4    -133.928
tors           3           4           5           6    +142.878
tors           4           5           6           7    +177.537
tors           5           6           7           8    -161.874
tors           6           7           8           9    -110.446
tors           7           8           9          10     +49.018
tors           8           9          10          11    +121.257
tors           9          10          11          12    -115.953
tors          11          12          13          14     -29.703
ENDCONSTRAINT
$end

$rem
JOBTYPE                   OPT
METHOD                    B3LYP
DFT_D                     d3_op
BASIS                     STO-3G
GEOM_OPT_MAX_CYCLES       100
GEOM_OPT_TOL_GRADIENT     300
GEOM_OPT_TOL_DISPLACEMENT 1200
GEOM_OPT_TOL_ENERGY       100
SYMMETRY                  False
THRESH                    12
SCF_CONVERGENCE           8
MAX_SUB_FILE_NUM          128
MEM_STATIC                400
MEM_TOTAL                 4000
$end
--------------------------------------------------------------

   15   -1510.0877013156      7.98E-09 Convergence criterion met
 Total energy in the final basis set = -1510.08770132
   15   -1510.1485524116      3.55E-09 Convergence criterion met
 Total energy in the final basis set = -1510.14855241
   14   -1510.2010497132      7.48E-09 Convergence criterion met
 Total energy in the final basis set = -1510.20104971
   14   -1510.2283314325      8.41E-09 Convergence criterion met
 Total energy in the final basis set = -1510.22833143
   14   -1510.2410121402      5.57E-09 Convergence criterion met
 Total energy in the final basis set = -1510.24101214
   14   -1510.2478896983      4.30E-09 Convergence criterion met
 Total energy in the final basis set = -1510.24788970
   14   -1510.2519975012      4.06E-09 Convergence criterion met
 Total energy in the final basis set = -1510.25199750
   13   -1510.2539846698      6.26E-09 Convergence criterion met
   11   -1510.2569822915      8.23E-09 Convergence criterion met
 Total energy in the final basis set = -1510.25698229
   11   -1510.2570122573      5.44E-09 Convergence criterion met
 Total energy in the final basis set = -1510.25701226
   11   -1510.2570336652      3.24E-09 Convergence criterion met
 Total energy in the final basis set = -1510.25703367
   11   -1510.2570464323      2.73E-09 Convergence criterion met
 Total energy in the final basis set = -1510.25704643
   10   -1510.2570498101      7.42E-09 Convergence criterion met
 Total energy in the final basis set = -1510.25704981
    9   -1510.2570511132      7.13E-09 Convergence criterion met
 Total energy in the final basis set = -1510.25705111

             Standard Nuclear Orientation (Angstroms)
    I     Atom           X                Y                Z
 ----------------------------------------------------------------
    1      O      -5.2248137332     0.8266240311     1.7370311407
    2      C      -4.8450078727     0.5907313784     0.5697421371
    3      C      -4.0644608222    -0.6725033167     0.0609816291
    4      C      -2.8234034021    -0.4025434148    -0.8866868856
    5      C      -2.1940412221     1.0310884651    -0.6693024376
    6      O      -0.7707809463     0.9449544572    -0.7966364362
    7      C      -0.1771531641     2.2940197490    -0.6533509808
    8      C       1.2920920753     2.3072998778    -1.2383568766
    9      O       2.3815962818     2.4456957984    -0.2508586446
   10      C       2.2815485639     1.5402082028     0.8769519038
   11      C       3.5724813578     0.6235090231     0.9753188112
   12      C       3.4125634836    -0.9388310788     0.7822643676
   13      C       2.1780135618    -1.3292557321    -0.1065223074
   14      O       1.1040745463    -0.6979230910    -0.2239369000
   15      O      -5.3087319817     1.3064996821    -0.5839822292
   16      O       2.4600287682    -2.5646084280    -0.7660768667
   17      O       1.3702203187     1.5878707178     1.7303361015
   18      C       1.3347707882    -2.9695949056    -1.6376770006
   19      C       4.7369228836     0.9468383006    -0.0605178301
   20      C       6.0999865944     0.6473255210     0.6714356183
   21      C       6.0189870623    -0.9201666167     0.7928363738
   22      C       4.7264768136    -1.2360637759    -0.0595615758
   23      O       4.6646334325    -0.1437961943    -1.0615715112
   24      H       3.9556117383     0.7848477334     2.0012195703
   25      H       3.3633810257    -1.4782262183     1.7459815398
   26      H       4.6425559060     1.9344359858    -0.5507174143
   27      H       6.9491633929     0.9568622109     0.0409717666
   28      H       6.1799256162     1.1517846305     1.6474754387
   29      H       6.9022107125    -1.4112337481     0.3548771526
   30      H       5.9103196277    -1.2576955855     1.8362146602
   31      H       4.7105984800    -2.2235948576    -0.5584313811
   32      O      -2.7901811587     2.0926577404    -0.3829109432
   33      C      -6.0695639282     2.5028943553    -0.1636218647
   34      C      -3.4299745790    -1.5873244137     1.1862069611
   35      C      -3.4324083546    -3.0622802125     0.6282560791
   36      C      -2.3533168453    -2.9360154442    -0.5124048846
   37      C      -1.8086912133    -1.4686449222    -0.2806501222
   38      O      -1.9908264171    -1.2429997376     1.1754664881
   39      H      -4.8118540446    -1.2560832762    -0.5102110747
   40      H      -3.0623283994    -0.5571287870    -1.9543902732
   41      H      -5.4050651830     3.2483906724     0.3191424505
   42      H      -3.8672743811    -1.4414223688     2.1932891212
   43      H      -3.1077889930    -3.7688837054     1.4091767684
   44      H      -4.4199178386    -3.3759891609     0.2537508132
   45      H      -1.5482643830    -3.6771529262    -0.3854764608
   46      H      -2.7854724965    -3.0609070054    -1.5184814688
   47      H      -0.7438024105    -1.2849764382    -0.5403869200
   48      H      -6.8845009813     2.2430334886     0.5425852094
   49      H      -6.4979107297     2.9353940436    -1.0864614171
   50      H       1.7186147741    -3.7913175743    -2.2699665489
   51      H       0.9910062801    -2.1329236763    -2.2784518358
   52      H       0.4756797038    -3.3367943870    -1.0413067138
   53      H       1.4354554818     1.3757860475    -1.8344863227
   54      H       1.4169997981     3.1778621732    -1.9144007173
   55      H      -0.1373618114     2.5671001351     0.4245118822
   56      H      -0.8079022135     3.0424525289    -1.1785659420
 ----------------------------------------------------------------

    9   -1510.2570509996      4.76E-09 Convergence criterion met
 Total energy in the final basis set = -1510.25705100
 Final energy is   -1510.25705099955
 **  OPTIMIZATION CONVERGED  **

                    Orbital Energies (a.u.)
 --------------------------------------------------------------

 Alpha MOs
 -- Occupied --
-18.947 -18.927 -18.917 -18.906 -18.894 -18.892 -18.886 -18.872
-18.866 -18.861 -10.111 -10.106 -10.090 -10.087 -10.073 -10.072
-10.060 -10.059 -10.056 -10.050 -10.048 -10.045 -10.038 -10.034
-10.030 -10.026 -10.022 -10.020 -10.014 -10.012  -1.023  -1.006
 -1.002  -0.995  -0.971  -0.957  -0.948  -0.936  -0.927  -0.921
 -0.764  -0.753  -0.726  -0.718  -0.711  -0.699  -0.686  -0.670
 -0.649  -0.610  -0.596  -0.576  -0.545  -0.538  -0.535  -0.529
 -0.516  -0.502  -0.484  -0.475  -0.460  -0.454  -0.446  -0.444
 -0.435  -0.425  -0.421  -0.419  -0.413  -0.398  -0.396  -0.394
 -0.389  -0.383  -0.380  -0.367  -0.363  -0.359  -0.349  -0.344
 -0.340  -0.333  -0.332  -0.327  -0.326  -0.320  -0.315  -0.314
 -0.309  -0.304  -0.302  -0.298  -0.290  -0.284  -0.278  -0.271
 -0.263  -0.259  -0.244  -0.239  -0.236  -0.233  -0.221  -0.188
 -0.173  -0.165  -0.162  -0.161  -0.152  -0.144  -0.143  -0.137
 -0.131

          Ground-State Mulliken Net Atomic Charges

     Atom                 Charge (a.u.)
  ----------------------------------------
      1 O                    -0.216522
      2 C                     0.213706
      3 C                    -0.080799
      4 C                    -0.075960
      5 C                     0.211326
      6 O                    -0.165130
      7 C                    -0.056047
      8 C                    -0.043612
      9 O                    -0.196017
     10 C                     0.223807
     11 C                    -0.083478
     12 C                    -0.075340
     13 C                     0.217116
     14 O                    -0.202945
     15 O                    -0.170074
     16 O                    -0.167758
     17 O                    -0.183679
     18 C                    -0.128924
     19 C                     0.020926
     20 C                    -0.142122
     21 C                    -0.145933
     22 C                     0.022575
     23 O                    -0.195527
     24 H                     0.081710
     25 H                     0.090135
     26 H                     0.093228
     27 H                     0.077668
     28 H                     0.073968
     29 H                     0.078220
     30 H                     0.073761
     31 H                     0.091722
     32 O                    -0.214849
     33 C                    -0.127319
     34 C                     0.021880
     35 C                    -0.142023
     36 C                    -0.147509
     37 C                     0.009672
     38 O                    -0.193099
     39 H                     0.080852
     40 H                     0.082816
     41 H                     0.091303
     42 H                     0.088591
     43 H                     0.075302
     44 H                     0.071133
     45 H                     0.068495
     46 H                     0.069648
     47 H                     0.108137
     48 H                     0.086929
     49 H                     0.086181
     50 H                     0.093148
     51 H                     0.093186
     52 H                     0.089642
     53 H                     0.087404
     54 H                     0.088655
     55 H                     0.103539
     56 H                     0.088285
  ----------------------------------------
  Sum of atomic charges =     0.000000

                    Cartesian Multipole Moments
 -----------------------------------------------------------------
    Charge (ESU x 10^10)
                 0.0000
    Dipole Moment (Debye)
         X       2.0286      Y      -2.2318      Z      -2.3302
       Tot       3.8113
    Quadrupole Moments (Debye-Ang)
        XX    -150.9254     XY       1.9414     YY    -151.5957
        XZ      12.7622     YZ      -1.3308     ZZ    -161.5827

 Total job time:  69.43s(wall), 3301.26s(cpu)
        *  Thank you very much for using Q-Chem.  Have a nice day.  *
