 Q-Chem 5.0, Q-Chem, Inc., Pleasanton, CA (2017)
 Q-Chem 5.0.1 for Intel X86 EM64T Linux

User input:
--------------------------------------------------------------
$molecule
0  1
O -3.94934 -3.66094 2.70899
C -3.26408 -4.56952 2.26188
C -3.36658 -6.02376 2.66595
C -2.20468 -6.6089 3.48537
C -1.15455 -5.62959 3.96105
O -0.57113 -6.09425 5.10523
C 0.51254 -5.27544 5.55739
C 1.49297 -6.10714 6.37785
O 1.07036 -6.14931 7.74989
C -0.15164 -6.69582 7.96711
C -0.46055 -6.88224 9.43356
C -0.06951 -8.25147 10.0085
C 0.8733 -9.07996 9.15913
O 1.37137 -8.72463 8.10072
O -2.35266 -4.28537 1.29306
O 1.21198 -10.29587 9.66335
O -0.75259 -7.37726 7.15492
C 2.0735 -11.17961 9.04796
C 0.32699 -5.96046 10.3967
C -0.43876 -5.81303 11.71111
C -0.25805 -7.19684 12.30105
C 0.69254 -7.81319 11.26863
O 1.4421 -6.72116 10.79361
H -1.54226 -6.64892 9.55798
H -0.96444 -8.88242 10.20331
H 0.54223 -4.95619 9.97059
H 0.13019 -5.08553 12.33383
H -1.49159 -5.46899 11.62195
H 0.23925 -7.09409 13.291
H -1.18889 -7.79643 12.40031
H 1.27632 -8.64331 11.72396
O -0.94138 -4.51474 3.50203
C -2.13327 -3.02488 0.77773
C -4.56329 -6.2628 3.60901
C -5.00577 -7.72096 3.53206
C -3.86139 -8.39041 4.25079
C -3.04479 -7.1624 4.67248
O -4.00917 -6.16763 4.89157
H -3.5503 -6.58767 1.72387
H -1.66848 -7.44505 2.98547
H -1.80275 -2.33428 1.58283
H -5.43406 -5.60246 3.40213
H -5.92505 -7.82276 4.15267
H -5.2098 -8.09816 2.50685
H -4.27016 -8.91007 5.14646
H -3.26374 -9.10196 3.641
H -2.45445 -7.44923 5.55339
H -3.06195 -2.63673 0.30743
H -1.33821 -3.08076 0.00626
H 2.16995 -12.08974 9.67471
H 3.07705 -10.7173 8.93152
H 1.67596 -11.47089 8.0522
H 1.65094 -7.11695 5.93855
H 2.47388 -5.58464 6.38396
H 0.17591 -4.34651 6.06799
H 1.12575 -4.98197 4.67147
$end

$opt
CONSTRAINT
tors           1           2           3           4    -109.907
tors           3           4           5           6    +152.582
tors           4           5           6           7    +175.106
tors           5           6           7           8    -153.923
tors           6           7           8           9     -86.412
tors           7           8           9          10     +60.355
tors           8           9          10          11    +172.252
tors           9          10          11          12     -91.757
tors          11          12          13          14      +2.849
ENDCONSTRAINT
$end

$rem
JOBTYPE                   OPT
METHOD                    B3LYP
DFT_D                     d3_op
BASIS                     STO-3G
GEOM_OPT_MAX_CYCLES       100
GEOM_OPT_TOL_GRADIENT     300
GEOM_OPT_TOL_DISPLACEMENT 1200
GEOM_OPT_TOL_ENERGY       100
SYMMETRY                  False
THRESH                    12
SCF_CONVERGENCE           8
MAX_SUB_FILE_NUM          128
MEM_STATIC                400
MEM_TOTAL                 4000
$end
--------------------------------------------------------------

   15   -1510.1410594873      9.37E-09 Convergence criterion met
 Total energy in the final basis set = -1510.14105949
   14   -1510.2127647796      1.53E-09 Convergence criterion met
 Total energy in the final basis set = -1510.21276478
   14   -1510.2505818114      4.01E-09 Convergence criterion met
 Total energy in the final basis set = -1510.25058181
   14   -1510.2680159914      2.62E-09 Convergence criterion met
 Total energy in the final basis set = -1510.26801599
   14   -1510.2757885637      4.59E-09 Convergence criterion met
 Total energy in the final basis set = -1510.27578856
   13   -1510.2788257532      5.49E-09 Convergence criterion met
 Total energy in the final basis set = -1510.27882575
   13   -1510.2803730638      5.17E-09 Convergence criterion met
 Total energy in the final basis set = -1510.28037306
   12   -1510.2809131714      7.62E-09 Convergence criterion met
   12   -1510.2814805448      2.93E-09 Convergence criterion met
 Total energy in the final basis set = -1510.28148054
   11   -1510.2815142673      5.85E-09 Convergence criterion met
 Total energy in the final basis set = -1510.28151427
   10   -1510.2815320682      5.97E-09 Convergence criterion met
 Total energy in the final basis set = -1510.28153207
   10   -1510.2815450434      8.62E-09 Convergence criterion met
 Total energy in the final basis set = -1510.28154504
   11   -1510.2815526601      2.12E-09 Convergence criterion met
 Total energy in the final basis set = -1510.28155266
    9   -1510.2815551217      9.65E-09 Convergence criterion met
 Total energy in the final basis set = -1510.28155512

             Standard Nuclear Orientation (Angstroms)
    I     Atom           X                Y                Z
 ----------------------------------------------------------------
    1      O      -5.6543571978     1.0247877475     1.0633934815
    2      C      -5.3419874756     0.4030797479     0.0257265744
    3      C      -4.5507874497    -0.9502257722    -0.0820402475
    4      C      -3.0909342713    -0.8096262199    -0.6761092872
    5      C      -2.5976709817     0.6836724064    -0.7151142155
    6      O      -1.1766635086     0.6615339406    -0.6290251158
    7      C      -0.5899075678     2.0094638690    -0.7728437937
    8      C       0.8741187921     1.8620237829    -1.3300900773
    9      O       1.9500925617     1.6476472500    -0.3379991393
   10      C       1.8046757777     0.4615329789     0.4531325962
   11      C       3.1233082945     0.2873325852     1.3027085877
   12      C       4.2252612444    -0.6050873362     0.5952711767
   13      C       3.8290395701    -1.0547441713    -0.8509158012
   14      O       2.7984097921    -0.7511234302    -1.4930291181
   15      O      -5.8197698966     0.7287008772    -1.2889098472
   16      O       4.8691258851    -1.8895720436    -1.3641633455
   17      O       0.7989543653    -0.2743635737     0.5238701457
   18      C       4.5429501579    -2.3156259336    -2.7454871918
   19      C       3.9286977014     1.6399868590     1.5123847758
   20      C       4.9452916673     1.4337737007     2.7046311792
   21      C       6.0386202098     0.5324404277     2.0210149824
   22      C       5.4550586825     0.4039244323     0.5591595611
   23      O       4.8075985028     1.7124608966     0.3212519482
   24      H       2.8306748818    -0.1632975322     2.2676423547
   25      H       4.4677159297    -1.5069909843     1.1859890393
   26      H       3.2954130742     2.5446275828     1.5817315945
   27      H       5.3629731930     2.4018479286     3.0239246614
   28      H       4.4739675721     0.9485929589     3.5743608753
   29      H       7.0201469996     1.0319949427     1.9993733943
   30      H       6.1514203391    -0.4479030836     2.5109247260
   31      H       6.1984335499     0.1814200328    -0.2309321016
   32      O      -3.2893454170     1.7248600378    -0.7779819455
   33      C      -6.5280983524     2.0263182678    -1.2564963750
   34      C      -4.2464448853    -1.6288165572     1.3186741569
   35      C      -4.0108362513    -3.1674154227     1.0596214109
   36      C      -2.6070734600    -3.1363160759     0.3457724998
   37      C      -2.2516081152    -1.5984969600     0.4196171254
   38      O      -2.8944267132    -1.1416816583     1.6758466153
   39      H      -5.1502617992    -1.6225849205    -0.7222958001
   40      H      -3.0040041115    -1.2479311123    -1.6871839423
   41      H      -5.8373492482     2.8513410389    -0.9868801039
   42      H      -4.9736311153    -1.3758853184     2.1145486584
   43      H      -3.9626734491    -3.7143911914     2.0148731128
   44      H      -4.8001667142    -3.6156721622     0.4352786757
   45      H      -1.8597519023    -3.7326400608     0.8925849516
   46      H      -2.6527595183    -3.4976524744    -0.6942721366
   47      H      -1.1718062045    -1.3396338739     0.4194074265
   48      H      -7.3692470865     2.0178814289    -0.5331130415
   49      H      -6.9184524637     2.1900955461    -2.2778509428
   50      H       5.3900657511    -2.9428122382    -3.0787178506
   51      H       4.4335823158    -1.4459305802    -3.4250542232
   52      H       3.6060047676    -2.9083677000    -2.7783616308
   53      H       0.8825332757     1.0380672074    -2.0791476386
   54      H       1.1582973524     2.8072715878    -1.8358301051
   55      H      -0.5787731404     2.5340881880     0.2086656896
   56      H      -1.1968003167     2.6195074757    -1.4771932107
 ----------------------------------------------------------------

    9   -1510.2815558547      6.03E-09 Convergence criterion met
 Total energy in the final basis set = -1510.28155585
 Final energy is   -1510.28155585475
 **  OPTIMIZATION CONVERGED  **

                    Orbital Energies (a.u.)
 --------------------------------------------------------------

 Alpha MOs
 -- Occupied --
-18.944 -18.933 -18.924 -18.913 -18.888 -18.887 -18.873 -18.872
-18.866 -18.855 -10.107 -10.096 -10.095 -10.083 -10.072 -10.071
-10.071 -10.062 -10.058 -10.048 -10.046 -10.041 -10.040 -10.033
-10.028 -10.023 -10.021 -10.019 -10.010 -10.008  -1.021  -1.012
 -0.998  -0.991  -0.970  -0.956  -0.944  -0.934  -0.930  -0.918
 -0.763  -0.752  -0.725  -0.719  -0.710  -0.701  -0.687  -0.668
 -0.647  -0.613  -0.594  -0.575  -0.546  -0.537  -0.533  -0.526
 -0.512  -0.503  -0.484  -0.475  -0.462  -0.448  -0.445  -0.444
 -0.434  -0.420  -0.417  -0.415  -0.412  -0.406  -0.396  -0.394
 -0.389  -0.380  -0.377  -0.366  -0.357  -0.353  -0.351  -0.340
 -0.339  -0.335  -0.331  -0.327  -0.323  -0.322  -0.314  -0.310
 -0.306  -0.302  -0.301  -0.295  -0.290  -0.280  -0.279  -0.268
 -0.261  -0.261  -0.245  -0.240  -0.237  -0.234  -0.220  -0.186
 -0.173  -0.168  -0.161  -0.160  -0.153  -0.145  -0.137  -0.134
 -0.131

          Ground-State Mulliken Net Atomic Charges

     Atom                 Charge (a.u.)
  ----------------------------------------
      1 O                    -0.218233
      2 C                     0.213719
      3 C                    -0.082286
      4 C                    -0.076549
      5 C                     0.214133
      6 O                    -0.161575
      7 C                    -0.048499
      8 C                    -0.045810
      9 O                    -0.172723
     10 C                     0.218460
     11 C                    -0.081457
     12 C                    -0.078466
     13 C                     0.214110
     14 O                    -0.208749
     15 O                    -0.174117
     16 O                    -0.169320
     17 O                    -0.211185
     18 C                    -0.128229
     19 C                     0.026465
     20 C                    -0.144325
     21 C                    -0.143807
     22 C                     0.025148
     23 O                    -0.188505
     24 H                     0.083380
     25 H                     0.087230
     26 H                     0.087640
     27 H                     0.077718
     28 H                     0.073934
     29 H                     0.078081
     30 H                     0.073867
     31 H                     0.085150
     32 O                    -0.214407
     33 C                    -0.127876
     34 C                     0.023285
     35 C                    -0.143300
     36 C                    -0.145465
     37 C                     0.016897
     38 O                    -0.193077
     39 H                     0.081675
     40 H                     0.083998
     41 H                     0.091598
     42 H                     0.086238
     43 H                     0.075503
     44 H                     0.070683
     45 H                     0.076197
     46 H                     0.070440
     47 H                     0.110283
     48 H                     0.085531
     49 H                     0.084873
     50 H                     0.092196
     51 H                     0.090790
     52 H                     0.090685
     53 H                     0.096102
     54 H                     0.090745
     55 H                     0.088489
     56 H                     0.092718
  ----------------------------------------
  Sum of atomic charges =    -0.000000

                    Cartesian Multipole Moments
 -----------------------------------------------------------------
    Charge (ESU x 10^10)
                 0.0000
    Dipole Moment (Debye)
         X       3.0037      Y      -1.6160      Z      -1.6850
       Tot       3.8043
    Quadrupole Moments (Debye-Ang)
        XX    -153.3310     XY      -0.4936     YY    -152.7618
        XZ       9.1147     YZ       1.1319     ZZ    -154.1268

 Total job time:  50.11s(wall), 2386.38s(cpu)
        *  Thank you very much for using Q-Chem.  Have a nice day.  *
