 Q-Chem 5.0, Q-Chem, Inc., Pleasanton, CA (2017)
 Q-Chem 5.0.1 for Intel X86 EM64T Linux

User input:
--------------------------------------------------------------
$molecule
0  1
O -5.6543571978 1.0247877475 1.0633934815
C -5.3419874756 0.4030797479 0.0257265744
C -4.5507874497 -0.9502257722 -0.0820402475
C -3.0909342713 -0.8096262199 -0.6761092872
C -2.5976709817 0.6836724064 -0.7151142155
O -1.1766635086 0.6615339406 -0.6290251158
C -0.5899075678 2.009463869 -0.7728437937
C 0.8741187921 1.8620237829 -1.3300900773
O 1.9500925617 1.64764725 -0.3379991393
C 1.8046757777 0.4615329789 0.4531325962
C 3.1233082945 0.2873325852 1.3027085877
C 4.2252612444 -0.6050873362 0.5952711767
C 3.8290395701 -1.0547441713 -0.8509158012
O 2.7984097921 -0.7511234302 -1.4930291181
O -5.8197698966 0.7287008772 -1.2889098472
O 4.8691258851 -1.8895720436 -1.3641633455
O 0.7989543653 -0.2743635737 0.5238701457
C 4.5429501579 -2.3156259336 -2.7454871918
C 3.9286977014 1.639986859 1.5123847758
C 4.9452916673 1.4337737007 2.7046311792
C 6.0386202098 0.5324404277 2.0210149824
C 5.4550586825 0.4039244323 0.5591595611
O 4.8075985028 1.7124608966 0.3212519482
H 2.8306748818 -0.1632975322 2.2676423547
H 4.4677159297 -1.5069909843 1.1859890393
H 3.2954130742 2.5446275828 1.5817315945
H 5.362973193 2.4018479286 3.0239246614
H 4.4739675721 0.9485929589 3.5743608753
H 7.0201469996 1.0319949427 1.9993733943
H 6.1514203391 -0.4479030836 2.510924726
H 6.1984335499 0.1814200328 -0.2309321016
O -3.289345417 1.7248600378 -0.7779819455
C -6.5280983524 2.0263182678 -1.256496375
C -4.2464448853 -1.6288165572 1.3186741569
C -4.0108362513 -3.1674154227 1.0596214109
C -2.60707346 -3.1363160759 0.3457724998
C -2.2516081152 -1.59849696 0.4196171254
O -2.8944267132 -1.1416816583 1.6758466153
H -5.1502617992 -1.6225849205 -0.7222958001
H -3.0040041115 -1.2479311123 -1.6871839423
H -5.8373492482 2.8513410389 -0.9868801039
H -4.9736311153 -1.3758853184 2.1145486584
H -3.9626734491 -3.7143911914 2.0148731128
H -4.8001667142 -3.6156721622 0.4352786757
H -1.8597519023 -3.7326400608 0.8925849516
H -2.6527595183 -3.4976524744 -0.6942721366
H -1.1718062045 -1.3396338739 0.4194074265
H -7.3692470865 2.0178814289 -0.5331130415
H -6.9184524637 2.1900955461 -2.2778509428
H 5.3900657511 -2.9428122382 -3.0787178506
H 4.4335823158 -1.4459305802 -3.4250542232
H 3.6060047676 -2.9083677 -2.7783616308
H 0.8825332757 1.0380672074 -2.0791476386
H 1.1582973524 2.8072715878 -1.8358301051
H -0.5787731404 2.534088188 0.2086656896
H -1.1968003167 2.6195074757 -1.4771932107
$end

$rem
JOBTYPE                   OPT
METHOD                    B3LYP
DFT_D                     d3_op
BASIS                     STO-3G
GEOM_OPT_MAX_CYCLES       100
GEOM_OPT_TOL_GRADIENT     300
GEOM_OPT_TOL_DISPLACEMENT 1200
GEOM_OPT_TOL_ENERGY       100
SYMMETRY                  False
THRESH                    12
SCF_CONVERGENCE           8
MAX_SUB_FILE_NUM          128
MEM_STATIC                400
MEM_TOTAL                 4000
$end
--------------------------------------------------------------

   16   -1510.2817113283      4.36E-09 Convergence criterion met
 Total energy in the final basis set = -1510.28171133
   14   -1510.2834885758      4.90E-09 Convergence criterion met
 Total energy in the final basis set = -1510.28348858
   14   -1510.2849424390      2.35E-09 Convergence criterion met
 Total energy in the final basis set = -1510.28494244
   14   -1510.2861980695      2.99E-09 Convergence criterion met
 Total energy in the final basis set = -1510.28619807
   14   -1510.2872621491      5.26E-09 Convergence criterion met
 Total energy in the final basis set = -1510.28726215
   14   -1510.2883910840      3.62E-09 Convergence criterion met
 Total energy in the final basis set = -1510.28839108
   14   -1510.2895315091      1.88E-09 Convergence criterion met
 Total energy in the final basis set = -1510.28953151
   14   -1510.2906713509      2.61E-09 Convergence criterion met
   13   -1510.3062097912      5.27E-09 Convergence criterion met
 Total energy in the final basis set = -1510.30620979
   12   -1510.3062723574      8.95E-09 Convergence criterion met
 Total energy in the final basis set = -1510.30627236
   11   -1510.3063119406      6.36E-09 Convergence criterion met
 Total energy in the final basis set = -1510.30631194
   12   -1510.3063253212      3.09E-09 Convergence criterion met
 Total energy in the final basis set = -1510.30632532
   11   -1510.3063331187      4.74E-09 Convergence criterion met
 Total energy in the final basis set = -1510.30633312
   10   -1510.3063350176      5.59E-09 Convergence criterion met
 Total energy in the final basis set = -1510.30633502

             Standard Nuclear Orientation (Angstroms)
    I     Atom           X                Y                Z
 ----------------------------------------------------------------
    1      O      -1.7241907155     1.2625214392     2.3224341654
    2      C      -2.6194198039     0.8790183945     1.5371050957
    3      C      -2.9170614589    -0.6004106971     1.0933128036
    4      C      -2.5004213452    -0.9369327317    -0.3973779387
    5      C      -1.8933605842     0.2894415039    -1.1573950608
    6      O      -1.8529021515    -0.0260058340    -2.5510501912
    7      C      -1.1850097732     1.0452426737    -3.3328311928
    8      C       0.3481201468     0.7347218930    -3.5304443009
    9      O       1.0670055867     0.9270764112    -2.2538146094
   10      C       1.0757976880    -0.2992135011    -1.5044993009
   11      C       1.3855104058    -0.0104097149     0.0088064138
   12      C       2.7956882163    -0.5319956562     0.4890280489
   13      C       3.7031985361    -0.9053724716    -0.7272581335
   14      O       3.4277841411    -0.7284499125    -1.9376045883
   15      O      -3.6545208135     1.7216743712     1.0182619992
   16      O       4.9332754639    -1.4581590369    -0.2609612548
   17      O       0.6872445767    -1.3945611970    -1.9851672564
   18      C       5.8123194152    -1.7779449994    -1.4106918400
   19      C       1.4878447128     1.5330606863     0.3666611025
   20      C       1.2112907055     1.6982504591     1.9066648204
   21      C       2.5042622534     1.0359601956     2.5086012172
   22      C       3.3556021920     0.7742119696     1.1997752364
   23      O       2.9375172874     1.8385598842     0.2602470195
   24      H       0.5688137308    -0.5107667280     0.5848912569
   25      H       2.7260712163    -1.3910192492     1.1804203821
   26      H       0.8941757207     2.1859812761    -0.3002967484
   27      H       1.1661201234     2.7696733640     2.1597467583
   28      H       0.2598671642     1.2278228963     2.2167020680
   29      H       3.0364287514     1.7169630157     3.1913928107
   30      H       2.2888929828     0.0967452154     3.0429918032
   31      H       4.4545815712     0.7788421596     1.3376755787
   32      O      -1.5027198845     1.3691421470    -0.6565014915
   33      C      -3.3680206461     3.1322550138     1.3623602961
   34      C      -2.0096849430    -1.6169694629     1.8989431337
   35      C      -2.5948186321    -3.0713457784     1.7200408154
   36      C      -2.1579330504    -3.4015098167     0.2426608332
   37      C      -1.4105721017    -2.0771881186    -0.1644306457
   38      O      -0.7601425445    -1.6597131612     1.1017343750
   39      H      -3.9936101983    -0.7944720562     1.2472150224
   40      H      -3.3516257716    -1.3217803565    -0.9863120401
   41      H      -2.4271848153     3.4746330276     0.8847012928
   42      H      -1.7929283179    -1.3051309878     2.9390270592
   43      H      -2.1341944417    -3.7641178896     2.4421265200
   44      H      -3.6879951655    -3.0960502204     1.8549652754
   45      H      -1.4644051446    -4.2569692652     0.2101979459
   46      H      -3.0140803936    -3.6180023913    -0.4162136575
   47      H      -0.6358655959    -2.1366040554    -0.9690632465
   48      H      -3.2823764386     3.2767033593     2.4587078272
   49      H      -4.2184389330     3.7221621631     0.9739607137
   50      H       6.7381166801    -2.2000124011    -0.9785333399
   51      H       6.0561742753    -0.8709192758    -2.0007264738
   52      H       5.3435108201    -2.5221588138    -2.0863292551
   53      H       0.4750086308    -0.3079532888    -3.8921753951
   54      H       0.7782073469     1.4519469250    -4.2586427176
   55      H      -1.3043942322     2.0219386032    -2.8168567381
   56      H      -1.6915944019     1.0716930047    -4.3195721804
 ----------------------------------------------------------------

   10   -1510.3063347341      6.69E-09 Convergence criterion met
 Total energy in the final basis set = -1510.30633473
 Final energy is   -1510.30633473406
 **  OPTIMIZATION CONVERGED  **

                    Orbital Energies (a.u.)
 --------------------------------------------------------------

 Alpha MOs
 -- Occupied --
-18.940 -18.937 -18.927 -18.921 -18.895 -18.885 -18.878 -18.868
-18.866 -18.855 -10.107 -10.097 -10.097 -10.089 -10.073 -10.066
-10.064 -10.061 -10.058 -10.047 -10.045 -10.039 -10.036 -10.033
-10.025 -10.021 -10.018 -10.005 -10.001  -9.988  -1.021  -1.012
 -1.004  -0.996  -0.974  -0.951  -0.944  -0.936  -0.930  -0.923
 -0.764  -0.745  -0.725  -0.714  -0.704  -0.700  -0.684  -0.658
 -0.658  -0.614  -0.589  -0.572  -0.545  -0.538  -0.528  -0.517
 -0.510  -0.500  -0.484  -0.470  -0.462  -0.454  -0.449  -0.438
 -0.430  -0.426  -0.417  -0.414  -0.408  -0.406  -0.401  -0.395
 -0.391  -0.378  -0.368  -0.366  -0.358  -0.355  -0.351  -0.345
 -0.343  -0.340  -0.332  -0.328  -0.324  -0.316  -0.313  -0.306
 -0.305  -0.301  -0.293  -0.287  -0.282  -0.276  -0.273  -0.271
 -0.260  -0.254  -0.250  -0.247  -0.234  -0.232  -0.213  -0.191
 -0.178  -0.170  -0.164  -0.154  -0.152  -0.150  -0.148  -0.140
 -0.125

          Ground-State Mulliken Net Atomic Charges

     Atom                 Charge (a.u.)
  ----------------------------------------
      1 O                    -0.218981
      2 C                     0.219356
      3 C                    -0.082125
      4 C                    -0.080117
      5 C                     0.212112
      6 O                    -0.168853
      7 C                    -0.053498
      8 C                    -0.052042
      9 O                    -0.169643
     10 C                     0.216947
     11 C                    -0.099036
     12 C                    -0.078013
     13 C                     0.215133
     14 O                    -0.206656
     15 O                    -0.173188
     16 O                    -0.167616
     17 O                    -0.235010
     18 C                    -0.128005
     19 C                     0.021876
     20 C                    -0.152058
     21 C                    -0.144935
     22 C                     0.023964
     23 O                    -0.196581
     24 H                     0.111971
     25 H                     0.086538
     26 H                     0.091389
     27 H                     0.070009
     28 H                     0.095955
     29 H                     0.072651
     30 H                     0.071336
     31 H                     0.079506
     32 O                    -0.211327
     33 C                    -0.128207
     34 C                     0.025823
     35 C                    -0.143831
     36 C                    -0.143889
     37 C                     0.010408
     38 O                    -0.193103
     39 H                     0.085326
     40 H                     0.088162
     41 H                     0.093609
     42 H                     0.088326
     43 H                     0.078065
     44 H                     0.073555
     45 H                     0.079437
     46 H                     0.074246
     47 H                     0.114234
     48 H                     0.088124
     49 H                     0.087618
     50 H                     0.091074
     51 H                     0.091039
     52 H                     0.090397
     53 H                     0.102090
     54 H                     0.089637
     55 H                     0.097705
     56 H                     0.089093
  ----------------------------------------
  Sum of atomic charges =    -0.000000

                    Cartesian Multipole Moments
 -----------------------------------------------------------------
    Charge (ESU x 10^10)
                -0.0000
    Dipole Moment (Debye)
         X      -1.8608      Y      -1.1063      Z      -0.3206
       Tot       2.1884
    Quadrupole Moments (Debye-Ang)
        XX    -146.3988     XY      -5.1543     YY    -156.1807
        XZ      -1.0879     YZ      -4.1569     ZZ    -154.0939

 Total job time:  159.48s(wall), 7594.79s(cpu)
        *  Thank you very much for using Q-Chem.  Have a nice day.  *
