 Q-Chem 5.0, Q-Chem, Inc., Pleasanton, CA (2017)
 Q-Chem 5.0.1 for Intel X86 EM64T Linux

User input:
--------------------------------------------------------------
$molecule
0  1
O -5.8727849678 1.7136997908 0.7595590707
C -5.4708462552 0.8823925856 -0.0828348305
C -4.8887924093 -0.5491672243 0.1945991457
C -3.5765131995 -0.9339184185 -0.5992577416
C -2.7337817928 0.3365549348 -1.0179817065
O -1.3496435337 -0.0157222288 -0.9891072116
C -0.4995210334 1.1203873243 -1.4181271997
C 0.8973996549 0.5159281944 -1.8248287371
O 1.9516926352 0.8956382834 -0.8601904658
C 2.0517044915 -0.0929815713 0.1747955869
C 3.2060771692 0.3096379376 1.165798062
C 4.6266934281 -0.2598790064 0.7477888299
C 4.5842305738 -1.2011802453 -0.4990919849
O 3.7520953832 -1.1976379218 -1.4335372186
O -5.7364604098 0.9723794238 -1.4902931125
O 5.7092660027 -2.0831465257 -0.4349712627
O 1.2986026965 -1.0859454533 0.2768775446
C 5.7301759967 -2.9640081903 -1.6265536029
C 3.4988570782 1.8684214246 1.138806162
C 4.4224902984 2.2318162535 2.3692651824
C 5.8203617645 1.7072356433 1.8718904156
C 5.4273433367 1.0912409883 0.4722635856
O 4.3945243604 2.0202687744 -0.0326523133
H 2.9223672219 -0.0464609658 2.1721666647
H 5.0940920127 -0.8184642022 1.5779294173
H 2.5982662359 2.500586966 1.0210303134
H 4.4341061559 3.3204633181 2.5361878814
H 4.0885225242 1.7362229645 3.2946698964
H 6.5367930182 2.5332794835 1.7368895049
H 6.2642902838 0.9599630293 2.5487471663
H 6.2579436037 0.9955687907 -0.2539382519
O -3.1439581867 1.4894265083 -1.2756974063
C -6.2936488765 2.3031963009 -1.8150045205
C -4.4561727417 -0.8449930743 1.691097732
C -4.6735975461 -2.3882028781 1.9302280042
C -3.5406311419 -2.9826030664 1.0110679728
C -2.7786231321 -1.6735303406 0.5584108732
O -2.9787804146 -0.7257153198 1.6845841036
H -5.6937617492 -1.2487182997 -0.1012731504
H -3.7812800107 -1.5636594059 -1.4840918794
H -5.537519611 3.1000205936 -1.6606806823
H -4.9044980527 -0.1632006535 2.4400233638
H -4.5036245852 -2.6409839945 2.9892500168
H -5.6826261261 -2.7242038233 1.6419036714
H -2.8659311254 -3.6469988849 1.5734858527
H -3.9437772819 -3.5398270002 0.1498865818
H -1.6992627328 -1.7956881497 0.3449587202
H -7.1867084354 2.536339597 -1.1995677651
H -6.5759044849 2.2663397269 -2.8832871415
H 6.6071931816 -3.6252796475 -1.5016745093
H 5.835589091 -2.3799964719 -2.5637103776
H 4.8083652438 -3.5768244256 -1.6961389161
H 0.8026069007 -0.5893570051 -1.8859425112
H 1.2223059897 0.9230464373 -2.8030973927
H -0.3703065568 1.8462005032 -0.5845418225
H -0.9730298774 1.6571636688 -2.2678696825
$end

$rem
JOBTYPE                   OPT
METHOD                    B3LYP
DFT_D                     d3_op
BASIS                     STO-3G
GEOM_OPT_MAX_CYCLES       100
GEOM_OPT_TOL_GRADIENT     300
GEOM_OPT_TOL_DISPLACEMENT 1200
GEOM_OPT_TOL_ENERGY       100
SYMMETRY                  False
THRESH                    12
SCF_CONVERGENCE           8
MAX_SUB_FILE_NUM          128
MEM_STATIC                400
MEM_TOTAL                 4000
$end
--------------------------------------------------------------

   16   -1510.2762728905      6.79E-09 Convergence criterion met
 Total energy in the final basis set = -1510.27627289
   13   -1510.2788673772      3.73E-09 Convergence criterion met
 Total energy in the final basis set = -1510.27886738
   13   -1510.2808427446      3.69E-09 Convergence criterion met
 Total energy in the final basis set = -1510.28084274
   13   -1510.2823713138      4.07E-09 Convergence criterion met
 Total energy in the final basis set = -1510.28237131
   13   -1510.2835983376      3.43E-09 Convergence criterion met
 Total energy in the final basis set = -1510.28359834
   13   -1510.2848435003      4.84E-09 Convergence criterion met
 Total energy in the final basis set = -1510.28484350
   13   -1510.2862559911      7.93E-09 Convergence criterion met
 Total energy in the final basis set = -1510.28625599
   13   -1510.2872409206      8.77E-09 Convergence criterion met
   12   -1510.3063319376      3.83E-09 Convergence criterion met
 Total energy in the final basis set = -1510.30633194
   12   -1510.3063394619      2.81E-09 Convergence criterion met
 Total energy in the final basis set = -1510.30633946
   12   -1510.3063485318      3.15E-09 Convergence criterion met
 Total energy in the final basis set = -1510.30634853
   10   -1510.3063577548      6.82E-09 Convergence criterion met
 Total energy in the final basis set = -1510.30635775
   11   -1510.3063605909      2.49E-09 Convergence criterion met
 Total energy in the final basis set = -1510.30636059
    9   -1510.3063603133      2.63E-09 Convergence criterion met
 Total energy in the final basis set = -1510.30636031

             Standard Nuclear Orientation (Angstroms)
    I     Atom           X                Y                Z
 ----------------------------------------------------------------
    1      O      -1.8743105324     1.6831277268     1.9804954388
    2      C      -2.7322169915     1.1641884412     1.2324844285
    3      C      -3.0075507376    -0.3723634406     1.0332035039
    4      C      -2.5089088474    -0.9555180992    -0.3520651740
    5      C      -1.8580347836     0.1256040861    -1.2786152043
    6      O      -1.7369833635    -0.4261921157    -2.5918041809
    7      C      -1.0244150930     0.5012353679    -3.5069343060
    8      C       0.5151980277     0.1674246174    -3.5705790781
    9      O       1.1692898982     0.5762661722    -2.3095766393
   10      C       1.1218894662    -0.5002081105    -1.3589835779
   11      C       1.3422705058     0.0484367164     0.0967220814
   12      C       2.7094903658    -0.3873454877     0.7532567418
   13      C       3.6777571605    -1.0014057247    -0.3084323964
   14      O       3.4999130643    -1.0211517900    -1.5491837457
   15      O      -3.7383205957     1.8971758323     0.5246904577
   16      O       4.8361009515    -1.5228444431     0.3421263462
   17      O       0.7547845861    -1.6632674571    -1.6665587735
   18      C       5.7730559677    -2.0809475591    -0.6614290445
   19      C       1.4473488117     1.6295016203     0.1835878997
   20      C       1.0903569765     2.0598786495     1.6538723097
   21      C       2.3532721237     1.5328747429     2.4301360228
   22      C       3.2594331447     1.0232226252     1.2359642304
   23      O       2.9045910618     1.9028089228     0.1003740587
   24      H       0.4844562014    -0.3397268716     0.6992760693
   25      H       2.5784838039    -1.0957809615     1.5905229270
   26      H       0.8986074681     2.1586313161    -0.6177676147
   27      H       1.0237731562     3.1580132091     1.7137103009
   28      H       0.1266783074     1.6351250914     1.9904649823
   29      H       2.8592566276     2.3397686223     2.9838269254
   30      H       2.1148229758     0.7197326958     3.1347012197
   31      H       4.3505950942     1.0436542105     1.4248952731
   32      O      -1.4931401038     1.2787354973    -0.9517551594
   33      C      -3.4693166511     3.3483163559     0.6362058763
   34      C      -2.1447794678    -1.2244000425     2.0504918245
   35      C      -2.7128669647    -2.6947185469     2.0999902806
   36      C      -2.2057351141    -3.2690190654     0.7220533301
   37      C      -1.4337957215    -2.0285655540     0.1336484456
   38      O      -0.8539881358    -1.3913784770     1.3410134636
   39      H      -4.0911083968    -0.5464539623     1.1601364991
   40      H      -3.3265707837    -1.4434081411    -0.9118264447
   41      H      -2.5006034107     3.6104478518     0.1636248559
   42      H      -1.9856331224    -0.7330589388     3.0298548824
   43      H      -2.2794921777    -3.2451267124     2.9502154944
   44      H      -3.8108193112    -2.7126467153     2.1905959403
   45      H      -1.5167642954    -4.1161015980     0.8679584599
   46      H      -3.0304821145    -3.5938344492     0.0680141764
   47      H      -0.6171660842    -2.2174431180    -0.6066689803
   48      H      -3.4495099685     3.6812669784     1.6940360458
   49      H      -4.2934727584     3.8555681614     0.1017449597
   50      H       6.6363398399    -2.4684728943    -0.0898965879
   51      H       6.1172146705    -1.3041818144    -1.3745628166
   52      H       5.3070799922    -2.9065142448    -1.2372571591
   53      H       0.6560302516    -0.9206342878    -3.7452901062
   54      H       0.9858461450     0.7534511933    -4.3858337432
   55      H      -1.1629629719     1.5491469913    -3.1648149385
   56      H      -1.4798634728     0.3630162937    -4.5090157511
 ----------------------------------------------------------------

    9   -1510.3063596284      4.54E-09 Convergence criterion met
 Total energy in the final basis set = -1510.30635963
 Final energy is   -1510.30635962838
 **  OPTIMIZATION CONVERGED  **

                    Orbital Energies (a.u.)
 --------------------------------------------------------------

 Alpha MOs
 -- Occupied --
-18.940 -18.936 -18.927 -18.921 -18.896 -18.885 -18.877 -18.868
-18.866 -18.856 -10.107 -10.097 -10.096 -10.089 -10.073 -10.066
-10.063 -10.062 -10.058 -10.047 -10.045 -10.039 -10.036 -10.033
-10.025 -10.021 -10.018 -10.005 -10.002  -9.988  -1.021  -1.011
 -1.005  -0.997  -0.975  -0.951  -0.944  -0.935  -0.931  -0.923
 -0.764  -0.745  -0.725  -0.714  -0.703  -0.700  -0.684  -0.658
 -0.658  -0.614  -0.590  -0.572  -0.545  -0.538  -0.529  -0.517
 -0.511  -0.500  -0.484  -0.470  -0.462  -0.454  -0.449  -0.438
 -0.430  -0.426  -0.417  -0.414  -0.408  -0.406  -0.402  -0.395
 -0.391  -0.378  -0.368  -0.366  -0.358  -0.355  -0.351  -0.345
 -0.343  -0.340  -0.332  -0.328  -0.324  -0.316  -0.313  -0.306
 -0.305  -0.302  -0.293  -0.287  -0.283  -0.277  -0.273  -0.271
 -0.260  -0.254  -0.250  -0.247  -0.234  -0.233  -0.213  -0.191
 -0.177  -0.170  -0.164  -0.154  -0.152  -0.150  -0.148  -0.140
 -0.126

          Ground-State Mulliken Net Atomic Charges

     Atom                 Charge (a.u.)
  ----------------------------------------
      1 O                    -0.218846
      2 C                     0.219153
      3 C                    -0.082166
      4 C                    -0.080090
      5 C                     0.211808
      6 O                    -0.168871
      7 C                    -0.053759
      8 C                    -0.052016
      9 O                    -0.169216
     10 C                     0.216811
     11 C                    -0.099256
     12 C                    -0.078353
     13 C                     0.214647
     14 O                    -0.207086
     15 O                    -0.173092
     16 O                    -0.167886
     17 O                    -0.234481
     18 C                    -0.128061
     19 C                     0.022046
     20 C                    -0.151817
     21 C                    -0.144723
     22 C                     0.024150
     23 O                    -0.196194
     24 H                     0.112546
     25 H                     0.086700
     26 H                     0.091221
     27 H                     0.070118
     28 H                     0.095516
     29 H                     0.072667
     30 H                     0.071287
     31 H                     0.079236
     32 O                    -0.211503
     33 C                    -0.128201
     34 C                     0.026004
     35 C                    -0.143779
     36 C                    -0.143942
     37 C                     0.010128
     38 O                    -0.192981
     39 H                     0.085364
     40 H                     0.088098
     41 H                     0.093710
     42 H                     0.088351
     43 H                     0.078199
     44 H                     0.073684
     45 H                     0.079467
     46 H                     0.074274
     47 H                     0.114518
     48 H                     0.087964
     49 H                     0.087663
     50 H                     0.090903
     51 H                     0.090743
     52 H                     0.090341
     53 H                     0.102018
     54 H                     0.089822
     55 H                     0.098030
     56 H                     0.089135
  ----------------------------------------
  Sum of atomic charges =    -0.000000

                    Cartesian Multipole Moments
 -----------------------------------------------------------------
    Charge (ESU x 10^10)
                -0.0000
    Dipole Moment (Debye)
         X      -1.9207      Y      -1.1748      Z      -0.1757
       Tot       2.2583
    Quadrupole Moments (Debye-Ang)
        XX    -146.6986     XY      -5.2679     YY    -157.3677
        XZ       0.4555     YZ      -3.8237     ZZ    -152.7856

 Total job time:  151.57s(wall), 7215.43s(cpu)
        *  Thank you very much for using Q-Chem.  Have a nice day.  *
