 Q-Chem 5.0, Q-Chem, Inc., Pleasanton, CA (2017)
 Q-Chem 5.0.1 for Intel X86 EM64T Linux

User input:
--------------------------------------------------------------
$molecule
0  1
O -3.94934 -3.66094 2.70899
C -3.26408 -4.56952 2.26188
C -3.36658 -6.02376 2.66595
C -2.05169 -6.76899 2.94801
C -0.79246 -5.93112 2.96769
O 0.0902 -6.44133 3.87656
C 1.32919 -5.72568 3.92128
C 2.40896 -6.58429 4.57168
O 2.7567 -6.04346 5.85599
C 2.04682 -6.52875 6.90466
C 2.48483 -5.95097 8.22941
C 3.60738 -6.72634 8.93436
C 4.35947 -7.725 8.07777
O 4.49712 -7.65666 6.86494
O -2.5871 -4.32679 1.10836
O 4.7966 -8.8399 8.71987
O 1.02033 -7.18558 6.78228
C 5.45838 -9.88191 8.10469
C 3.10532 -4.54197 8.1412
C 3.01201 -3.84556 9.49852
C 4.04359 -4.62554 10.28583
C 4.57938 -5.5556 9.19232
O 4.48259 -4.78623 8.0178
H 1.57269 -5.89773 8.86638
H 3.30961 -7.21553 9.88865
H 2.64277 -3.90842 7.35285
H 3.38153 -2.80365 9.36423
H 1.9942 -3.82002 9.94385
H 4.84025 -3.92088 10.61332
H 3.65128 -5.18864 11.16013
H 5.60145 -5.90821 9.45703
O -0.44399 -5.22389 2.03169
C -2.48537 -3.09042 0.5042
C -4.11888 -6.23004 3.9952
C -4.70943 -7.6366 4.04458
C -3.45497 -8.45926 4.22944
C -2.40518 -7.3475 4.34622
O -3.09874 -6.28971 4.96002
H -3.928 -6.51594 1.83976
H -1.86898 -7.57738 2.20561
H -1.99171 -2.36977 1.1907
H -4.92129 -5.48238 4.17648
H -5.31936 -7.70649 4.97388
H -5.33745 -7.91588 3.17135
H -3.5408 -9.01399 5.19061
H -3.22236 -9.16653 3.40418
H -1.53744 -7.74947 4.91039
H -3.49319 -2.71516 0.22535
H -1.8728 -3.18486 -0.41573
H 5.7004 -10.65636 8.86109
H 6.40441 -9.51816 7.6495
H 4.8144 -10.33563 7.32123
H 2.22882 -7.68293 4.54535
H 3.33688 -6.43904 3.97475
H 1.24231 -4.69939 4.34209
H 1.69666 -5.61989 2.8727
$end

$opt
CONSTRAINT
tors           1           2           3           4    -134.445
tors           3           4           5           6    +146.790
tors           4           5           6           7    +178.039
tors           5           6           7           8    -160.999
tors           6           7           8           9    -110.446
tors           7           8           9          10     +90.952
tors           8           9          10          11    +178.384
tors           9          10          11          12     -89.231
tors          11          12          13          14     +26.863
ENDCONSTRAINT
$end

$rem
JOBTYPE                   OPT
METHOD                    B3LYP
DFT_D                     d3_op
BASIS                     STO-3G
GEOM_OPT_MAX_CYCLES       100
GEOM_OPT_TOL_GRADIENT     300
GEOM_OPT_TOL_DISPLACEMENT 1200
GEOM_OPT_TOL_ENERGY       100
SYMMETRY                  False
THRESH                    12
SCF_CONVERGENCE           8
MAX_SUB_FILE_NUM          128
MEM_STATIC                400
MEM_TOTAL                 4000
$end
--------------------------------------------------------------

   16   -1510.1333860845      2.18E-09 Convergence criterion met
 Total energy in the final basis set = -1510.13338608
   13   -1510.2042649493      8.74E-09 Convergence criterion met
 Total energy in the final basis set = -1510.20426495
   13   -1510.2425606675      8.29E-09 Convergence criterion met
 Total energy in the final basis set = -1510.24256067
   14   -1510.2603234258      5.40E-09 Convergence criterion met
 Total energy in the final basis set = -1510.26032343
   14   -1510.2675458465      3.43E-09 Convergence criterion met
 Total energy in the final basis set = -1510.26754585
   14   -1510.2710772121      3.92E-09 Convergence criterion met
 Total energy in the final basis set = -1510.27107721
   13   -1510.2732375204      3.10E-09 Convergence criterion met
 Total energy in the final basis set = -1510.27323752
   12   -1510.2742731871      9.37E-09 Convergence criterion met
   11   -1510.2762463725      6.24E-09 Convergence criterion met
 Total energy in the final basis set = -1510.27624637
   11   -1510.2762673975      3.34E-09 Convergence criterion met
 Total energy in the final basis set = -1510.27626740
    9   -1510.2762767053      8.17E-09 Convergence criterion met
 Total energy in the final basis set = -1510.27627671
    9   -1510.2762805752      6.67E-09 Convergence criterion met
 Total energy in the final basis set = -1510.27628058
    9   -1510.2762822066      9.83E-09 Convergence criterion met
 Total energy in the final basis set = -1510.27628221
    9   -1510.2762834814      4.84E-09 Convergence criterion met
 Total energy in the final basis set = -1510.27628348

             Standard Nuclear Orientation (Angstroms)
    I     Atom           X                Y                Z
 ----------------------------------------------------------------
    1      O      -5.8727849678     1.7136997908     0.7595590707
    2      C      -5.4708462552     0.8823925856    -0.0828348305
    3      C      -4.8887924093    -0.5491672243     0.1945991457
    4      C      -3.5765131995    -0.9339184185    -0.5992577416
    5      C      -2.7337817928     0.3365549348    -1.0179817065
    6      O      -1.3496435337    -0.0157222288    -0.9891072116
    7      C      -0.4995210334     1.1203873243    -1.4181271997
    8      C       0.8973996549     0.5159281944    -1.8248287371
    9      O       1.9516926352     0.8956382834    -0.8601904658
   10      C       2.0517044915    -0.0929815713     0.1747955869
   11      C       3.2060771692     0.3096379376     1.1657980620
   12      C       4.6266934281    -0.2598790064     0.7477888299
   13      C       4.5842305738    -1.2011802453    -0.4990919849
   14      O       3.7520953832    -1.1976379218    -1.4335372186
   15      O      -5.7364604098     0.9723794238    -1.4902931125
   16      O       5.7092660027    -2.0831465257    -0.4349712627
   17      O       1.2986026965    -1.0859454533     0.2768775446
   18      C       5.7301759967    -2.9640081903    -1.6265536029
   19      C       3.4988570782     1.8684214246     1.1388061620
   20      C       4.4224902984     2.2318162535     2.3692651824
   21      C       5.8203617645     1.7072356433     1.8718904156
   22      C       5.4273433367     1.0912409883     0.4722635856
   23      O       4.3945243604     2.0202687744    -0.0326523133
   24      H       2.9223672219    -0.0464609658     2.1721666647
   25      H       5.0940920127    -0.8184642022     1.5779294173
   26      H       2.5982662359     2.5005869660     1.0210303134
   27      H       4.4341061559     3.3204633181     2.5361878814
   28      H       4.0885225242     1.7362229645     3.2946698964
   29      H       6.5367930182     2.5332794835     1.7368895049
   30      H       6.2642902838     0.9599630293     2.5487471663
   31      H       6.2579436037     0.9955687907    -0.2539382519
   32      O      -3.1439581867     1.4894265083    -1.2756974063
   33      C      -6.2936488765     2.3031963009    -1.8150045205
   34      C      -4.4561727417    -0.8449930743     1.6910977320
   35      C      -4.6735975461    -2.3882028781     1.9302280042
   36      C      -3.5406311419    -2.9826030664     1.0110679728
   37      C      -2.7786231321    -1.6735303406     0.5584108732
   38      O      -2.9787804146    -0.7257153198     1.6845841036
   39      H      -5.6937617492    -1.2487182997    -0.1012731504
   40      H      -3.7812800107    -1.5636594059    -1.4840918794
   41      H      -5.5375196110     3.1000205936    -1.6606806823
   42      H      -4.9044980527    -0.1632006535     2.4400233638
   43      H      -4.5036245852    -2.6409839945     2.9892500168
   44      H      -5.6826261261    -2.7242038233     1.6419036714
   45      H      -2.8659311254    -3.6469988849     1.5734858527
   46      H      -3.9437772819    -3.5398270002     0.1498865818
   47      H      -1.6992627328    -1.7956881497     0.3449587202
   48      H      -7.1867084354     2.5363395970    -1.1995677651
   49      H      -6.5759044849     2.2663397269    -2.8832871415
   50      H       6.6071931816    -3.6252796475    -1.5016745093
   51      H       5.8355890910    -2.3799964719    -2.5637103776
   52      H       4.8083652438    -3.5768244256    -1.6961389161
   53      H       0.8026069007    -0.5893570051    -1.8859425112
   54      H       1.2223059897     0.9230464373    -2.8030973927
   55      H      -0.3703065568     1.8462005032    -0.5845418225
   56      H      -0.9730298774     1.6571636688    -2.2678696825
 ----------------------------------------------------------------

    9   -1510.2762842059      3.82E-09 Convergence criterion met
 Total energy in the final basis set = -1510.27628421
 Final energy is   -1510.27628420585
 **  OPTIMIZATION CONVERGED  **

                    Orbital Energies (a.u.)
 --------------------------------------------------------------

 Alpha MOs
 -- Occupied --
-18.939 -18.931 -18.924 -18.919 -18.889 -18.880 -18.877 -18.873
-18.864 -18.863 -10.103 -10.096 -10.092 -10.090 -10.068 -10.068
-10.065 -10.062 -10.059 -10.052 -10.051 -10.049 -10.039 -10.035
-10.034 -10.028 -10.021 -10.019 -10.014 -10.013  -1.016  -1.011
 -1.001  -0.997  -0.970  -0.962  -0.940  -0.935  -0.927  -0.923
 -0.763  -0.756  -0.725  -0.719  -0.711  -0.702  -0.688  -0.666
 -0.651  -0.611  -0.594  -0.575  -0.546  -0.538  -0.537  -0.530
 -0.512  -0.506  -0.486  -0.475  -0.460  -0.451  -0.449  -0.441
 -0.433  -0.425  -0.420  -0.414  -0.410  -0.405  -0.399  -0.398
 -0.392  -0.377  -0.372  -0.363  -0.361  -0.352  -0.348  -0.344
 -0.339  -0.338  -0.332  -0.330  -0.326  -0.321  -0.318  -0.311
 -0.305  -0.304  -0.302  -0.299  -0.294  -0.279  -0.277  -0.272
 -0.265  -0.258  -0.249  -0.242  -0.241  -0.234  -0.226  -0.182
 -0.174  -0.168  -0.166  -0.156  -0.148  -0.145  -0.143  -0.141
 -0.137

          Ground-State Mulliken Net Atomic Charges

     Atom                 Charge (a.u.)
  ----------------------------------------
      1 O                    -0.216757
      2 C                     0.214050
      3 C                    -0.081381
      4 C                    -0.074972
      5 C                     0.212788
      6 O                    -0.170267
      7 C                    -0.049660
      8 C                    -0.048568
      9 O                    -0.167422
     10 C                     0.213271
     11 C                    -0.079959
     12 C                    -0.079740
     13 C                     0.210004
     14 O                    -0.210164
     15 O                    -0.170975
     16 O                    -0.169275
     17 O                    -0.217079
     18 C                    -0.128671
     19 C                     0.027015
     20 C                    -0.144891
     21 C                    -0.142958
     22 C                     0.026038
     23 O                    -0.185118
     24 H                     0.084841
     25 H                     0.086723
     26 H                     0.086860
     27 H                     0.078118
     28 H                     0.074026
     29 H                     0.078171
     30 H                     0.074171
     31 H                     0.083126
     32 O                    -0.213505
     33 C                    -0.127443
     34 C                     0.021789
     35 C                    -0.141825
     36 C                    -0.146016
     37 C                     0.021090
     38 O                    -0.193423
     39 H                     0.082444
     40 H                     0.085828
     41 H                     0.091138
     42 H                     0.088913
     43 H                     0.076783
     44 H                     0.071839
     45 H                     0.078045
     46 H                     0.071869
     47 H                     0.099570
     48 H                     0.087099
     49 H                     0.086532
     50 H                     0.091278
     51 H                     0.089403
     52 H                     0.091126
     53 H                     0.105181
     54 H                     0.090277
     55 H                     0.089435
     56 H                     0.091227
  ----------------------------------------
  Sum of atomic charges =    -0.000000

                    Cartesian Multipole Moments
 -----------------------------------------------------------------
    Charge (ESU x 10^10)
                -0.0000
    Dipole Moment (Debye)
         X       2.0197      Y      -1.7918      Z      -0.5486
       Tot       2.7551
    Quadrupole Moments (Debye-Ang)
        XX    -144.1950     XY       3.4174     YY    -156.1116
        XZ       8.4827     YZ       1.5054     ZZ    -154.8401

 Total job time:  59.06s(wall), 2810.56s(cpu)
        *  Thank you very much for using Q-Chem.  Have a nice day.  *
