 Q-Chem 5.0, Q-Chem, Inc., Pleasanton, CA (2017)
 Q-Chem 5.0.1 for Intel X86 EM64T Linux

User input:
--------------------------------------------------------------
$molecule
0  1
O -3.94934 -3.66094 2.70899
C -3.26408 -4.56952 2.26188
C -3.36658 -6.02376 2.66595
C -2.28161 -6.56914 3.60896
C -1.31671 -5.55615 4.18421
O -0.84674 -5.99518 5.38912
C 0.08064 -5.08906 5.99588
C 1.14764 -5.86387 6.76225
O 0.70122 -6.11474 8.10413
C -0.06745 -7.22025 8.26585
C -0.37689 -7.51496 9.71431
C 0.73747 -8.24429 10.47889
C 2.09921 -8.25217 9.81383
O 2.33918 -7.84819 8.68521
O -2.30486 -4.27625 1.34369
O 3.11278 -8.79314 10.54042
O -0.5863 -7.83739 7.34521
C 4.41587 -8.89574 10.10061
C -0.58422 -6.27429 10.60243
C -1.42033 -6.6491 11.82491
C -0.42589 -7.48912 12.60138
C 0.81849 -7.33202 11.71958
O 0.68276 -6.04306 11.16789
H -1.30717 -8.12828 9.71735
H 0.48183 -9.29913 10.72218
H -1.04757 -5.42061 10.06106
H -1.60964 -5.70899 12.39119
H -2.39006 -7.14499 11.6045
H -0.26521 -7.01237 13.59387
H -0.70404 -8.55741 12.73172
H 1.73775 -7.50776 12.32038
O -1.11378 -4.43091 3.74531
C -2.05786 -3.01026 0.85519
C -4.64026 -6.28087 3.50062
C -5.03888 -7.75148 3.4101
C -3.95442 -8.38114 4.24936
C -3.21217 -7.12729 4.72619
O -4.2158 -6.1526 4.8301
H -3.45975 -6.60403 1.72063
H -1.67294 -7.39268 3.1757
H -1.76605 -2.33006 1.68377
H -5.50297 -5.64614 3.20016
H -6.01079 -7.86462 3.94228
H -5.13615 -8.15249 2.37829
H -4.43564 -8.89787 5.10991
H -3.28252 -9.08527 3.71263
H -2.69437 -7.3794 5.67432
H -2.96157 -2.61422 0.34453
H -1.22585 -3.05884 0.12319
H 5.03006 -9.37354 10.89114
H 4.82822 -7.88616 9.88814
H 4.46251 -9.52147 9.18375
H 1.54312 -6.75814 6.22967
H 2.00574 -5.1671 6.88323
H -0.42424 -4.32294 6.62363
H 0.67529 -4.56199 5.21175
$end

$opt
CONSTRAINT
tors           1           2           3           4    -103.581
tors           3           4           5           6    +152.459
tors           4           5           6           7    +179.737
tors           5           6           7           8    -145.556
tors           6           7           8           9     -87.834
tors           7           8           9          10     +85.337
tors           8           9          10          11    +173.621
tors           9          10          11          12     -81.114
tors          11          12          13          14      -7.523
ENDCONSTRAINT
$end

$rem
JOBTYPE                   OPT
METHOD                    B3LYP
DFT_D                     d3_op
BASIS                     STO-3G
GEOM_OPT_MAX_CYCLES       100
GEOM_OPT_TOL_GRADIENT     300
GEOM_OPT_TOL_DISPLACEMENT 1200
GEOM_OPT_TOL_ENERGY       100
SYMMETRY                  False
THRESH                    12
SCF_CONVERGENCE           8
MAX_SUB_FILE_NUM          128
MEM_STATIC                400
MEM_TOTAL                 4000
$end
--------------------------------------------------------------

   15   -1510.1522870313      7.37E-09 Convergence criterion met
 Total energy in the final basis set = -1510.15228703
   13   -1510.2221017658      8.90E-09 Convergence criterion met
 Total energy in the final basis set = -1510.22210177
   14   -1510.2592151867      5.98E-09 Convergence criterion met
 Total energy in the final basis set = -1510.25921519
   14   -1510.2753546507      5.11E-09 Convergence criterion met
 Total energy in the final basis set = -1510.27535465
   14   -1510.2810509097      3.80E-09 Convergence criterion met
 Total energy in the final basis set = -1510.28105091
   13   -1510.2832240444      2.90E-09 Convergence criterion met
 Total energy in the final basis set = -1510.28322404
   12   -1510.2840215147      7.32E-09 Convergence criterion met
 Total energy in the final basis set = -1510.28402151
   12   -1510.2843003957      4.91E-09 Convergence criterion met
   11   -1510.2846835204      6.21E-09 Convergence criterion met
 Total energy in the final basis set = -1510.28468352
   11   -1510.2847098250      4.25E-09 Convergence criterion met
 Total energy in the final basis set = -1510.28470983
   11   -1510.2847313822      4.02E-09 Convergence criterion met
 Total energy in the final basis set = -1510.28473138
    9   -1510.2847443523      9.72E-09 Convergence criterion met
 Total energy in the final basis set = -1510.28474435
    9   -1510.2847528154      4.85E-09 Convergence criterion met
 Total energy in the final basis set = -1510.28475282
    9   -1510.2847551438      7.66E-09 Convergence criterion met
 Total energy in the final basis set = -1510.28475514

             Standard Nuclear Orientation (Angstroms)
    I     Atom           X                Y                Z
 ----------------------------------------------------------------
    1      O      -5.5839382594     0.1604289447     1.6501301131
    2      C      -5.3712798184     0.5241006724     0.4739234586
    3      C      -4.7468739425    -0.3202814352    -0.6952460086
    4      C      -3.2380392493     0.0298897874    -1.0253074629
    5      C      -2.5805936983     0.9203516479     0.0915262289
    6      O      -1.1785784607     0.6713247124     0.0984240165
    7      C      -0.4872926358     1.4842546437     1.1268298758
    8      C       0.9311615187     1.8750778057     0.5749372280
    9      O       1.9555689849     0.8515500307     0.8793135195
   10      C       1.9475179805    -0.1774582343    -0.1235058564
   11      C       3.1510291911    -1.1550352502     0.1407831523
   12      C       4.5467316021    -0.6372757184    -0.4029911128
   13      C       4.4685184098     0.7670512085    -1.0929365347
   14      O       3.4418309599     1.4288315242    -1.3645578489
   15      O      -5.8091038530     1.7734153121    -0.0818156005
   16      O       5.7966442321     1.1944047912    -1.4020731758
   17      O       1.0803220160    -0.2973551442    -1.0150941953
   18      C       5.7608129890     2.5165401381    -2.0701728792
   19      C       3.4823384917    -1.3223578031     1.6852566339
   20      C       4.3825706117    -2.6090022361     1.8645842708
   21      C       5.7683019087    -2.0895851232     1.3292957093
   22      C       5.4035622491    -0.6042394411     0.9364443411
   23      O       4.4153213267    -0.2052251805     1.9627891683
   24      H       2.8926095354    -2.1220125646    -0.3254072270
   25      H       4.9814305870    -1.3465815159    -1.1313503217
   26      H       2.6013715478    -1.2663493592     2.3527643503
   27      H       4.4404498216    -2.8931296512     2.9273202429
   28      H       3.9980202772    -3.4666416362     1.2899459326
   29      H       6.5366485536    -2.0994277603     2.1189176701
   30      H       6.1387875802    -2.6695673286     0.4689898009
   31      H       6.2540289164     0.1045263349     0.9107194676
   32      O      -3.1627586475     1.7102209142     0.8698026901
   33      C      -6.3456641914     2.6365201976     0.9927081689
   34      C      -4.6297526951    -1.8684321593    -0.3613205628
   35      C      -4.5747784450    -2.6480955116    -1.7309629391
   36      C      -3.1353701533    -2.2548772269    -2.2350646226
   37      C      -2.5921486282    -1.4175123629    -1.0093548304
   38      O      -3.2546006450    -2.0292459577     0.1677374731
   39      H      -5.3734677991    -0.1562747081    -1.5901370890
   40      H      -3.1315883162     0.5378166610    -2.0015501336
   41      H      -5.5496857666     2.9185176126     1.7121210367
   42      H      -5.3713748010    -2.2334707952     0.3755937860
   43      H      -4.6571658566    -3.7331734303    -1.5579876660
   44      H      -5.3722525683    -2.3384417764    -2.4252372717
   45      H      -2.5065727339    -3.1428962932    -2.4063071220
   46      H      -3.1592560464    -1.6572329471    -3.1604872909
   47      H      -1.4914543047    -1.4060191153    -0.8853009342
   48      H      -7.1654341338     2.1376982922     1.5493151930
   49      H      -6.7332478334     3.5444356429     0.4949167568
   50      H       6.8129589553     2.7757214677    -2.2888946334
   51      H       5.3149505686     3.2920991762    -1.4145074980
   52      H       5.1819624958     2.4788873495    -3.0155032004
   53      H       0.8630527127     2.0585669638    -0.5185249392
   54      H       1.2776888751     2.7959422226     1.0870045457
   55      H      -0.3797693859     0.8927301434     2.0628086217
   56      H      -1.0935400621     2.3884135437     1.3535156817
 ----------------------------------------------------------------

    9   -1510.2847555710      5.12E-09 Convergence criterion met
 Total energy in the final basis set = -1510.28475557
 Final energy is   -1510.28475557097
 **  OPTIMIZATION CONVERGED  **

                    Orbital Energies (a.u.)
 --------------------------------------------------------------

 Alpha MOs
 -- Occupied --
-18.943 -18.934 -18.921 -18.915 -18.888 -18.886 -18.877 -18.876
-18.863 -18.856 -10.107 -10.098 -10.092 -10.085 -10.071 -10.068
-10.067 -10.061 -10.059 -10.050 -10.049 -10.048 -10.041 -10.034
-10.032 -10.026 -10.021 -10.019 -10.013 -10.012  -1.020  -1.013
 -0.999  -0.992  -0.970  -0.961  -0.944  -0.936  -0.926  -0.919
 -0.763  -0.755  -0.725  -0.719  -0.711  -0.702  -0.689  -0.667
 -0.649  -0.611  -0.594  -0.575  -0.546  -0.537  -0.536  -0.529
 -0.513  -0.505  -0.484  -0.477  -0.464  -0.450  -0.447  -0.444
 -0.434  -0.424  -0.417  -0.415  -0.414  -0.406  -0.398  -0.396
 -0.388  -0.380  -0.376  -0.366  -0.358  -0.354  -0.350  -0.340
 -0.338  -0.332  -0.330  -0.327  -0.326  -0.324  -0.317  -0.314
 -0.306  -0.305  -0.300  -0.299  -0.293  -0.281  -0.276  -0.269
 -0.265  -0.261  -0.246  -0.242  -0.238  -0.234  -0.226  -0.186
 -0.176  -0.164  -0.161  -0.160  -0.154  -0.145  -0.139  -0.137
 -0.135

          Ground-State Mulliken Net Atomic Charges

     Atom                 Charge (a.u.)
  ----------------------------------------
      1 O                    -0.218615
      2 C                     0.213774
      3 C                    -0.082373
      4 C                    -0.075505
      5 C                     0.215214
      6 O                    -0.165556
      7 C                    -0.052395
      8 C                    -0.047116
      9 O                    -0.172567
     10 C                     0.214579
     11 C                    -0.081525
     12 C                    -0.078259
     13 C                     0.214291
     14 O                    -0.209347
     15 O                    -0.173921
     16 O                    -0.169482
     17 O                    -0.214081
     18 C                    -0.128070
     19 C                     0.026556
     20 C                    -0.144265
     21 C                    -0.143705
     22 C                     0.025007
     23 O                    -0.187491
     24 H                     0.083164
     25 H                     0.086438
     26 H                     0.086220
     27 H                     0.078080
     28 H                     0.073839
     29 H                     0.078157
     30 H                     0.073459
     31 H                     0.087120
     32 O                    -0.213765
     33 C                    -0.128089
     34 C                     0.023573
     35 C                    -0.143212
     36 C                    -0.144750
     37 C                     0.021964
     38 O                    -0.192948
     39 H                     0.082714
     40 H                     0.086679
     41 H                     0.091524
     42 H                     0.086733
     43 H                     0.076258
     44 H                     0.071978
     45 H                     0.077107
     46 H                     0.072757
     47 H                     0.098609
     48 H                     0.086170
     49 H                     0.085233
     50 H                     0.092163
     51 H                     0.090978
     52 H                     0.090650
     53 H                     0.101518
     54 H                     0.089111
     55 H                     0.088954
     56 H                     0.096462
  ----------------------------------------
  Sum of atomic charges =    -0.000000

                    Cartesian Multipole Moments
 -----------------------------------------------------------------
    Charge (ESU x 10^10)
                 0.0000
    Dipole Moment (Debye)
         X       2.8862      Y       0.2117      Z      -2.2211
       Tot       3.6480
    Quadrupole Moments (Debye-Ang)
        XX    -146.5286     XY      -2.3697     YY    -149.6786
        XZ       3.5342     YZ       0.3367     ZZ    -160.7054

 Total job time:  49.29s(wall), 2340.95s(cpu)
        *  Thank you very much for using Q-Chem.  Have a nice day.  *
