 Q-Chem 5.0, Q-Chem, Inc., Pleasanton, CA (2017)
 Q-Chem 5.0.1 for Intel X86 EM64T Linux

User input:
--------------------------------------------------------------
$molecule
0  1
O -5.5839382594 0.1604289447 1.6501301131
C -5.3712798184 0.5241006724 0.4739234586
C -4.7468739425 -0.3202814352 -0.6952460086
C -3.2380392493 0.0298897874 -1.0253074629
C -2.5805936983 0.9203516479 0.0915262289
O -1.1785784607 0.6713247124 0.0984240165
C -0.4872926358 1.4842546437 1.1268298758
C 0.9311615187 1.8750778057 0.574937228
O 1.9555689849 0.8515500307 0.8793135195
C 1.9475179805 -0.1774582343 -0.1235058564
C 3.1510291911 -1.1550352502 0.1407831523
C 4.5467316021 -0.6372757184 -0.4029911128
C 4.4685184098 0.7670512085 -1.0929365347
O 3.4418309599 1.4288315242 -1.3645578489
O -5.809103853 1.7734153121 -0.0818156005
O 5.7966442321 1.1944047912 -1.4020731758
O 1.080322016 -0.2973551442 -1.0150941953
C 5.760812989 2.5165401381 -2.0701728792
C 3.4823384917 -1.3223578031 1.6852566339
C 4.3825706117 -2.6090022361 1.8645842708
C 5.7683019087 -2.0895851232 1.3292957093
C 5.4035622491 -0.6042394411 0.9364443411
O 4.4153213267 -0.2052251805 1.9627891683
H 2.8926095354 -2.1220125646 -0.325407227
H 4.981430587 -1.3465815159 -1.1313503217
H 2.6013715478 -1.2663493592 2.3527643503
H 4.4404498216 -2.8931296512 2.9273202429
H 3.9980202772 -3.4666416362 1.2899459326
H 6.5366485536 -2.0994277603 2.1189176701
H 6.1387875802 -2.6695673286 0.4689898009
H 6.2540289164 0.1045263349 0.9107194676
O -3.1627586475 1.7102209142 0.8698026901
C -6.3456641914 2.6365201976 0.9927081689
C -4.6297526951 -1.8684321593 -0.3613205628
C -4.574778445 -2.6480955116 -1.7309629391
C -3.1353701533 -2.2548772269 -2.2350646226
C -2.5921486282 -1.4175123629 -1.0093548304
O -3.254600645 -2.0292459577 0.1677374731
H -5.3734677991 -0.1562747081 -1.590137089
H -3.1315883162 0.537816661 -2.0015501336
H -5.5496857666 2.9185176126 1.7121210367
H -5.371374801 -2.2334707952 0.375593786
H -4.6571658566 -3.7331734303 -1.557987666
H -5.3722525683 -2.3384417764 -2.4252372717
H -2.5065727339 -3.1428962932 -2.406307122
H -3.1592560464 -1.6572329471 -3.1604872909
H -1.4914543047 -1.4060191153 -0.8853009342
H -7.1654341338 2.1376982922 1.549315193
H -6.7332478334 3.5444356429 0.4949167568
H 6.8129589553 2.7757214677 -2.2888946334
H 5.3149505686 3.2920991762 -1.414507498
H 5.1819624958 2.4788873495 -3.0155032004
H 0.8630527127 2.0585669638 -0.5185249392
H 1.2776888751 2.7959422226 1.0870045457
H -0.3797693859 0.8927301434 2.0628086217
H -1.0935400621 2.3884135437 1.3535156817
$end

$rem
JOBTYPE                   OPT
METHOD                    B3LYP
DFT_D                     d3_op
BASIS                     STO-3G
GEOM_OPT_MAX_CYCLES       100
GEOM_OPT_TOL_GRADIENT     300
GEOM_OPT_TOL_DISPLACEMENT 1200
GEOM_OPT_TOL_ENERGY       100
SYMMETRY                  False
THRESH                    12
SCF_CONVERGENCE           8
MAX_SUB_FILE_NUM          128
MEM_STATIC                400
MEM_TOTAL                 4000
$end
--------------------------------------------------------------

   16   -1510.2847850483      4.34E-09 Convergence criterion met
 Total energy in the final basis set = -1510.28478505
   13   -1510.2853877312      8.02E-09 Convergence criterion met
 Total energy in the final basis set = -1510.28538773
   14   -1510.2857744854      1.91E-09 Convergence criterion met
 Total energy in the final basis set = -1510.28577449
   13   -1510.2863136477      8.78E-09 Convergence criterion met
 Total energy in the final basis set = -1510.28631365
   14   -1510.2867183206      1.63E-09 Convergence criterion met
 Total energy in the final basis set = -1510.28671832
   13   -1510.2871619627      6.93E-09 Convergence criterion met
 Total energy in the final basis set = -1510.28716196
   13   -1510.2875576932      8.70E-09 Convergence criterion met
 Total energy in the final basis set = -1510.28755769
   14   -1510.2878059991      1.27E-09 Convergence criterion met
   12   -1510.2912835810      2.51E-09 Convergence criterion met
 Total energy in the final basis set = -1510.29128358
   11   -1510.2912829533      7.36E-09 Convergence criterion met
 Total energy in the final basis set = -1510.29128295
   10   -1510.2912901112      8.07E-09 Convergence criterion met
 Total energy in the final basis set = -1510.29129011
   10   -1510.2912953054      9.88E-09 Convergence criterion met
 Total energy in the final basis set = -1510.29129531
   11   -1510.2912991207      5.02E-09 Convergence criterion met
 Total energy in the final basis set = -1510.29129912
   12   -1510.2913159655      3.51E-09 Convergence criterion met
 Total energy in the final basis set = -1510.29131597

             Standard Nuclear Orientation (Angstroms)
    I     Atom           X                Y                Z
 ----------------------------------------------------------------
    1      O      -5.1400428456     0.5889373240     0.5034828359
    2      C      -4.2638780254     0.4391929370    -0.3745373569
    3      C      -3.3487774215    -0.8198556635    -0.6058172432
    4      C      -1.9358276517    -0.7393003899     0.1029661729
    5      C      -1.7228499407     0.5817461656     0.9157770390
    6      O      -0.5423682621     0.4322233106     1.7148585529
    7      C      -0.1838861533     1.7118538734     2.3778978232
    8      C       0.6825569921     2.5845016575     1.3901108246
    9      O       1.6750707589     1.6899969431     0.7561579993
   10      C       1.1443494136     1.1963618777    -0.4894082889
   11      C       1.8495949756    -0.1591004807    -0.8472268585
   12      C       3.3922811648    -0.0818843861    -1.1738813733
   13      C       3.9148930670     1.3944128873    -1.2170824375
   14      O       3.2154345889     2.4228468032    -1.3598828888
   15      O      -4.0119448627     1.3618943637    -1.4431083551
   16      O       5.3380281248     1.3991366823    -1.1034686790
   17      O       0.1643252862     1.6957039428    -1.0857196900
   18      C       5.8441414898     2.7907877079    -1.1630464113
   19      C       1.8615948800    -1.0908572002     0.4428426661
   20      C       2.1707892740    -2.5706720873    -0.0106483746
   21      C       3.7139991955    -2.4784865524    -0.3138299262
   22      C       3.9985768036    -0.9571175178     0.0061635630
   23      O       3.0973875941    -0.6747006630     1.1446362016
   24      H       1.2861105879    -0.6103347249    -1.6826096637
   25      H       3.6120132985    -0.5440626786    -2.1544253102
   26      H       0.9768658807    -0.9382131615     1.0961264522
   27      H       1.9593227166    -3.2797023550     0.8055166051
   28      H       1.5821437658    -2.8649055667    -0.8943146930
   29      H       4.2964182245    -3.1259866207     0.3610025025
   30      H       3.9604749629    -2.7407897397    -1.3551403905
   31      H       5.0472282814    -0.7090174281     0.2604119368
   32      O      -2.4335305168     1.6099826359     0.9035020791
   33      C      -4.7947940461     2.5986138251    -1.2300099083
   34      C      -3.9511778346    -2.1157393115     0.0844418489
   35      C      -3.2449952477    -3.3851851344    -0.5365288279
   36      C      -1.8256392958    -3.3042992500     0.1397039930
   37      C      -1.9914658140    -2.0190268651     1.0429988293
   38      O      -3.4094361273    -2.0622204091     1.4629509336
   39      H      -3.2249671082    -0.9540328716    -1.6948252236
   40      H      -1.1144714301    -0.8160824468    -0.6324169936
   41      H      -4.4680142877     3.1231312080    -0.3089096566
   42      H      -5.0575258683    -2.1472566887     0.1087466828
   43      H      -3.7778826577    -4.3039359623    -0.2443746906
   44      H      -3.1967832630    -3.3380746959    -1.6361250993
   45      H      -1.6220524574    -4.1896576772     0.7628467241
   46      H      -1.0090832083    -3.1915724903    -0.5910588571
   47      H      -1.3213950726    -1.9656133454     1.9229323879
   48      H      -5.8812440344     2.3883497974    -1.1517591070
   49      H      -4.6021146349     3.2398009103    -2.1098135143
   50      H       6.9393821243     2.7228972968    -1.0293637231
   51      H       5.4071948018     3.4164808024    -0.3584790519
   52      H       5.6173341229     3.2641816386    -2.1401989132
   53      H       0.0323197581     3.0377348992     0.6115913524
   54      H       1.2297418689     3.3724845375     1.9449653897
   55      H       0.4107152093     1.4289753387     3.2688525202
   56      H      -1.0975279202     2.2648476294     2.6834842081
 ----------------------------------------------------------------

   10   -1510.2913164024      8.95E-09 Convergence criterion met
 Total energy in the final basis set = -1510.29131640
 Final energy is   -1510.29131640244
 **  OPTIMIZATION CONVERGED  **

                    Orbital Energies (a.u.)
 --------------------------------------------------------------

 Alpha MOs
 -- Occupied --
-18.943 -18.941 -18.920 -18.916 -18.889 -18.887 -18.886 -18.883
-18.866 -18.855 -10.108 -10.105 -10.094 -10.085 -10.074 -10.069
-10.065 -10.060 -10.060 -10.056 -10.054 -10.049 -10.040 -10.039
-10.034 -10.030 -10.021 -10.021 -10.020 -10.019  -1.023  -1.018
 -1.001  -0.993  -0.969  -0.968  -0.946  -0.942  -0.928  -0.919
 -0.764  -0.761  -0.727  -0.722  -0.714  -0.704  -0.694  -0.666
 -0.650  -0.616  -0.598  -0.578  -0.546  -0.543  -0.538  -0.535
 -0.515  -0.506  -0.489  -0.472  -0.464  -0.453  -0.451  -0.443
 -0.435  -0.431  -0.427  -0.417  -0.415  -0.408  -0.404  -0.397
 -0.396  -0.379  -0.376  -0.362  -0.360  -0.355  -0.352  -0.348
 -0.344  -0.337  -0.332  -0.330  -0.327  -0.323  -0.320  -0.316
 -0.312  -0.305  -0.304  -0.299  -0.298  -0.287  -0.276  -0.273
 -0.272  -0.260  -0.255  -0.239  -0.237  -0.233  -0.232  -0.189
 -0.184  -0.164  -0.160  -0.159  -0.157  -0.147  -0.143  -0.142
 -0.136

          Ground-State Mulliken Net Atomic Charges

     Atom                 Charge (a.u.)
  ----------------------------------------
      1 O                    -0.218450
      2 C                     0.214492
      3 C                    -0.080947
      4 C                    -0.078020
      5 C                     0.219555
      6 O                    -0.176557
      7 C                    -0.050967
      8 C                    -0.054917
      9 O                    -0.173167
     10 C                     0.214889
     11 C                    -0.081593
     12 C                    -0.078426
     13 C                     0.214929
     14 O                    -0.206927
     15 O                    -0.171257
     16 O                    -0.168604
     17 O                    -0.219233
     18 C                    -0.127736
     19 C                     0.018765
     20 C                    -0.145348
     21 C                    -0.143576
     22 C                     0.024894
     23 O                    -0.187423
     24 H                     0.079541
     25 H                     0.085152
     26 H                     0.095018
     27 H                     0.077292
     28 H                     0.069956
     29 H                     0.077884
     30 H                     0.072565
     31 H                     0.088740
     32 O                    -0.201629
     33 C                    -0.127564
     34 C                     0.025251
     35 C                    -0.144112
     36 C                    -0.143860
     37 C                     0.023402
     38 O                    -0.188515
     39 H                     0.084932
     40 H                     0.087511
     41 H                     0.091802
     42 H                     0.087487
     43 H                     0.077808
     44 H                     0.073299
     45 H                     0.077549
     46 H                     0.071031
     47 H                     0.086538
     48 H                     0.085628
     49 H                     0.086881
     50 H                     0.091866
     51 H                     0.092720
     52 H                     0.089858
     53 H                     0.102378
     54 H                     0.088764
     55 H                     0.092646
     56 H                     0.097805
  ----------------------------------------
  Sum of atomic charges =     0.000000

                    Cartesian Multipole Moments
 -----------------------------------------------------------------
    Charge (ESU x 10^10)
                 0.0000
    Dipole Moment (Debye)
         X       3.2711      Y      -1.2267      Z      -1.4527
       Tot       3.7835
    Quadrupole Moments (Debye-Ang)
        XX    -159.6558     XY       3.7030     YY    -150.4160
        XZ       3.3592     YZ       7.1996     ZZ    -159.6624

 Total job time:  86.34s(wall), 4115.51s(cpu)
        *  Thank you very much for using Q-Chem.  Have a nice day.  *
