 Q-Chem 5.0, Q-Chem, Inc., Pleasanton, CA (2017)
 Q-Chem 5.0.1 for Intel X86 EM64T Linux

User input:
--------------------------------------------------------------
$molecule
0  1
O -5.6273152605 1.3397800994 1.0925531322
C -5.4073168076 0.7572139551 0.0093177658
C -4.809334051 -0.6784939556 -0.2080456259
C -3.2909705214 -0.6921011775 -0.6637882897
C -2.6061397804 0.7147310649 -0.4896843105
O -1.2477116817 0.5169523152 -0.112855908
C -0.5372662015 1.8060394802 0.0659346656
C 0.9490106415 1.5945149178 -0.4019148313
O 1.8532036085 1.319580336 0.7376177587
C 2.1122314103 -0.095491551 0.8493587437
C 3.6154387911 -0.3449326127 1.2502908189
C 4.563948601 -0.7563192326 0.0471911598
C 3.9097954755 -0.6405107109 -1.3725962698
O 2.7191306228 -0.3941415669 -1.6658084886
O -5.8129174037 1.25287698 -1.2748869086
O 4.9237405142 -0.8990885421 -2.3466448995
O 1.2444098019 -0.9811567921 0.6920686307
C 4.3532008955 -0.8150810586 -3.7114938896
C 4.3628577799 0.9430202865 1.799484527
C 5.6121895361 0.4633452062 2.6377736001
C 6.5725931277 -0.0262971611 1.4917260639
C 5.7221652956 0.323879841 0.2078913763
O 4.9763614687 1.5429861691 0.5910174666
H 3.6188717505 -1.1522102752 2.0056261996
H 4.9489327445 -1.7856611609 0.1658581325
H 3.7033169926 1.6758774491 2.3015032588
H 6.0482065964 1.3092008434 3.1928993493
H 5.3569871581 -0.3352840799 3.3523369176
H 7.5217911786 0.5324126236 1.4893157939
H 6.7968298245 -1.1030623137 1.5551733131
H 6.3057233401 0.4926588007 -0.7181157542
O -3.1430454869 1.8380097814 -0.6254538407
C -6.3204163137 2.635662511 -1.1410307343
C -4.7382035113 -1.5524959903 1.1150760341
C -4.7040139973 -3.0691136279 0.6801398422
C -3.2548357777 -3.1682373931 0.0733382039
C -2.6871691453 -1.7250814497 0.3773118605
O -3.3685670488 -1.3259474231 1.6327458636
H -5.4314957419 -1.1752271536 -0.9740855291
H -3.1785419431 -1.0233303056 -1.7126829649
H -5.5152364063 3.3257680347 -0.8153995379
H -5.4912558743 -1.2838220046 1.8811153478
H -4.8177288093 -3.7227714506 1.5597076964
H -5.4913242454 -3.3159980768 -0.0499857797
H -2.651734646 -3.936608929 0.5821542892
H -3.2639317123 -3.3849579219 -1.0068536821
H -1.5875032541 -1.6502021706 0.4892287223
H -7.1561825217 2.6975325664 -0.414232673
H -6.6773032169 2.9314570592 -2.1447939689
H 5.187421331 -1.0327356177 -4.4034106206
H 3.9492161362 0.1960032991 -3.9228015406
H 3.5425792357 -1.5572254568 -3.8607124277
H 1.0059146535 0.7833376499 -1.1579379204
H 1.3230962465 2.5390606454 -0.8507379339
H -0.5592326462 2.1019056057 1.1377001469
H -1.0484783027 2.5950336168 -0.5273004699
$end

$rem
JOBTYPE                   OPT
METHOD                    B3LYP
DFT_D                     d3_op
BASIS                     STO-3G
GEOM_OPT_MAX_CYCLES       100
GEOM_OPT_TOL_GRADIENT     300
GEOM_OPT_TOL_DISPLACEMENT 1200
GEOM_OPT_TOL_ENERGY       100
SYMMETRY                  False
THRESH                    12
SCF_CONVERGENCE           8
MAX_SUB_FILE_NUM          128
MEM_STATIC                400
MEM_TOTAL                 4000
$end
--------------------------------------------------------------

   16   -1510.2744767786      3.58E-09 Convergence criterion met
 Total energy in the final basis set = -1510.27447678
   14   -1510.2780525759      2.20E-09 Convergence criterion met
 Total energy in the final basis set = -1510.27805258
   13   -1510.2813647071      7.36E-09 Convergence criterion met
 Total energy in the final basis set = -1510.28136471
   14   -1510.2836417329      2.38E-09 Convergence criterion met
 Total energy in the final basis set = -1510.28364173
   13   -1510.2846968922      7.53E-09 Convergence criterion met
 Total energy in the final basis set = -1510.28469689
   14   -1510.2852635928      5.37E-09 Convergence criterion met
 Total energy in the final basis set = -1510.28526359
   13   -1510.2860820822      8.65E-09 Convergence criterion met
 Total energy in the final basis set = -1510.28608208
   14   -1510.2869727051      1.81E-09 Convergence criterion met
   12   -1510.3054095236      3.34E-09 Convergence criterion met
 Total energy in the final basis set = -1510.30540952
   11   -1510.3054093216      6.57E-09 Convergence criterion met
 Total energy in the final basis set = -1510.30540932
   11   -1510.3054324227      3.57E-09 Convergence criterion met
 Total energy in the final basis set = -1510.30543242
   11   -1510.3054361451      5.08E-09 Convergence criterion met
 Total energy in the final basis set = -1510.30543615
   10   -1510.3054427105      9.28E-09 Convergence criterion met
 Total energy in the final basis set = -1510.30544271
   11   -1510.3054459833      2.17E-09 Convergence criterion met
 Total energy in the final basis set = -1510.30544598

             Standard Nuclear Orientation (Angstroms)
    I     Atom           X                Y                Z
 ----------------------------------------------------------------
    1      O      -1.7239944183     0.2538669551     2.6873400581
    2      C      -2.6407811029     0.3019867259     1.8404902104
    3      C      -3.0580760688    -0.8183161693     0.8159004104
    4      C      -2.6495372854    -0.5178444676    -0.6841670082
    5      C      -1.8935832102     0.8409426711    -0.8574490234
    6      O      -1.8149288635     1.1441210651    -2.2495722419
    7      C      -1.0108922009     2.3705514836    -2.4837158757
    8      C       0.4892109962     2.0094689095    -2.7985937623
    9      O       1.1555047500     1.4887582327    -1.5859206203
   10      C       1.0733431897     0.0548609303    -1.5552009120
   11      C       1.5129090222    -0.4721021139    -0.1416074007
   12      C       3.0654667533    -0.7100897571     0.0218642054
   13      C       3.8580427134    -0.3394637647    -1.2726537474
   14      O       3.3733526120     0.0403028147    -2.3643008819
   15      O      -3.5980907631     1.3670402362     1.7386184772
   16      O       5.2570377925    -0.4930292888    -1.0338682133
   17      O       0.5503142235    -0.6278668707    -2.4704702421
   18      C       6.0206873722    -0.1252670586    -2.2497615838
   19      C       1.2488647039     0.5911589211     1.0063802890
   20      C       1.3036830646    -0.1681404729     2.3888175168
   21      C       2.8524165127    -0.3909607590     2.5574362040
   22      C       3.3968260445     0.2727701056     1.2316289383
   23      O       2.4828824941     1.4126804088     1.0071437747
   24      H       0.9217791239    -1.3892883676     0.0461643342
   25      H       3.2976874982    -1.7574767307     0.2873768186
   26      H       0.3407251150     1.2089543724     0.8402148281
   27      H       0.8901131995     0.4634836762     3.1903495414
   28      H       0.7298861121    -1.1073595062     2.3559645602
   29      H       3.2451951394     0.1392281120     3.4396826400
   30      H       3.1285313718    -1.4548712459     2.6327440981
   31      H       4.4513046265     0.6100120774     1.2633294886
   32      O      -1.4242019244     1.5673117510     0.0515948071
   33      C      -3.2024784918     2.4768619133     2.6332669095
   34      C      -2.2680603840    -2.1668602556     1.0805452096
   35      C      -3.0074767776    -3.3383716303     0.3222205479
   36      C      -2.6017439060    -3.0388856382    -1.1705153001
   37      C      -1.6968888925    -1.7585119939    -0.9957395754
   38      O      -1.0219523004    -1.9936616457     0.3005375470
   39      H      -4.1506623984    -0.9611617351     0.8957677486
   40      H      -3.5238530012    -0.5156039076    -1.3587789474
   41      H      -2.2300690076     2.9114464419     2.3229884033
   42      H      -2.0340681242    -2.3524496245     2.1467989126
   43      H      -2.6243091320    -4.3157253226     0.6566735393
   44      H      -4.0974668652    -3.3142015981     0.4807351666
   45      H      -2.0147627411    -3.8654448383    -1.6017915160
   46      H      -3.4718026481    -2.8487371768    -1.8188770722
   47      H      -0.9331823001    -1.5592933054    -1.7846613431
   48      H      -3.1206240317     2.1448163943     3.6884681624
   49      H      -3.9956381445     3.2419730067     2.5454490309
   50      H       7.0877883047    -0.2445845469    -1.9869480582
   51      H       5.8255180615     0.9242810598    -2.5502792873
   52      H       5.7712204912    -0.7885223736    -3.1030921552
   53      H       0.5285861931     1.2526652055    -3.6109984306
   54      H       1.0313237671     2.9288682124    -3.1000596878
   55      H      -1.0579123485     3.0254947501    -1.5878951265
   56      H      -1.4652044065     2.8808929555    -3.3576818273
 ----------------------------------------------------------------

    9   -1510.3054456331      6.20E-09 Convergence criterion met
 Total energy in the final basis set = -1510.30544563
 Final energy is   -1510.30544563313
 **  OPTIMIZATION CONVERGED  **

                    Orbital Energies (a.u.)
 --------------------------------------------------------------

 Alpha MOs
 -- Occupied --
-18.942 -18.940 -18.921 -18.919 -18.887 -18.885 -18.881 -18.870
-18.861 -18.857 -10.108 -10.101 -10.090 -10.090 -10.072 -10.066
-10.065 -10.056 -10.054 -10.048 -10.046 -10.037 -10.032 -10.032
-10.030 -10.017 -10.015 -10.014 -10.005  -9.996  -1.022  -1.015
 -0.999  -0.996  -0.969  -0.954  -0.944  -0.939  -0.924  -0.924
 -0.760  -0.750  -0.723  -0.712  -0.705  -0.698  -0.687  -0.660
 -0.653  -0.613  -0.589  -0.573  -0.541  -0.535  -0.531  -0.518
 -0.508  -0.503  -0.485  -0.471  -0.457  -0.455  -0.448  -0.436
 -0.429  -0.424  -0.418  -0.414  -0.409  -0.403  -0.401  -0.397
 -0.392  -0.379  -0.370  -0.364  -0.358  -0.353  -0.349  -0.343
 -0.341  -0.337  -0.330  -0.326  -0.323  -0.318  -0.316  -0.305
 -0.300  -0.299  -0.298  -0.289  -0.280  -0.278  -0.275  -0.268
 -0.262  -0.255  -0.251  -0.243  -0.234  -0.230  -0.216  -0.190
 -0.181  -0.165  -0.164  -0.155  -0.154  -0.144  -0.142  -0.141
 -0.128

          Ground-State Mulliken Net Atomic Charges

     Atom                 Charge (a.u.)
  ----------------------------------------
      1 O                    -0.218489
      2 C                     0.214767
      3 C                    -0.081809
      4 C                    -0.079374
      5 C                     0.216415
      6 O                    -0.166788
      7 C                    -0.053480
      8 C                    -0.051847
      9 O                    -0.168204
     10 C                     0.217330
     11 C                    -0.090379
     12 C                    -0.079401
     13 C                     0.214707
     14 O                    -0.207453
     15 O                    -0.176282
     16 O                    -0.167737
     17 O                    -0.230821
     18 C                    -0.127963
     19 C                     0.019065
     20 C                    -0.143200
     21 C                    -0.144657
     22 C                     0.024957
     23 O                    -0.192833
     24 H                     0.103141
     25 H                     0.086072
     26 H                     0.100480
     27 H                     0.081503
     28 H                     0.079596
     29 H                     0.074384
     30 H                     0.070218
     31 H                     0.081754
     32 O                    -0.212410
     33 C                    -0.128769
     34 C                     0.025476
     35 C                    -0.144236
     36 C                    -0.144078
     37 C                     0.011990
     38 O                    -0.197920
     39 H                     0.083974
     40 H                     0.087832
     41 H                     0.091965
     42 H                     0.086417
     43 H                     0.076680
     44 H                     0.072611
     45 H                     0.078303
     46 H                     0.073265
     47 H                     0.108836
     48 H                     0.086591
     49 H                     0.086115
     50 H                     0.091686
     51 H                     0.091448
     52 H                     0.090082
     53 H                     0.102091
     54 H                     0.089265
     55 H                     0.099759
     56 H                     0.089355
  ----------------------------------------
  Sum of atomic charges =    -0.000000

                    Cartesian Multipole Moments
 -----------------------------------------------------------------
    Charge (ESU x 10^10)
                -0.0000
    Dipole Moment (Debye)
         X      -0.6953      Y      -0.3697      Z      -0.8259
       Tot       1.1411
    Quadrupole Moments (Debye-Ang)
        XX    -142.4151     XY      -1.3345     YY    -152.9572
        XZ      -3.9018     YZ      -5.2853     ZZ    -158.7989

 Total job time:  119.35s(wall), 5686.25s(cpu)
        *  Thank you very much for using Q-Chem.  Have a nice day.  *
