 Q-Chem 5.0, Q-Chem, Inc., Pleasanton, CA (2017)
 Q-Chem 5.0.1 for Intel X86 EM64T Linux

User input:
--------------------------------------------------------------
$molecule
0  1
O -3.94934 -3.66094 2.70899
C -3.26408 -4.56952 2.26188
C -3.36658 -6.02376 2.66595
C -2.28161 -6.56914 3.60896
C -1.31671 -5.55615 4.18421
O -0.9755 -5.91167 5.45803
C -0.0584 -4.99917 6.07083
C 0.89732 -5.75251 6.99018
O 0.43134 -5.67896 8.34677
C -0.23331 -6.77274 8.79513
C 0.09013 -7.11011 10.23118
C 1.0977 -8.25416 10.41621
C 1.88935 -8.64322 9.18389
O 1.69732 -8.21699 8.05428
O -2.29464 -4.27274 1.35689
O 2.85798 -9.57904 9.36898
O -0.87474 -7.52141 8.06769
C 3.67161 -10.06429 8.36671
C 0.81313 -5.99265 11.02639
C 0.58053 -6.18861 12.52424
C 1.42756 -7.41577 12.78286
C 2.07537 -7.59502 11.40592
O 2.18106 -6.28778 10.89908
H -0.88507 -7.29171 10.73616
H 0.62679 -9.1818 10.80902
H 0.50205 -4.96535 10.73642
H 1.04941 -5.31985 13.0402
H -0.48159 -6.26923 12.84075
H 2.19096 -7.15977 13.55083
H 0.86669 -8.32537 13.08913
H 3.03112 -8.15546 11.50317
O -0.6731 -4.78471 3.48307
C -2.03747 -3.00399 0.88123
C -4.63018 -6.30341 3.51514
C -5.03572 -7.76769 3.37402
C -3.92423 -8.438 4.14713
C -3.18731 -7.2084 4.69419
O -4.19278 -6.24121 4.84919
H -3.46566 -6.60336 1.72037
H -1.65014 -7.32412 3.09081
H -1.7512 -2.33217 1.71855
H -5.49492 -5.65421 3.2548
H -5.98739 -7.89295 3.93941
H -5.17942 -8.13316 2.33451
H -4.38068 -9.03207 4.97008
H -3.2461 -9.08055 3.54471
H -2.65366 -7.50825 5.62048
H -2.9342 -2.6 0.36448
H -1.19815 -3.05019 0.15745
H 4.3691 -10.81307 8.79485
H 4.26415 -9.23673 7.92118
H 3.05924 -10.55416 7.57969
H 1.07804 -6.74211 6.53613
H 1.87419 -5.2209 7.00356
H -0.5642 -4.14387 6.56894
H 0.63567 -4.56946 5.31283
$end

$opt
CONSTRAINT
tors           1           2           3           4    -103.581
tors           3           4           5           6    +144.950
tors           4           5           6           7    +179.855
tors           5           6           7           8    -145.556
tors           6           7           8           9     -97.271
tors           7           8           9          10     +99.771
tors           8           9          10          11    +141.386
tors           9          10          11          12    -100.689
tors          11          12          13          14      -7.523
ENDCONSTRAINT
$end

$rem
JOBTYPE                   OPT
METHOD                    B3LYP
DFT_D                     d3_op
BASIS                     STO-3G
GEOM_OPT_MAX_CYCLES       100
GEOM_OPT_TOL_GRADIENT     300
GEOM_OPT_TOL_DISPLACEMENT 1200
GEOM_OPT_TOL_ENERGY       100
SYMMETRY                  False
THRESH                    12
SCF_CONVERGENCE           8
MAX_SUB_FILE_NUM          128
MEM_STATIC                400
MEM_TOTAL                 4000
$end
--------------------------------------------------------------

   15   -1510.1375474967      7.49E-09 Convergence criterion met
 Total energy in the final basis set = -1510.13754750
   13   -1510.2078256224      8.76E-09 Convergence criterion met
 Total energy in the final basis set = -1510.20782562
   14   -1510.2453734490      4.60E-09 Convergence criterion met
 Total energy in the final basis set = -1510.24537345
   14   -1510.2618753943      5.47E-09 Convergence criterion met
 Total energy in the final basis set = -1510.26187539
   13   -1510.2690850006      7.25E-09 Convergence criterion met
 Total energy in the final basis set = -1510.26908500
   13   -1510.2721635771      3.20E-09 Convergence criterion met
 Total energy in the final basis set = -1510.27216358
   13   -1510.2737695285      3.32E-09 Convergence criterion met
 Total energy in the final basis set = -1510.27376953
   12   -1510.2741904294      7.06E-09 Convergence criterion met
   11   -1510.2744295603      5.98E-09 Convergence criterion met
 Total energy in the final basis set = -1510.27442956
   11   -1510.2744461501      4.15E-09 Convergence criterion met
 Total energy in the final basis set = -1510.27444615
   10   -1510.2744560530      9.44E-09 Convergence criterion met
 Total energy in the final basis set = -1510.27445605
   10   -1510.2744614714      9.40E-09 Convergence criterion met
 Total energy in the final basis set = -1510.27446147
    9   -1510.2744645887      5.87E-09 Convergence criterion met
 Total energy in the final basis set = -1510.27446459
    9   -1510.2744657609      5.54E-09 Convergence criterion met
 Total energy in the final basis set = -1510.27446576

             Standard Nuclear Orientation (Angstroms)
    I     Atom           X                Y                Z
 ----------------------------------------------------------------
    1      O      -5.6273152605     1.3397800994     1.0925531322
    2      C      -5.4073168076     0.7572139551     0.0093177658
    3      C      -4.8093340510    -0.6784939556    -0.2080456259
    4      C      -3.2909705214    -0.6921011775    -0.6637882897
    5      C      -2.6061397804     0.7147310649    -0.4896843105
    6      O      -1.2477116817     0.5169523152    -0.1128559080
    7      C      -0.5372662015     1.8060394802     0.0659346656
    8      C       0.9490106415     1.5945149178    -0.4019148313
    9      O       1.8532036085     1.3195803360     0.7376177587
   10      C       2.1122314103    -0.0954915510     0.8493587437
   11      C       3.6154387911    -0.3449326127     1.2502908189
   12      C       4.5639486010    -0.7563192326     0.0471911598
   13      C       3.9097954755    -0.6405107109    -1.3725962698
   14      O       2.7191306228    -0.3941415669    -1.6658084886
   15      O      -5.8129174037     1.2528769800    -1.2748869086
   16      O       4.9237405142    -0.8990885421    -2.3466448995
   17      O       1.2444098019    -0.9811567921     0.6920686307
   18      C       4.3532008955    -0.8150810586    -3.7114938896
   19      C       4.3628577799     0.9430202865     1.7994845270
   20      C       5.6121895361     0.4633452062     2.6377736001
   21      C       6.5725931277    -0.0262971611     1.4917260639
   22      C       5.7221652956     0.3238798410     0.2078913763
   23      O       4.9763614687     1.5429861691     0.5910174666
   24      H       3.6188717505    -1.1522102752     2.0056261996
   25      H       4.9489327445    -1.7856611609     0.1658581325
   26      H       3.7033169926     1.6758774491     2.3015032588
   27      H       6.0482065964     1.3092008434     3.1928993493
   28      H       5.3569871581    -0.3352840799     3.3523369176
   29      H       7.5217911786     0.5324126236     1.4893157939
   30      H       6.7968298245    -1.1030623137     1.5551733131
   31      H       6.3057233401     0.4926588007    -0.7181157542
   32      O      -3.1430454869     1.8380097814    -0.6254538407
   33      C      -6.3204163137     2.6356625110    -1.1410307343
   34      C      -4.7382035113    -1.5524959903     1.1150760341
   35      C      -4.7040139973    -3.0691136279     0.6801398422
   36      C      -3.2548357777    -3.1682373931     0.0733382039
   37      C      -2.6871691453    -1.7250814497     0.3773118605
   38      O      -3.3685670488    -1.3259474231     1.6327458636
   39      H      -5.4314957419    -1.1752271536    -0.9740855291
   40      H      -3.1785419431    -1.0233303056    -1.7126829649
   41      H      -5.5152364063     3.3257680347    -0.8153995379
   42      H      -5.4912558743    -1.2838220046     1.8811153478
   43      H      -4.8177288093    -3.7227714506     1.5597076964
   44      H      -5.4913242454    -3.3159980768    -0.0499857797
   45      H      -2.6517346460    -3.9366089290     0.5821542892
   46      H      -3.2639317123    -3.3849579219    -1.0068536821
   47      H      -1.5875032541    -1.6502021706     0.4892287223
   48      H      -7.1561825217     2.6975325664    -0.4142326730
   49      H      -6.6773032169     2.9314570592    -2.1447939689
   50      H       5.1874213310    -1.0327356177    -4.4034106206
   51      H       3.9492161362     0.1960032991    -3.9228015406
   52      H       3.5425792357    -1.5572254568    -3.8607124277
   53      H       1.0059146535     0.7833376499    -1.1579379204
   54      H       1.3230962465     2.5390606454    -0.8507379339
   55      H      -0.5592326462     2.1019056057     1.1377001469
   56      H      -1.0484783027     2.5950336168    -0.5273004699
 ----------------------------------------------------------------

    9   -1510.2744661020      5.07E-09 Convergence criterion met
 Total energy in the final basis set = -1510.27446610
 Final energy is   -1510.27446610204
 **  OPTIMIZATION CONVERGED  **

                    Orbital Energies (a.u.)
 --------------------------------------------------------------

 Alpha MOs
 -- Occupied --
-18.946 -18.931 -18.916 -18.911 -18.890 -18.888 -18.875 -18.872
-18.872 -18.857 -10.112 -10.096 -10.095 -10.085 -10.073 -10.064
-10.063 -10.063 -10.058 -10.049 -10.049 -10.046 -10.044 -10.035
-10.031 -10.025 -10.022 -10.020 -10.012 -10.011  -1.024  -1.010
 -0.997  -0.993  -0.972  -0.959  -0.947  -0.934  -0.926  -0.920
 -0.765  -0.754  -0.725  -0.719  -0.711  -0.701  -0.687  -0.669
 -0.649  -0.609  -0.595  -0.574  -0.546  -0.538  -0.536  -0.528
 -0.515  -0.504  -0.485  -0.475  -0.463  -0.449  -0.448  -0.445
 -0.435  -0.422  -0.419  -0.414  -0.412  -0.404  -0.397  -0.395
 -0.394  -0.381  -0.374  -0.367  -0.358  -0.354  -0.347  -0.344
 -0.338  -0.337  -0.331  -0.327  -0.323  -0.321  -0.317  -0.315
 -0.309  -0.303  -0.302  -0.298  -0.291  -0.283  -0.276  -0.269
 -0.264  -0.262  -0.245  -0.241  -0.238  -0.234  -0.224  -0.189
 -0.174  -0.165  -0.161  -0.159  -0.151  -0.148  -0.142  -0.137
 -0.134

          Ground-State Mulliken Net Atomic Charges

     Atom                 Charge (a.u.)
  ----------------------------------------
      1 O                    -0.217517
      2 C                     0.212808
      3 C                    -0.081932
      4 C                    -0.076152
      5 C                     0.213431
      6 O                    -0.166677
      7 C                    -0.052203
      8 C                    -0.050917
      9 O                    -0.184998
     10 C                     0.216470
     11 C                    -0.081962
     12 C                    -0.077688
     13 C                     0.215713
     14 O                    -0.213024
     15 O                    -0.172571
     16 O                    -0.169116
     17 O                    -0.203367
     18 C                    -0.128106
     19 C                     0.025432
     20 C                    -0.143818
     21 C                    -0.144359
     22 C                     0.024512
     23 O                    -0.190662
     24 H                     0.082507
     25 H                     0.088313
     26 H                     0.091208
     27 H                     0.078118
     28 H                     0.073980
     29 H                     0.078356
     30 H                     0.073676
     31 H                     0.086941
     32 O                    -0.216278
     33 C                    -0.127842
     34 C                     0.023433
     35 C                    -0.143065
     36 C                    -0.145212
     37 C                     0.021179
     38 O                    -0.191400
     39 H                     0.082500
     40 H                     0.084710
     41 H                     0.092031
     42 H                     0.086454
     43 H                     0.076409
     44 H                     0.071453
     45 H                     0.077453
     46 H                     0.071392
     47 H                     0.102001
     48 H                     0.086096
     49 H                     0.085573
     50 H                     0.092800
     51 H                     0.090760
     52 H                     0.091216
     53 H                     0.110040
     54 H                     0.085846
     55 H                     0.091254
     56 H                     0.094801
  ----------------------------------------
  Sum of atomic charges =     0.000000

                    Cartesian Multipole Moments
 -----------------------------------------------------------------
    Charge (ESU x 10^10)
                 0.0000
    Dipole Moment (Debye)
         X       3.1469      Y      -1.6006      Z      -2.3724
       Tot       4.2536
    Quadrupole Moments (Debye-Ang)
        XX    -146.8507     XY      -0.3021     YY    -156.6714
        XZ       6.6225     YZ      -0.6055     ZZ    -153.5745

 Total job time:  53.13s(wall), 2309.78s(cpu)
        *  Thank you very much for using Q-Chem.  Have a nice day.  *
