 Q-Chem 5.0, Q-Chem, Inc., Pleasanton, CA (2017)
 Q-Chem 5.0.1 for Intel X86 EM64T Linux

User input:
--------------------------------------------------------------
$molecule
0  1
O -5.0258832781 -0.4480225054 1.9361322873
C -5.1126097048 0.2265562152 0.8881191592
C -4.7144311837 -0.2114564576 -0.5689590781
C -3.3481757747 0.3972580362 -1.0858870617
C -2.5524919675 1.1386814175 0.0458608341
O -1.1943643861 1.2274847492 -0.3677252403
C -0.3583379958 1.9220938314 0.6388222657
C 1.0636061201 2.075266316 -0.0155592424
O 1.9943868916 1.0375683595 0.4795121643
C 1.8481867648 -0.1632068402 -0.2984004084
C 2.9074684276 -1.2158959339 0.1918464193
C 4.4059208787 -0.8635684311 -0.1778642237
C 4.5405535237 0.3923697925 -1.1035020112
O 3.6200443779 1.0045481092 -1.6902705182
O -5.7627502419 1.503892144 0.7953446514
O 5.9220393728 0.7444019075 -1.2001683135
O 0.9640088839 -0.3444169851 -1.1633450522
C 6.0819679141 1.9318581548 -2.0718006228
C 3.0038485052 -1.2357671657 1.7788561532
C 3.8030832451 -2.5236293117 2.2267946466
C 5.2808014529 -2.1025413186 1.8841914209
C 5.0483569541 -0.6690406002 1.2641011542
O 3.9373278855 -0.1233361215 2.073569273
H 2.6143408224 -2.1975130037 -0.2194404958
H 4.8892319456 -1.7109098543 -0.6992405588
H 2.0385853469 -1.076870897 2.2974603191
H 3.672267374 -2.7017219602 3.3059544146
H 3.4789243193 -3.4225141225 1.6784354646
H 5.9006704021 -2.0315077019 2.7922198244
H 5.7685171912 -2.7903068829 1.1751526248
H 5.9231009863 0.0093665057 1.2830667252
O -2.9879833949 1.5558285457 1.1430359628
C -6.1094241378 1.9852032988 2.1497592798
C -4.4125677019 -1.7656227854 -0.6824088024
C -4.5516561469 -2.1783355893 -2.1998262059
C -3.2577731995 -1.5196188477 -2.8077503074
C -2.5744223347 -0.9236164243 -1.5145596758
O -2.9545073997 -1.8703986514 -0.4400265457
H -5.5397798445 0.0858205984 -1.2403287277
H -3.4960581215 1.0901622311 -1.9344566272
H -5.1978273505 2.1618858388 2.7568368688
H -4.9697809373 -2.3912752104 0.0415362713
H -4.5288440856 -3.2752280689 -2.3006976144
H -5.4806099721 -1.8006713217 -2.6560140839
H -2.6029280927 -2.2689252007 -3.279835128
H -3.4875911246 -0.736627383 -3.5479806629
H -1.4727737934 -0.7991124322 -1.5601349391
H -6.7586649152 1.2646540294 2.688340562
H -6.6508008044 2.9389202734 2.0089725254
H 7.1661615492 2.1458522451 -2.0992447256
H 5.53959107 2.8100931029 -1.665906035
H 5.7152108635 1.7353847043 -3.0999508756
H 0.9605145362 2.0305109107 -1.1207038013
H 1.5135207029 3.043301513 0.2830972447
H -0.2883161164 1.3319076768 1.5792647077
H -0.7921917494 2.9157471955 0.8855711287
$end

$rem
JOBTYPE                   OPT
METHOD                    B3LYP
DFT_D                     d3_op
BASIS                     STO-3G
GEOM_OPT_MAX_CYCLES       100
GEOM_OPT_TOL_GRADIENT     300
GEOM_OPT_TOL_DISPLACEMENT 1200
GEOM_OPT_TOL_ENERGY       100
SYMMETRY                  False
THRESH                    12
SCF_CONVERGENCE           8
MAX_SUB_FILE_NUM          128
MEM_STATIC                400
MEM_TOTAL                 4000
$end
--------------------------------------------------------------

   16   -1510.2856973520      5.28E-09 Convergence criterion met
 Total energy in the final basis set = -1510.28569735
   14   -1510.2867950622      2.16E-09 Convergence criterion met
 Total energy in the final basis set = -1510.28679506
   14   -1510.2882560577      2.18E-09 Convergence criterion met
 Total energy in the final basis set = -1510.28825606
   14   -1510.2894036642      2.19E-09 Convergence criterion met
 Total energy in the final basis set = -1510.28940366
   14   -1510.2901589892      3.12E-09 Convergence criterion met
 Total energy in the final basis set = -1510.29015899
   13   -1510.2914423318      7.73E-09 Convergence criterion met
 Total energy in the final basis set = -1510.29144233
   13   -1510.2930309917      8.95E-09 Convergence criterion met
 Total energy in the final basis set = -1510.29303099
   14   -1510.2948132865      3.11E-09 Convergence criterion met
   13   -1510.3051794022      6.49E-09 Convergence criterion met
 Total energy in the final basis set = -1510.30517940
   12   -1510.3051969383      6.12E-09 Convergence criterion met
 Total energy in the final basis set = -1510.30519694
   13   -1510.3051432763      4.45E-09 Convergence criterion met
 Total energy in the final basis set = -1510.30514328
   12   -1510.3052030704      9.12E-09 Convergence criterion met
 Total energy in the final basis set = -1510.30520307
   12   -1510.3052184835      5.42E-09 Convergence criterion met
 Total energy in the final basis set = -1510.30521848
   11   -1510.3052188001      2.91E-09 Convergence criterion met
 Total energy in the final basis set = -1510.30521880

             Standard Nuclear Orientation (Angstroms)
    I     Atom           X                Y                Z
 ----------------------------------------------------------------
    1      O      -2.0855583664     1.5044983939     2.0770828470
    2      C      -2.8946486420     1.0365227011     1.2486640323
    3      C      -3.1597330462    -0.4815131094     0.9262609734
    4      C      -2.5976065932    -0.9613662139    -0.4741675096
    5      C      -1.8617883616     0.1700989779    -1.2660663336
    6      O      -1.6471583364    -0.2812952622    -2.6031377655
    7      C      -0.8542353557     0.7044639206    -3.3805895959
    8      C       0.6768192649     0.3362302754    -3.3612688535
    9      O       1.2415042026     0.5740531946    -2.0156756415
   10      C       1.1773975152    -0.6293550936    -1.2335318310
   11      C       1.4657680589    -0.3002589844     0.2758135888
   12      C       2.9900835065    -0.3463550708     0.6851684959
   13      C       3.9175161768    -0.6505231934    -0.5351965574
   14      O       3.5530905185    -0.9168038664    -1.7044345369
   15      O      -3.8526578163     1.8148635838     0.5161307559
   16      O       5.2818697114    -0.5761013454    -0.1228216998
   17      O       0.7649989706    -1.7259398055    -1.6870390024
   18      C       6.1754492366    -0.8433518193    -1.2744819937
   19      C       1.0983337795     1.1977165570     0.6488515915
   20      C       0.9804998571     1.2868320802     2.2188389112
   21      C       2.4951351255     1.2395069306     2.6436272843
   22      C       3.1996719519     1.1346893945     1.2340974262
   23      O       2.3405163196     1.9484727972     0.3469630167
   24      H       0.8449746590    -1.0000951859     0.8697360912
   25      H       3.1876194202    -1.0964843870     1.4726939244
   26      H       0.2264603989     1.5914650209     0.0857353928
   27      H       0.5014974139     2.2329932517     2.5150226541
   28      H       0.3876330145     0.4540661808     2.6283126005
   29      H       2.8028995920     2.1646303224     3.1564318805
   30      H       2.7322401726     0.3805965390     3.2915576083
   31      H       4.2502504847     1.4836284962     1.1972034150
   32      O      -1.5098533177     1.2937604218    -0.8335471673
   33      C      -3.5926267046     3.2550610627     0.7304513752
   34      C      -2.3595072116    -1.4265732556     1.9144248656
   35      C      -2.9703150974    -2.8795831125     1.8287321126
   36      C      -2.4204204484    -3.3598017152     0.4317382255
   37      C      -1.5819600436    -2.1035327319    -0.0208791835
   38      O      -1.0423307430    -1.5780596330     1.2539708363
   39      H      -4.2490662451    -0.6561338368     0.9832960128
   40      H      -3.3937747418    -1.3725798650    -1.1196335169
   41      H      -2.5953605056     3.5434600559     0.3391661865
   42      H      -2.2354294904    -1.0124541750     2.9337968434
   43      H      -2.5865755374    -3.5064280678     2.6493874416
   44      H      -4.0711474030    -2.8732818174     1.8747886963
   45      H      -1.7658039614    -4.2396079475     0.5368448250
   46      H      -3.2249482984    -3.6029334752    -0.2807062144
   47      H      -0.7433721724    -2.2761570609    -0.7373226275
   48      H      -3.6425368650     3.5265921897     1.8048231183
   49      H      -4.3798099183     3.7963736610     0.1740543543
   50      H       7.2067088414    -0.7349007212    -0.8913727602
   51      H       6.0051069122    -0.1202595431    -2.0979083030
   52      H       6.0324564213    -1.8693645184    -1.6710945903
   53      H       0.8085757123    -0.7284686834    -3.6498206202
   54      H       1.2218579709     0.9977994441    -4.0650332397
   55      H      -0.9998566360     1.7206503887    -2.9559843499
   56      H      -1.2360389782     0.6649729701    -4.4214331753
 ----------------------------------------------------------------

   10   -1510.3052193882      5.09E-09 Convergence criterion met
 Total energy in the final basis set = -1510.30521939
 Final energy is   -1510.30521938818
 **  OPTIMIZATION CONVERGED  **

                    Orbital Energies (a.u.)
 --------------------------------------------------------------

 Alpha MOs
 -- Occupied --
-18.942 -18.940 -18.921 -18.920 -18.886 -18.885 -18.881 -18.870
-18.861 -18.858 -10.107 -10.101 -10.090 -10.090 -10.072 -10.066
-10.065 -10.057 -10.054 -10.048 -10.046 -10.037 -10.032 -10.032
-10.030 -10.017 -10.015 -10.013 -10.005  -9.996  -1.021  -1.015
 -0.999  -0.996  -0.969  -0.954  -0.944  -0.939  -0.925  -0.924
 -0.760  -0.749  -0.723  -0.712  -0.705  -0.698  -0.687  -0.660
 -0.654  -0.613  -0.590  -0.573  -0.541  -0.535  -0.531  -0.518
 -0.508  -0.503  -0.485  -0.471  -0.458  -0.455  -0.448  -0.436
 -0.429  -0.424  -0.418  -0.414  -0.410  -0.403  -0.402  -0.397
 -0.392  -0.379  -0.370  -0.365  -0.359  -0.353  -0.349  -0.343
 -0.341  -0.337  -0.330  -0.326  -0.324  -0.318  -0.316  -0.305
 -0.300  -0.299  -0.298  -0.289  -0.281  -0.278  -0.275  -0.268
 -0.262  -0.255  -0.251  -0.243  -0.234  -0.231  -0.216  -0.190
 -0.181  -0.165  -0.164  -0.155  -0.154  -0.145  -0.142  -0.141
 -0.128

          Ground-State Mulliken Net Atomic Charges

     Atom                 Charge (a.u.)
  ----------------------------------------
      1 O                    -0.218243
      2 C                     0.214943
      3 C                    -0.081859
      4 C                    -0.079272
      5 C                     0.216126
      6 O                    -0.167206
      7 C                    -0.053665
      8 C                    -0.051895
      9 O                    -0.168485
     10 C                     0.217278
     11 C                    -0.091866
     12 C                    -0.079224
     13 C                     0.215015
     14 O                    -0.207138
     15 O                    -0.176170
     16 O                    -0.167775
     17 O                    -0.230829
     18 C                    -0.127920
     19 C                     0.019069
     20 C                    -0.143212
     21 C                    -0.144734
     22 C                     0.024771
     23 O                    -0.193207
     24 H                     0.104739
     25 H                     0.086081
     26 H                     0.099775
     27 H                     0.080492
     28 H                     0.080794
     29 H                     0.074400
     30 H                     0.070443
     31 H                     0.081869
     32 O                    -0.212682
     33 C                    -0.128587
     34 C                     0.025311
     35 C                    -0.144093
     36 C                    -0.144110
     37 C                     0.011467
     38 O                    -0.198040
     39 H                     0.083991
     40 H                     0.087870
     41 H                     0.092020
     42 H                     0.086652
     43 H                     0.076785
     44 H                     0.072665
     45 H                     0.078400
     46 H                     0.073258
     47 H                     0.109690
     48 H                     0.086478
     49 H                     0.086246
     50 H                     0.091714
     51 H                     0.091671
     52 H                     0.089906
     53 H                     0.102123
     54 H                     0.089327
     55 H                     0.099606
     56 H                     0.089236
  ----------------------------------------
  Sum of atomic charges =    -0.000000

                    Cartesian Multipole Moments
 -----------------------------------------------------------------
    Charge (ESU x 10^10)
                -0.0000
    Dipole Moment (Debye)
         X      -0.6501      Y      -0.8112      Z      -0.5438
       Tot       1.1732
    Quadrupole Moments (Debye-Ang)
        XX    -141.8787     XY      -1.7321     YY    -159.5131
        XZ      -1.2094     YZ      -5.3853     ZZ    -153.0399

 Total job time:  135.15s(wall), 6435.25s(cpu)
        *  Thank you very much for using Q-Chem.  Have a nice day.  *
