 Q-Chem 5.0, Q-Chem, Inc., Pleasanton, CA (2017)
 Q-Chem 5.0.1 for Intel X86 EM64T Linux

User input:
--------------------------------------------------------------
$molecule
0  1
O -3.94934 -3.66094 2.70899
C -3.26408 -4.56952 2.26188
C -3.36658 -6.02376 2.66595
C -2.28161 -6.56914 3.60896
C -1.31671 -5.55615 4.18421
O -0.7206 -6.06603 5.3023
C 0.21473 -5.16397 5.90287
C 0.94069 -5.84996 7.05549
O 0.35309 -5.45841 8.30621
C -0.72645 -6.18133 8.69496
C -1.24807 -5.77586 10.05296
C -0.34302 -6.15592 11.23394
C 1.07698 -6.54844 10.87864
O 1.49549 -6.74691 9.74726
O -2.29932 -4.27554 1.34992
O 1.92017 -6.74422 11.92686
O -1.2972 -6.99816 7.98389
C 3.24154 -7.11899 11.80219
C -1.38655 -4.25724 10.25404
C -2.40864 -3.97546 11.35368
C -1.64288 -4.43938 12.57692
C -0.29038 -4.78611 11.94267
O -0.17812 -3.88243 10.86803
H -2.24662 -6.25737 10.16534
H -0.76428 -6.96373 11.87195
H -1.65536 -3.71532 9.32091
H -2.53104 -2.8699 11.40895
H -3.40457 -4.44722 11.21069
H -1.54037 -3.57711 13.27271
H -2.0803 -5.3108 13.11065
H 0.51494 -4.73067 12.70766
O -1.15068 -4.40609 3.79743
C -2.04828 -3.00889 0.86525
C -4.63548 -6.27775 3.50956
C -5.03141 -7.75057 3.43414
C -3.94563 -8.37078 4.27982
C -3.20051 -7.11234 4.73744
O -4.20426 -6.13671 4.83615
H -3.46463 -6.60628 1.72259
H -1.67519 -7.39239 3.17144
H -1.76053 -2.33054 1.69675
H -5.50086 -5.64734 3.20768
H -6.00305 -7.86185 3.96711
H -5.12716 -8.16039 2.40565
H -4.42474 -8.87258 5.15027
H -3.27751 -9.0849 3.75163
H -2.66852 -7.34653 5.68243
H -2.94867 -2.611 0.35018
H -1.21215 -3.05692 0.13792
H 3.69215 -7.20486 12.81216
H 3.80273 -6.3543 11.2236
H 3.31401 -8.10372 11.29289
H 1.11696 -6.94196 6.93021
H 1.94975 -5.38425 7.08552
H -0.23099 -4.19136 6.21271
H 0.99371 -4.96042 5.13033
$end

$opt
CONSTRAINT
tors           1           2           3           4    -103.581
tors           3           4           5           6    +159.990
tors           4           5           6           7    +179.737
tors           5           6           7           8    -174.273
tors           6           7           8           9     -99.942
tors           7           8           9          10     +85.337
tors           8           9          10          11    +176.601
tors           9          10          11          12     -70.340
tors          11          12          13          14      -9.792
ENDCONSTRAINT
$end

$rem
JOBTYPE                   OPT
METHOD                    B3LYP
DFT_D                     d3_op
BASIS                     STO-3G
GEOM_OPT_MAX_CYCLES       100
GEOM_OPT_TOL_GRADIENT     300
GEOM_OPT_TOL_DISPLACEMENT 1200
GEOM_OPT_TOL_ENERGY       100
SYMMETRY                  False
THRESH                    12
SCF_CONVERGENCE           8
MAX_SUB_FILE_NUM          128
MEM_STATIC                400
MEM_TOTAL                 4000
$end
--------------------------------------------------------------

   15   -1510.1475259289      9.29E-09 Convergence criterion met
 Total energy in the final basis set = -1510.14752593
   14   -1510.2166147448      5.85E-09 Convergence criterion met
 Total energy in the final basis set = -1510.21661474
   14   -1510.2537021140      5.23E-09 Convergence criterion met
 Total energy in the final basis set = -1510.25370211
   14   -1510.2726773573      6.71E-09 Convergence criterion met
 Total energy in the final basis set = -1510.27267736
   14   -1510.2794982125      4.30E-09 Convergence criterion met
 Total energy in the final basis set = -1510.27949821
   13   -1510.2824216848      3.42E-09 Convergence criterion met
 Total energy in the final basis set = -1510.28242168
   13   -1510.2839396589      3.46E-09 Convergence criterion met
 Total energy in the final basis set = -1510.28393966
   12   -1510.2845613433      8.60E-09 Convergence criterion met
   12   -1510.2855367172      3.85E-09 Convergence criterion met
 Total energy in the final basis set = -1510.28553672
   11   -1510.2855883237      5.29E-09 Convergence criterion met
 Total energy in the final basis set = -1510.28558832
   11   -1510.2856250798      3.10E-09 Convergence criterion met
 Total energy in the final basis set = -1510.28562508
   10   -1510.2856537332      5.71E-09 Convergence criterion met
 Total energy in the final basis set = -1510.28565373
   10   -1510.2856673593      8.76E-09 Convergence criterion met
 Total energy in the final basis set = -1510.28566736
    9   -1510.2856717087      6.51E-09 Convergence criterion met
 Total energy in the final basis set = -1510.28567171

             Standard Nuclear Orientation (Angstroms)
    I     Atom           X                Y                Z
 ----------------------------------------------------------------
    1      O      -5.0258832781    -0.4480225054     1.9361322873
    2      C      -5.1126097048     0.2265562152     0.8881191592
    3      C      -4.7144311837    -0.2114564576    -0.5689590781
    4      C      -3.3481757747     0.3972580362    -1.0858870617
    5      C      -2.5524919675     1.1386814175     0.0458608341
    6      O      -1.1943643861     1.2274847492    -0.3677252403
    7      C      -0.3583379958     1.9220938314     0.6388222657
    8      C       1.0636061201     2.0752663160    -0.0155592424
    9      O       1.9943868916     1.0375683595     0.4795121643
   10      C       1.8481867648    -0.1632068402    -0.2984004084
   11      C       2.9074684276    -1.2158959339     0.1918464193
   12      C       4.4059208787    -0.8635684311    -0.1778642237
   13      C       4.5405535237     0.3923697925    -1.1035020112
   14      O       3.6200443779     1.0045481092    -1.6902705182
   15      O      -5.7627502419     1.5038921440     0.7953446514
   16      O       5.9220393728     0.7444019075    -1.2001683135
   17      O       0.9640088839    -0.3444169851    -1.1633450522
   18      C       6.0819679141     1.9318581548    -2.0718006228
   19      C       3.0038485052    -1.2357671657     1.7788561532
   20      C       3.8030832451    -2.5236293117     2.2267946466
   21      C       5.2808014529    -2.1025413186     1.8841914209
   22      C       5.0483569541    -0.6690406002     1.2641011542
   23      O       3.9373278855    -0.1233361215     2.0735692730
   24      H       2.6143408224    -2.1975130037    -0.2194404958
   25      H       4.8892319456    -1.7109098543    -0.6992405588
   26      H       2.0385853469    -1.0768708970     2.2974603191
   27      H       3.6722673740    -2.7017219602     3.3059544146
   28      H       3.4789243193    -3.4225141225     1.6784354646
   29      H       5.9006704021    -2.0315077019     2.7922198244
   30      H       5.7685171912    -2.7903068829     1.1751526248
   31      H       5.9231009863     0.0093665057     1.2830667252
   32      O      -2.9879833949     1.5558285457     1.1430359628
   33      C      -6.1094241378     1.9852032988     2.1497592798
   34      C      -4.4125677019    -1.7656227854    -0.6824088024
   35      C      -4.5516561469    -2.1783355893    -2.1998262059
   36      C      -3.2577731995    -1.5196188477    -2.8077503074
   37      C      -2.5744223347    -0.9236164243    -1.5145596758
   38      O      -2.9545073997    -1.8703986514    -0.4400265457
   39      H      -5.5397798445     0.0858205984    -1.2403287277
   40      H      -3.4960581215     1.0901622311    -1.9344566272
   41      H      -5.1978273505     2.1618858388     2.7568368688
   42      H      -4.9697809373    -2.3912752104     0.0415362713
   43      H      -4.5288440856    -3.2752280689    -2.3006976144
   44      H      -5.4806099721    -1.8006713217    -2.6560140839
   45      H      -2.6029280927    -2.2689252007    -3.2798351280
   46      H      -3.4875911246    -0.7366273830    -3.5479806629
   47      H      -1.4727737934    -0.7991124322    -1.5601349391
   48      H      -6.7586649152     1.2646540294     2.6883405620
   49      H      -6.6508008044     2.9389202734     2.0089725254
   50      H       7.1661615492     2.1458522451    -2.0992447256
   51      H       5.5395910700     2.8100931029    -1.6659060350
   52      H       5.7152108635     1.7353847043    -3.0999508756
   53      H       0.9605145362     2.0305109107    -1.1207038013
   54      H       1.5135207029     3.0433015130     0.2830972447
   55      H      -0.2883161164     1.3319076768     1.5792647077
   56      H      -0.7921917494     2.9157471955     0.8855711287
 ----------------------------------------------------------------

    9   -1510.2856728502      3.68E-09 Convergence criterion met
 Total energy in the final basis set = -1510.28567285
 Final energy is   -1510.28567285019
 **  OPTIMIZATION CONVERGED  **

                    Orbital Energies (a.u.)
 --------------------------------------------------------------

 Alpha MOs
 -- Occupied --
-18.943 -18.935 -18.922 -18.913 -18.888 -18.885 -18.876 -18.876
-18.865 -18.854 -10.107 -10.098 -10.092 -10.083 -10.071 -10.070
-10.068 -10.061 -10.059 -10.049 -10.048 -10.046 -10.041 -10.034
-10.031 -10.024 -10.020 -10.019 -10.012 -10.011  -1.020  -1.014
 -1.000  -0.991  -0.970  -0.960  -0.943  -0.937  -0.927  -0.917
 -0.763  -0.754  -0.725  -0.718  -0.711  -0.702  -0.688  -0.667
 -0.648  -0.611  -0.594  -0.575  -0.545  -0.537  -0.535  -0.528
 -0.513  -0.507  -0.485  -0.474  -0.463  -0.449  -0.446  -0.440
 -0.433  -0.423  -0.420  -0.416  -0.411  -0.405  -0.398  -0.395
 -0.393  -0.380  -0.375  -0.362  -0.357  -0.354  -0.349  -0.341
 -0.337  -0.332  -0.330  -0.327  -0.325  -0.324  -0.315  -0.314
 -0.305  -0.305  -0.299  -0.298  -0.292  -0.283  -0.276  -0.268
 -0.265  -0.261  -0.249  -0.243  -0.238  -0.234  -0.224  -0.186
 -0.177  -0.166  -0.160  -0.158  -0.152  -0.144  -0.142  -0.135
 -0.134

          Ground-State Mulliken Net Atomic Charges

     Atom                 Charge (a.u.)
  ----------------------------------------
      1 O                    -0.219210
      2 C                     0.214275
      3 C                    -0.082518
      4 C                    -0.077129
      5 C                     0.214345
      6 O                    -0.167285
      7 C                    -0.047905
      8 C                    -0.047425
      9 O                    -0.171470
     10 C                     0.214767
     11 C                    -0.080901
     12 C                    -0.078609
     13 C                     0.214193
     14 O                    -0.209949
     15 O                    -0.175009
     16 O                    -0.169327
     17 O                    -0.214767
     18 C                    -0.127960
     19 C                     0.026925
     20 C                    -0.144549
     21 C                    -0.143210
     22 C                     0.025205
     23 O                    -0.186333
     24 H                     0.084849
     25 H                     0.085980
     26 H                     0.084797
     27 H                     0.078594
     28 H                     0.074498
     29 H                     0.078126
     30 H                     0.073370
     31 H                     0.087778
     32 O                    -0.211252
     33 C                    -0.128034
     34 C                     0.024105
     35 C                    -0.143678
     36 C                    -0.144642
     37 C                     0.020440
     38 O                    -0.192415
     39 H                     0.082330
     40 H                     0.084910
     41 H                     0.091525
     42 H                     0.086325
     43 H                     0.076158
     44 H                     0.071629
     45 H                     0.077482
     46 H                     0.071835
     47 H                     0.102215
     48 H                     0.085532
     49 H                     0.084783
     50 H                     0.092111
     51 H                     0.090903
     52 H                     0.090432
     53 H                     0.104176
     54 H                     0.088565
     55 H                     0.092511
     56 H                     0.087908
  ----------------------------------------
  Sum of atomic charges =    -0.000000

                    Cartesian Multipole Moments
 -----------------------------------------------------------------
    Charge (ESU x 10^10)
                -0.0000
    Dipole Moment (Debye)
         X       2.6335      Y       0.6961      Z      -1.8731
       Tot       3.3058
    Quadrupole Moments (Debye-Ang)
        XX    -142.1790     XY      -3.9268     YY    -151.2286
        XZ       2.9133     YZ      -0.4164     ZZ    -159.9247

 Total job time:  50.26s(wall), 2390.93s(cpu)
        *  Thank you very much for using Q-Chem.  Have a nice day.  *
