 Q-Chem 5.0, Q-Chem, Inc., Pleasanton, CA (2017)
 Q-Chem 5.0.1 for Intel X86 EM64T Linux

User input:
--------------------------------------------------------------
$molecule
0  1
O -3.94934 -3.66094 2.70899
C -3.26408 -4.56952 2.26188
C -3.36658 -6.02376 2.66595
C -2.43063 -6.5098 3.7847
C -1.62216 -5.44784 4.49654
O -1.19852 -5.92016 5.70603
C -0.41838 -4.9702 6.43965
C 0.03786 -5.57503 7.76334
O -0.84677 -5.16685 8.81866
C -2.04893 -5.79386 8.84705
C -2.6853 -5.78429 10.21658
C -2.16574 -6.86199 11.17934
C -0.87194 -7.54024 10.77588
O -0.28136 -7.36891 9.71928
O -2.24763 -4.26567 1.41215
O -0.35955 -8.42457 11.67202
O -2.64495 -6.18461 7.85754
C 0.80447 -9.13885 11.4801
C -2.44007 -4.50794 11.04308
C -3.53895 -4.35465 12.09343
C -3.1801 -5.47852 13.04525
C -1.87779 -5.97687 12.40788
O -1.3175 -4.82008 11.83148
H -3.78061 -5.91114 10.05532
H -2.91138 -7.66431 11.37317
H -2.36704 -3.5898 10.42012
H -3.36329 -3.38319 12.60894
H -4.57885 -4.37818 11.70237
H -2.98271 -5.03813 14.04785
H -3.93331 -6.29191 13.12715
H -1.25103 -6.49233 13.16841
O -1.43185 -4.30006 4.11339
C -1.96621 -2.99315 0.9608
C -4.74534 -6.31995 3.29908
C -5.07542 -7.80377 3.1643
C -4.10275 -8.39137 4.15761
C -3.49483 -7.10884 4.73928
O -4.53846 -6.17357 4.67892
H -3.29896 -6.62153 1.72924
H -1.71759 -7.29896 3.45968
H -1.72447 -2.32751 1.81684
H -5.57157 -5.7156 2.86325
H -6.10974 -7.94551 3.55266
H -5.01109 -8.21576 2.13425
H -4.68406 -8.93795 4.93362
H -3.32506 -9.05823 3.72637
H -3.10841 -7.34251 5.74881
H -2.83496 -2.58518 0.40115
H -1.09026 -3.03362 0.28147
H 0.98693 -9.7818 12.36541
H 1.6634 -8.44465 11.35864
H 0.71337 -9.78499 10.58089
H 0.25787 -6.65608 7.65141
H 1.00025 -5.07727 8.01068
H -0.9309 -3.99414 6.60136
H 0.50207 -4.78736 5.83736
$end

$opt
CONSTRAINT
tors           1           2           3           4     -93.600
tors           3           4           5           6    +159.990
tors           4           5           6           7    +179.737
tors           5           6           7           8    -179.007
tors           6           7           8           9     -97.294
tors           7           8           9          10     +75.665
tors           8           9          10          11    +156.091
tors           9          10          11          12     -81.284
tors          11          12          13          14      -5.753
ENDCONSTRAINT
$end

$rem
JOBTYPE                   OPT
METHOD                    B3LYP
DFT_D                     d3_op
BASIS                     STO-3G
GEOM_OPT_MAX_CYCLES       100
GEOM_OPT_TOL_GRADIENT     300
GEOM_OPT_TOL_DISPLACEMENT 1200
GEOM_OPT_TOL_ENERGY       100
SYMMETRY                  False
THRESH                    12
SCF_CONVERGENCE           8
MAX_SUB_FILE_NUM          128
MEM_STATIC                400
MEM_TOTAL                 4000
$end
--------------------------------------------------------------

   15   -1510.1476913777      7.47E-09 Convergence criterion met
 Total energy in the final basis set = -1510.14769138
   13   -1510.2180009880      9.10E-09 Convergence criterion met
 Total energy in the final basis set = -1510.21800099
   13   -1510.2545802242      7.54E-09 Convergence criterion met
 Total energy in the final basis set = -1510.25458022
   14   -1510.2714996061      1.83E-09 Convergence criterion met
 Total energy in the final basis set = -1510.27149961
   13   -1510.2783244993      7.86E-09 Convergence criterion met
 Total energy in the final basis set = -1510.27832450
   13   -1510.2809833346      3.41E-09 Convergence criterion met
 Total energy in the final basis set = -1510.28098333
    2   -1510.2809833346      1.62E-09 Convergence criterion met
 Total energy in the final basis set = -1510.28098333
   13   -1510.2821691804      2.75E-09 Convergence criterion met
   12   -1510.2834255010      3.47E-09 Convergence criterion met
 Total energy in the final basis set = -1510.28342550
   11   -1510.2834758835      7.13E-09 Convergence criterion met
 Total energy in the final basis set = -1510.28347588
   11   -1510.2835110482      5.18E-09 Convergence criterion met
 Total energy in the final basis set = -1510.28351105
   11   -1510.2835376990      4.38E-09 Convergence criterion met
 Total energy in the final basis set = -1510.28353770
   11   -1510.2835523000      2.20E-09 Convergence criterion met
 Total energy in the final basis set = -1510.28355230
   10   -1510.2835544974      3.96E-09 Convergence criterion met
 Total energy in the final basis set = -1510.28355450

             Standard Nuclear Orientation (Angstroms)
    I     Atom           X                Y                Z
 ----------------------------------------------------------------
    1      O      -4.9846976721     1.5006669641     1.0579318899
    2      C      -5.1268461122     0.6720085225     0.1340403264
    3      C      -4.5973927871    -0.8075157781     0.0778220153
    4      C      -3.1899966255    -0.9634414840    -0.6306595215
    5      C      -2.5577022434     0.4050912663    -1.0647707641
    6      O      -1.1616188108     0.1910293325    -1.2391526490
    7      C      -0.4667581517     1.4279634764    -1.6580842049
    8      C       1.0512543242     1.0535042644    -1.8399171675
    9      O       1.9039400642     1.3746347783    -0.6749530374
   10      C       1.7146080042     0.4331334924     0.3962371919
   11      C       3.0060184172     0.4299788535     1.2967720855
   12      C       4.1948480659    -0.4535707732     0.7322537684
   13      C       3.8669215632    -1.2052396452    -0.6009490110
   14      O       2.7722588807    -1.2680299219    -1.2037562477
   15      O      -5.9237106074     0.8935175751    -1.0398718891
   16      O       5.0550083021    -1.8621191917    -1.0479050421
   17      O       0.6854192455    -0.2482320792     0.5896955809
   18      C       4.7876864861    -2.5929473174    -2.3089196818
   19      C       3.7072979579     1.8555109632     1.3511633942
   20      C       4.7248057091     1.8681229913     2.5599885370
   21      C       5.9030294758     1.0036343913     1.9756724382
   22      C       5.3338789821     0.6426377346     0.5476598536
   23      O       4.5838154872     1.8550635966     0.1564075738
   24      H       2.7090951612     0.0815521948     2.3017896941
   25      H       4.5070277187    -1.2142814226     1.4717111800
   26      H       3.0063713909     2.7114292876     1.3147609809
   27      H       5.0492009585     2.8973444004     2.7810315837
   28      H       4.2881777584     1.4313481941     3.4724012973
   29      H       6.8285924966     1.5936602197     1.8804705355
   30      H       6.1166157427     0.1064652542     2.5786642423
   31      H       6.0918951872     0.3815023900    -0.2162732031
   32      O      -3.1335803683     1.5061344448    -1.2164206411
   33      C      -6.3786506326     2.3003222871    -1.0752451998
   34      C      -4.2674164532    -1.3711133421     1.5232980544
   35      C      -4.1648623283    -2.9455117633     1.4319338460
   36      C      -2.7741452452    -3.1172782403     0.7141352870
   37      C      -2.3294637683    -1.6129065014     0.5413740426
   38      O      -2.8672062469    -0.9471135127     1.7497750275
   39      H      -5.3591794596    -1.4193353786    -0.4369900823
   40      H      -3.2458993308    -1.6255475883    -1.5141232123
   41      H      -5.5186275390     2.9959009526    -1.1603189814
   42      H      -4.9241006585    -0.9808494709     2.3246943965
   43      H      -4.1570068834    -3.3894903260     2.4401196560
   44      H      -4.9976042243    -3.3837820123     0.8587881132
   45      H      -2.0563227716    -3.6614213771     1.3482612196
   46      H      -2.8564593797    -3.6389714966    -0.2527834223
   47      H      -1.2396010470    -1.4229775737     0.4494751844
   48      H      -6.9612502383     2.5671627734    -0.1696588825
   49      H      -7.0208444605     2.3944208630    -1.9703547707
   50      H       5.7401701483    -3.0812987296    -2.5852194878
   51      H       4.4740997857    -1.9045663963    -3.1201221491
   52      H       3.9999617878    -3.3621564278    -2.1750798881
   53      H       1.1358327335    -0.0273547224    -2.0862272496
   54      H       1.4775816774     1.6540682306    -2.6687990858
   55      H      -0.5837796285     2.2325705517    -0.8989954981
   56      H      -0.8853354296     1.8001330845    -2.6193895570
 ----------------------------------------------------------------

    9   -1510.2835546920      3.97E-09 Convergence criterion met
 Total energy in the final basis set = -1510.28355469
 Final energy is   -1510.28355469200
 **  OPTIMIZATION CONVERGED  **

                    Orbital Energies (a.u.)
 --------------------------------------------------------------

 Alpha MOs
 -- Occupied --
-18.946 -18.931 -18.919 -18.912 -18.889 -18.888 -18.872 -18.871
-18.870 -18.852 -10.110 -10.095 -10.094 -10.081 -10.073 -10.069
-10.067 -10.062 -10.059 -10.047 -10.046 -10.043 -10.040 -10.035
-10.027 -10.022 -10.021 -10.020 -10.009 -10.008  -1.023  -1.010
 -0.999  -0.989  -0.971  -0.956  -0.946  -0.933  -0.929  -0.915
 -0.764  -0.751  -0.725  -0.717  -0.710  -0.701  -0.686  -0.669
 -0.646  -0.610  -0.594  -0.574  -0.546  -0.538  -0.532  -0.526
 -0.514  -0.504  -0.485  -0.471  -0.462  -0.447  -0.443  -0.442
 -0.434  -0.420  -0.419  -0.418  -0.412  -0.403  -0.398  -0.394
 -0.393  -0.381  -0.378  -0.362  -0.355  -0.353  -0.348  -0.338
 -0.337  -0.336  -0.332  -0.326  -0.322  -0.320  -0.315  -0.310
 -0.307  -0.303  -0.300  -0.293  -0.289  -0.281  -0.280  -0.266
 -0.263  -0.261  -0.246  -0.241  -0.236  -0.235  -0.220  -0.188
 -0.174  -0.166  -0.164  -0.156  -0.150  -0.145  -0.140  -0.132
 -0.130

          Ground-State Mulliken Net Atomic Charges

     Atom                 Charge (a.u.)
  ----------------------------------------
      1 O                    -0.217943
      2 C                     0.213603
      3 C                    -0.081986
      4 C                    -0.078114
      5 C                     0.214152
      6 O                    -0.165393
      7 C                    -0.047069
      8 C                    -0.048766
      9 O                    -0.176072
     10 C                     0.216416
     11 C                    -0.081063
     12 C                    -0.078542
     13 C                     0.215025
     14 O                    -0.212519
     15 O                    -0.174364
     16 O                    -0.168975
     17 O                    -0.207267
     18 C                    -0.128103
     19 C                     0.026905
     20 C                    -0.144475
     21 C                    -0.143451
     22 C                     0.025227
     23 O                    -0.187148
     24 H                     0.084033
     25 H                     0.087268
     26 H                     0.086892
     27 H                     0.078227
     28 H                     0.074373
     29 H                     0.078213
     30 H                     0.073633
     31 H                     0.086774
     32 O                    -0.213288
     33 C                    -0.128194
     34 C                     0.024739
     35 C                    -0.144282
     36 C                    -0.144708
     37 C                     0.018483
     38 O                    -0.190141
     39 H                     0.081726
     40 H                     0.083164
     41 H                     0.091913
     42 H                     0.084011
     43 H                     0.075452
     44 H                     0.070777
     45 H                     0.076125
     46 H                     0.070438
     47 H                     0.107830
     48 H                     0.085297
     49 H                     0.084563
     50 H                     0.092696
     51 H                     0.090473
     52 H                     0.091044
     53 H                     0.105460
     54 H                     0.088196
     55 H                     0.093149
     56 H                     0.085588
  ----------------------------------------
  Sum of atomic charges =    -0.000000

                    Cartesian Multipole Moments
 -----------------------------------------------------------------
    Charge (ESU x 10^10)
                 0.0000
    Dipole Moment (Debye)
         X       3.0358      Y      -2.2215      Z      -1.4641
       Tot       4.0367
    Quadrupole Moments (Debye-Ang)
        XX    -147.5837     XY      -0.1893     YY    -154.4183
        XZ       6.3548     YZ       1.0869     ZZ    -153.3232

 Total job time:  51.24s(wall), 2439.68s(cpu)
        *  Thank you very much for using Q-Chem.  Have a nice day.  *
