 Q-Chem 5.0, Q-Chem, Inc., Pleasanton, CA (2017)
 Q-Chem 5.0.1 for Intel X86 EM64T Linux

User input:
--------------------------------------------------------------
$molecule
0  1
O -4.9846976721 1.5006669641 1.0579318899
C -5.1268461122 0.6720085225 0.1340403264
C -4.5973927871 -0.8075157781 0.0778220153
C -3.1899966255 -0.963441484 -0.6306595215
C -2.5577022434 0.4050912663 -1.0647707641
O -1.1616188108 0.1910293325 -1.239152649
C -0.4667581517 1.4279634764 -1.6580842049
C 1.0512543242 1.0535042644 -1.8399171675
O 1.9039400642 1.3746347783 -0.6749530374
C 1.7146080042 0.4331334924 0.3962371919
C 3.0060184172 0.4299788535 1.2967720855
C 4.1948480659 -0.4535707732 0.7322537684
C 3.8669215632 -1.2052396452 -0.600949011
O 2.7722588807 -1.2680299219 -1.2037562477
O -5.9237106074 0.8935175751 -1.0398718891
O 5.0550083021 -1.8621191917 -1.0479050421
O 0.6854192455 -0.2482320792 0.5896955809
C 4.7876864861 -2.5929473174 -2.3089196818
C 3.7072979579 1.8555109632 1.3511633942
C 4.7248057091 1.8681229913 2.559988537
C 5.9030294758 1.0036343913 1.9756724382
C 5.3338789821 0.6426377346 0.5476598536
O 4.5838154872 1.8550635966 0.1564075738
H 2.7090951612 0.0815521948 2.3017896941
H 4.5070277187 -1.2142814226 1.47171118
H 3.0063713909 2.7114292876 1.3147609809
H 5.0492009585 2.8973444004 2.7810315837
H 4.2881777584 1.4313481941 3.4724012973
H 6.8285924966 1.5936602197 1.8804705355
H 6.1166157427 0.1064652542 2.5786642423
H 6.0918951872 0.38150239 -0.2162732031
O -3.1335803683 1.5061344448 -1.2164206411
C -6.3786506326 2.3003222871 -1.0752451998
C -4.2674164532 -1.3711133421 1.5232980544
C -4.1648623283 -2.9455117633 1.431933846
C -2.7741452452 -3.1172782403 0.714135287
C -2.3294637683 -1.6129065014 0.5413740426
O -2.8672062469 -0.9471135127 1.7497750275
H -5.3591794596 -1.4193353786 -0.4369900823
H -3.2458993308 -1.6255475883 -1.5141232123
H -5.518627539 2.9959009526 -1.1603189814
H -4.9241006585 -0.9808494709 2.3246943965
H -4.1570068834 -3.389490326 2.440119656
H -4.9976042243 -3.3837820123 0.8587881132
H -2.0563227716 -3.6614213771 1.3482612196
H -2.8564593797 -3.6389714966 -0.2527834223
H -1.239601047 -1.4229775737 0.4494751844
H -6.9612502383 2.5671627734 -0.1696588825
H -7.0208444605 2.394420863 -1.9703547707
H 5.7401701483 -3.0812987296 -2.5852194878
H 4.4740997857 -1.9045663963 -3.1201221491
H 3.9999617878 -3.3621564278 -2.1750798881
H 1.1358327335 -0.0273547224 -2.0862272496
H 1.4775816774 1.6540682306 -2.6687990858
H -0.5837796285 2.2325705517 -0.8989954981
H -0.8853354296 1.8001330845 -2.619389557
$end

$rem
JOBTYPE                   OPT
METHOD                    B3LYP
DFT_D                     d3_op
BASIS                     STO-3G
GEOM_OPT_MAX_CYCLES       100
GEOM_OPT_TOL_GRADIENT     300
GEOM_OPT_TOL_DISPLACEMENT 1200
GEOM_OPT_TOL_ENERGY       100
SYMMETRY                  False
THRESH                    12
SCF_CONVERGENCE           8
MAX_SUB_FILE_NUM          128
MEM_STATIC                400
MEM_TOTAL                 4000
$end
--------------------------------------------------------------

   16   -1510.2834778526      4.15E-09 Convergence criterion met
 Total energy in the final basis set = -1510.28347785
   14   -1510.2857899424      3.06E-09 Convergence criterion met
 Total energy in the final basis set = -1510.28578994
   14   -1510.2877553336      2.34E-09 Convergence criterion met
 Total energy in the final basis set = -1510.28775533
   14   -1510.2883788926      8.51E-09 Convergence criterion met
 Total energy in the final basis set = -1510.28837889
   14   -1510.2895658297      4.79E-09 Convergence criterion met
 Total energy in the final basis set = -1510.28956583
   13   -1510.2905489544      3.64E-09 Convergence criterion met
 Total energy in the final basis set = -1510.29054895
   13   -1510.2915076560      3.51E-09 Convergence criterion met
 Total energy in the final basis set = -1510.29150766
   13   -1510.2927407429      7.31E-09 Convergence criterion met
   12   -1510.3063938319      6.98E-09 Convergence criterion met
 Total energy in the final basis set = -1510.30639383
   11   -1510.3064536543      9.73E-09 Convergence criterion met
 Total energy in the final basis set = -1510.30645365
   10   -1510.3064522206      9.71E-09 Convergence criterion met
 Total energy in the final basis set = -1510.30645222
   10   -1510.3064536575      6.28E-09 Convergence criterion met
 Total energy in the final basis set = -1510.30645366
    9   -1510.3064545730      2.17E-09 Convergence criterion met
 Total energy in the final basis set = -1510.30645457
    9   -1510.3064541286      6.71E-09 Convergence criterion met
 Total energy in the final basis set = -1510.30645413

             Standard Nuclear Orientation (Angstroms)
    I     Atom           X                Y                Z
 ----------------------------------------------------------------
    1      O       1.7279535148    -1.6269504148     2.0593739328
    2      C       2.6311961112    -1.1226501755     1.3558220945
    3      C       2.9265183016     0.4089200898     1.1550928699
    4      C       2.4961372511     0.9789574571    -0.2579047682
    5      C       1.8977102187    -0.1116715095    -1.2082357975
    6      O       1.8460108773     0.4261118682    -2.5320544127
    7      C       1.1823325050    -0.5124059160    -3.4725669601
    8      C      -0.3530941112    -0.1842661778    -3.6180760091
    9      O      -1.0687546463    -0.5786119559    -2.3860450586
   10      C      -1.0661817692     0.5083191594    -1.4470124523
   11      C      -1.3659817438    -0.0219446012     0.0012645063
   12      C      -2.7564450151     0.4422905993     0.5839266937
   13      C      -3.6622779239     1.0574952705    -0.5306528103
   14      O      -3.4281226437     1.0543447290    -1.7620751138
   15      O       3.6672947722    -1.8730812078     0.7121770738
   16      O      -4.8421576968     1.6030764795     0.0589188935
   17      O      -0.6823138108     1.6672434960    -1.7496818458
   18      C      -5.7314992292     2.1476410184    -0.9941516857
   19      C      -1.5008797466    -1.6003632435     0.0986194714
   20      C      -1.2254015986    -2.0216550756     1.5888457183
   21      C      -2.5170715041    -1.4670566540     2.2955688791
   22      C      -3.3534432282    -0.9544234180     1.0525521926
   23      O      -2.9566621465    -1.8513949297    -0.0552004086
   24      H      -0.5345235941     0.3613103386     0.6428577697
   25      H      -2.6563959698     1.1576578425     1.4195078749
   26      H      -0.9222835587    -2.1470353916    -0.6692425252
   27      H      -1.1803526797    -3.1201115895     1.6615584043
   28      H      -0.2730105752    -1.6086231578     1.9697744214
   29      H      -3.0635083821    -2.2602774972     2.8302464342
   30      H      -2.3003055428    -0.6511616352     3.0038653691
   31      H      -4.4529558694    -0.9553198829     1.1866568183
   32      O       1.5148601656    -1.2616136359    -0.8903092942
   33      C       3.3726287971    -3.3200177102     0.8172134283
   34      C       2.0158546822     1.2700415685     2.1212906343
   35      C       2.5785633357     2.7417947364     2.1814546392
   36      C       2.1336202449     3.3007133739     0.7761580514
   37      C       1.3938989621     2.0519107300     0.1648519276
   38      O       0.7594324413     1.4244603514     1.3496254863
   39      H       4.0032782706     0.5799463419     1.3329834151
   40      H       3.3391297491     1.4664463837    -0.7791585554
   41      H       2.4213147915    -3.5700739991     0.3043725010
   42      H       1.8118952140     0.7883497070     3.0971692036
   43      H       2.1072957245     3.3003860826     3.0057752583
   44      H       3.6713411962     2.7617170071     2.3206388547
   45      H       1.4361190376     4.1468331465     0.8814431587
   46      H       2.9861510897     3.6212458700     0.1566375664
   47      H       0.6137015866     2.2298742723    -0.6168966582
   48      H       3.3028697823    -3.6488421132     1.8742576077
   49      H       4.2114994437    -3.8413128705     0.3204152565
   50      H      -6.6124013298     2.5578708721    -0.4669832468
   51      H      -6.0562910869     1.3576807172    -1.7018712509
   52      H      -5.2339380158     2.9542962891    -1.5703040022
   53      H      -0.4881698297     0.9008344978    -3.8140607078
   54      H      -0.7810162767    -0.7830893770    -4.4474333469
   55      H       1.3052049395    -1.5564656470    -3.1128897674
   56      H       1.6881876260    -0.3838016965    -4.4515444359
 ----------------------------------------------------------------

    8   -1510.3064534952      9.16E-09 Convergence criterion met
 Total energy in the final basis set = -1510.30645350
 Final energy is   -1510.30645349522
 **  OPTIMIZATION CONVERGED  **

                    Orbital Energies (a.u.)
 --------------------------------------------------------------

 Alpha MOs
 -- Occupied --
-18.940 -18.936 -18.927 -18.922 -18.896 -18.885 -18.877 -18.868
-18.867 -18.857 -10.106 -10.097 -10.096 -10.090 -10.073 -10.066
-10.063 -10.062 -10.058 -10.047 -10.045 -10.039 -10.036 -10.033
-10.025 -10.021 -10.018 -10.005 -10.002  -9.988  -1.021  -1.011
 -1.004  -0.997  -0.975  -0.951  -0.944  -0.935  -0.930  -0.924
 -0.764  -0.745  -0.725  -0.714  -0.704  -0.700  -0.684  -0.658
 -0.657  -0.614  -0.590  -0.572  -0.545  -0.538  -0.529  -0.517
 -0.511  -0.500  -0.484  -0.470  -0.462  -0.454  -0.449  -0.438
 -0.430  -0.426  -0.417  -0.414  -0.408  -0.406  -0.401  -0.395
 -0.391  -0.378  -0.368  -0.366  -0.358  -0.355  -0.351  -0.345
 -0.343  -0.340  -0.332  -0.328  -0.324  -0.316  -0.313  -0.306
 -0.305  -0.302  -0.293  -0.287  -0.283  -0.277  -0.273  -0.271
 -0.260  -0.254  -0.250  -0.247  -0.235  -0.233  -0.213  -0.191
 -0.177  -0.170  -0.164  -0.154  -0.152  -0.150  -0.148  -0.141
 -0.126

          Ground-State Mulliken Net Atomic Charges

     Atom                 Charge (a.u.)
  ----------------------------------------
      1 O                    -0.219161
      2 C                     0.219069
      3 C                    -0.082248
      4 C                    -0.080155
      5 C                     0.211528
      6 O                    -0.168778
      7 C                    -0.053765
      8 C                    -0.051952
      9 O                    -0.168952
     10 C                     0.217116
     11 C                    -0.099219
     12 C                    -0.078364
     13 C                     0.214602
     14 O                    -0.207220
     15 O                    -0.173086
     16 O                    -0.167997
     17 O                    -0.234237
     18 C                    -0.128116
     19 C                     0.022103
     20 C                    -0.151932
     21 C                    -0.144691
     22 C                     0.024147
     23 O                    -0.196218
     24 H                     0.112766
     25 H                     0.086815
     26 H                     0.091023
     27 H                     0.070018
     28 H                     0.095731
     29 H                     0.072690
     30 H                     0.071419
     31 H                     0.079230
     32 O                    -0.211593
     33 C                    -0.128179
     34 C                     0.026141
     35 C                    -0.143870
     36 C                    -0.143952
     37 C                     0.009618
     38 O                    -0.192905
     39 H                     0.085460
     40 H                     0.088028
     41 H                     0.093983
     42 H                     0.088349
     43 H                     0.078197
     44 H                     0.073710
     45 H                     0.079388
     46 H                     0.074265
     47 H                     0.114817
     48 H                     0.087714
     49 H                     0.087573
     50 H                     0.090856
     51 H                     0.090557
     52 H                     0.090396
     53 H                     0.102121
     54 H                     0.089952
     55 H                     0.098040
     56 H                     0.089165
  ----------------------------------------
  Sum of atomic charges =    -0.000000

                    Cartesian Multipole Moments
 -----------------------------------------------------------------
    Charge (ESU x 10^10)
                -0.0000
    Dipole Moment (Debye)
         X       1.9192      Y       1.1617      Z      -0.0983
       Tot       2.2455
    Quadrupole Moments (Debye-Ang)
        XX    -147.0351     XY      -5.4260     YY    -157.1053
        XZ      -0.1766     YZ       3.5701     ZZ    -152.8747

 Total job time:  126.41s(wall), 6010.97s(cpu)
        *  Thank you very much for using Q-Chem.  Have a nice day.  *
