 Q-Chem 5.0, Q-Chem, Inc., Pleasanton, CA (2017)
 Q-Chem 5.0.1 for Intel X86 EM64T Linux

User input:
--------------------------------------------------------------
$molecule
0  1
O -3.94934 -3.66094 2.70899
C -3.26408 -4.56952 2.26188
C -3.36658 -6.02376 2.66595
C -2.19999 -6.61164 3.47671
C -1.14451 -5.63467 3.94531
O -0.57743 -6.08446 5.10355
C 0.43958 -5.21255 5.60825
C 1.12163 -5.84481 6.81705
O 0.56603 -5.30901 8.02829
C -0.1992 -6.16661 8.74808
C -0.53993 -5.63997 10.12184
C 0.60711 -5.70042 11.14111
C 1.99027 -5.93133 10.56643
O 2.23015 -6.36556 9.44908
O -2.36034 -4.28586 1.2869
O 3.0321 -5.72175 11.41465
O -0.7155 -7.17432 8.28103
C 4.35926 -5.85402 11.06343
C -0.91999 -4.1516 10.16307
C -1.76406 -3.87122 11.40538
C -0.71799 -4.0075 12.49277
C 0.53747 -4.23892 11.64281
O 0.2899 -3.50502 10.46669
H -1.39723 -6.25208 10.48501
H 0.45452 -6.4321 11.96469
H -1.44758 -3.80955 9.2459
H -2.08599 -2.80657 11.35256
H -2.65886 -4.51953 11.52504
H -0.64824 -3.03754 13.0336
H -0.88664 -4.83489 13.21582
H 1.43994 -3.93733 12.21802
O -0.62311 -4.79271 3.2248
C -2.15429 -3.02823 0.75943
C -4.54568 -6.2684 3.63209
C -4.98453 -7.7291 3.56063
C -3.83371 -8.39776 4.27357
C -3.00965 -7.17293 4.68154
O -3.97273 -6.17648 4.90956
H -3.56517 -6.58902 1.72767
H -1.66707 -7.42062 2.93026
H -1.8223 -2.3287 1.55594
H -5.42142 -5.61055 3.43835
H -5.89972 -7.83403 4.1867
H -5.19424 -8.10756 2.53706
H -4.23453 -8.90641 5.17926
H -3.24355 -9.11563 3.66461
H -2.39495 -7.45285 5.56275
H -3.08976 -2.65101 0.29326
H -1.36598 -3.08507 -0.01889
H 4.99349 -5.61941 11.94271
H 4.60833 -5.14442 10.24514
H 4.56924 -6.89424 10.73549
H 1.16365 -6.95574 6.74104
H 2.18018 -5.5053 6.82464
H 0.08303 -4.17878 5.8179
H 1.2304 -5.15665 4.8239
$end

$opt
CONSTRAINT
tors           1           2           3           4    -110.336
tors           3           4           5           6    +151.051
tors           4           5           6           7    +179.737
tors           5           6           7           8    -174.273
tors           6           7           8           9     -98.621
tors           7           8           9          10    +109.545
tors           8           9          10          11    +169.280
tors           9          10          11          12     -75.542
tors          11          12          13          14     -17.609
ENDCONSTRAINT
$end

$rem
JOBTYPE                   OPT
METHOD                    B3LYP
DFT_D                     d3_op
BASIS                     STO-3G
GEOM_OPT_MAX_CYCLES       100
GEOM_OPT_TOL_GRADIENT     300
GEOM_OPT_TOL_DISPLACEMENT 1200
GEOM_OPT_TOL_ENERGY       100
SYMMETRY                  False
THRESH                    12
SCF_CONVERGENCE           8
MAX_SUB_FILE_NUM          128
MEM_STATIC                400
MEM_TOTAL                 4000
$end
--------------------------------------------------------------

   15   -1510.1457927865      8.67E-09 Convergence criterion met
 Total energy in the final basis set = -1510.14579279
   13   -1510.2154914751      8.16E-09 Convergence criterion met
 Total energy in the final basis set = -1510.21549148
   13   -1510.2524788106      9.00E-09 Convergence criterion met
 Total energy in the final basis set = -1510.25247881
   13   -1510.2691765525      9.25E-09 Convergence criterion met
 Total energy in the final basis set = -1510.26917655
   13   -1510.2764257749      6.04E-09 Convergence criterion met
 Total energy in the final basis set = -1510.27642577
   13   -1510.2797445665      2.79E-09 Convergence criterion met
 Total energy in the final basis set = -1510.27974457
   13   -1510.2815125712      2.25E-09 Convergence criterion met
 Total energy in the final basis set = -1510.28151257
   12   -1510.2821667035      7.79E-09 Convergence criterion met
   10   -1510.2826052171      8.64E-09 Convergence criterion met
 Total energy in the final basis set = -1510.28260522
   11   -1510.2826315493      5.48E-09 Convergence criterion met
 Total energy in the final basis set = -1510.28263155
   10   -1510.2826468882      8.30E-09 Convergence criterion met
 Total energy in the final basis set = -1510.28264689
    9   -1510.2826549173      7.65E-09 Convergence criterion met
 Total energy in the final basis set = -1510.28265492
    9   -1510.2826591988      6.17E-09 Convergence criterion met
 Total energy in the final basis set = -1510.28265920
    9   -1510.2826604006      4.51E-09 Convergence criterion met
 Total energy in the final basis set = -1510.28266040

             Standard Nuclear Orientation (Angstroms)
    I     Atom           X                Y                Z
 ----------------------------------------------------------------
    1      O      -4.9939800828    -0.0985981927     2.1855033440
    2      C      -5.1153601254     0.4152125508     1.0530419015
    3      C      -4.8320132174    -0.2584684857    -0.3390476938
    4      C      -3.5639051384     0.3046792149    -1.1022120381
    5      C      -2.6349113694     1.1396214590    -0.1458263552
    6      O      -1.2895784292     1.0492275390    -0.6061861135
    7      C      -0.3802465035     1.8310626190     0.2684619186
    8      C       1.0362287270     1.7864621959    -0.4069874188
    9      O       1.8749594923     0.7493325995     0.2331489838
   10      C       2.0703394467    -0.3544649084    -0.6662846593
   11      C       3.1750096233    -1.3004331287    -0.0752321840
   12      C       4.6574832614    -0.7576884798    -0.2173697823
   13      C       4.7425192142     0.6385909505    -0.9248657771
   14      O       3.8625501313     1.1861633178    -1.6259825707
   15      O      -5.7383880360     1.6840404062     0.7999754412
   16      O       6.0290248219     1.2079906428    -0.6737711348
   17      O       1.4169050739    -0.5340255711    -1.7170080726
   18      C       6.1394943553     2.5246665444    -1.3439613001
   19      C       3.0632016554    -1.4385027420     1.5049597311
   20      C       3.8908412985    -2.7067119221     1.9542171619
   21      C       5.3643884815    -2.1751856132     1.8059796733
   22      C       5.1077709912    -0.6994511124     1.3054992793
   23      O       3.8682187105    -0.3021820983     2.0096309484
   24      H       3.0684500658    -2.2784209325    -0.5770850944
   25      H       5.2863323856    -1.4656885285    -0.7889513464
   26      H       2.0291136126    -1.3853530520     1.8964860151
   27      H       3.6579839740    -2.9674374293     2.9988886296
   28      H       3.6867574778    -3.5826341945     1.3179041534
   29      H       5.8904331703    -2.1652801101     2.7737819800
   30      H       5.9592561103    -2.7603712536     1.0866254566
   31      H       5.9228364770     0.0227885183     1.5044518684
   32      O      -2.9760281007     1.7520640710     0.8917776579
   33      C      -5.9868978235     2.3804676071     2.0806349033
   34      C      -4.4742640483    -1.8014264850    -0.2440949441
   35      C      -4.8339153253    -2.4562027006    -1.6330408473
   36      C      -3.7088920506    -1.8406016924    -2.5470494403
   37      C      -2.8395594019    -1.0538046507    -1.4875708940
   38      O      -2.9924320578    -1.8378629060    -0.2381103194
   39      H      -5.7340784712    -0.1043743647    -0.9587289206
   40      H      -3.8395851068     0.9158990478    -1.9811471555
   41      H      -5.0337439754     2.6304994163     2.5903168539
   42      H      -4.8782724829    -2.3085606208     0.6535867701
   43      H      -4.7464850497    -3.5529885965    -1.5735955233
   44      H      -5.8502645076    -2.1996677597    -1.9722223275
   45      H      -3.1073373640    -2.6230216205    -3.0359274919
   46      H      -4.1130876543    -1.1714927443    -3.3236694495
   47      H      -1.7688880503    -0.9304134864    -1.7419074212
   48      H      -6.6056041086     1.7675987532     2.7679768533
   49      H      -6.5255068272     3.3119310075     1.8265186701
   50      H       7.1443972809     2.9106239824    -1.0923160894
   51      H       5.3669145686     3.2323304833    -0.9799978672
   52      H       6.0416773154     2.4315597248    -2.4449704515
   53      H       0.9194836051     1.5660608505    -1.4898232529
   54      H       1.5557095529     2.7567025118    -0.2651492065
   55      H      -0.3340760008     1.3898523554     1.2885466860
   56      H      -0.7421927899     2.8783034385     0.3616435229
 ----------------------------------------------------------------

    9   -1510.2826606310      3.50E-09 Convergence criterion met
 Total energy in the final basis set = -1510.28266063
 Final energy is   -1510.28266063098
 **  OPTIMIZATION CONVERGED  **

                    Orbital Energies (a.u.)
 --------------------------------------------------------------

 Alpha MOs
 -- Occupied --
-18.943 -18.936 -18.920 -18.915 -18.887 -18.884 -18.878 -18.877
-18.865 -18.856 -10.107 -10.099 -10.093 -10.086 -10.070 -10.070
-10.065 -10.060 -10.058 -10.051 -10.050 -10.049 -10.041 -10.034
-10.034 -10.027 -10.020 -10.018 -10.014 -10.013  -1.020  -1.014
 -1.000  -0.993  -0.969  -0.962  -0.943  -0.938  -0.927  -0.920
 -0.763  -0.756  -0.725  -0.720  -0.712  -0.702  -0.690  -0.667
 -0.649  -0.610  -0.594  -0.574  -0.544  -0.538  -0.536  -0.531
 -0.514  -0.507  -0.486  -0.476  -0.464  -0.450  -0.448  -0.442
 -0.433  -0.425  -0.417  -0.416  -0.412  -0.405  -0.399  -0.396
 -0.396  -0.380  -0.373  -0.363  -0.358  -0.355  -0.350  -0.341
 -0.340  -0.330  -0.330  -0.328  -0.326  -0.324  -0.318  -0.313
 -0.306  -0.305  -0.301  -0.298  -0.293  -0.282  -0.276  -0.270
 -0.267  -0.260  -0.251  -0.241  -0.239  -0.233  -0.227  -0.185
 -0.178  -0.165  -0.161  -0.160  -0.151  -0.146  -0.143  -0.138
 -0.136

          Ground-State Mulliken Net Atomic Charges

     Atom                 Charge (a.u.)
  ----------------------------------------
      1 O                    -0.219098
      2 C                     0.214142
      3 C                    -0.082084
      4 C                    -0.076392
      5 C                     0.213977
      6 O                    -0.169511
      7 C                    -0.047927
      8 C                    -0.050082
      9 O                    -0.174361
     10 C                     0.216109
     11 C                    -0.080699
     12 C                    -0.077932
     13 C                     0.214412
     14 O                    -0.211289
     15 O                    -0.174226
     16 O                    -0.169067
     17 O                    -0.215248
     18 C                    -0.127658
     19 C                     0.026747
     20 C                    -0.144097
     21 C                    -0.143956
     22 C                     0.024399
     23 O                    -0.187468
     24 H                     0.084057
     25 H                     0.086284
     26 H                     0.086879
     27 H                     0.078494
     28 H                     0.074124
     29 H                     0.078125
     30 H                     0.073086
     31 H                     0.088937
     32 O                    -0.211374
     33 C                    -0.127932
     34 C                     0.023018
     35 C                    -0.142815
     36 C                    -0.145179
     37 C                     0.022002
     38 O                    -0.192734
     39 H                     0.082603
     40 H                     0.085791
     41 H                     0.091528
     42 H                     0.087970
     43 H                     0.076725
     44 H                     0.072171
     45 H                     0.078022
     46 H                     0.072334
     47 H                     0.096321
     48 H                     0.085992
     49 H                     0.085243
     50 H                     0.092215
     51 H                     0.091000
     52 H                     0.090220
     53 H                     0.108244
     54 H                     0.086896
     55 H                     0.095145
     56 H                     0.087918
  ----------------------------------------
  Sum of atomic charges =    -0.000000

                    Cartesian Multipole Moments
 -----------------------------------------------------------------
    Charge (ESU x 10^10)
                -0.0000
    Dipole Moment (Debye)
         X       2.2218      Y       0.5402      Z      -1.7040
       Tot       2.8516
    Quadrupole Moments (Debye-Ang)
        XX    -137.9822     XY      -1.0687     YY    -149.1676
        XZ       5.0661     YZ      -0.6274     ZZ    -164.2056

 Total job time:  59.15s(wall), 2429.35s(cpu)
        *  Thank you very much for using Q-Chem.  Have a nice day.  *
