 Q-Chem 5.0, Q-Chem, Inc., Pleasanton, CA (2017)
 Q-Chem 5.0.1 for Intel X86 EM64T Linux

User input:
--------------------------------------------------------------
$molecule
0  1
O -4.9939800828 -0.0985981927 2.185503344
C -5.1153601254 0.4152125508 1.0530419015
C -4.8320132174 -0.2584684857 -0.3390476938
C -3.5639051384 0.3046792149 -1.1022120381
C -2.6349113694 1.139621459 -0.1458263552
O -1.2895784292 1.049227539 -0.6061861135
C -0.3802465035 1.831062619 0.2684619186
C 1.036228727 1.7864621959 -0.4069874188
O 1.8749594923 0.7493325995 0.2331489838
C 2.0703394467 -0.3544649084 -0.6662846593
C 3.1750096233 -1.3004331287 -0.075232184
C 4.6574832614 -0.7576884798 -0.2173697823
C 4.7425192142 0.6385909505 -0.9248657771
O 3.8625501313 1.1861633178 -1.6259825707
O -5.738388036 1.6840404062 0.7999754412
O 6.0290248219 1.2079906428 -0.6737711348
O 1.4169050739 -0.5340255711 -1.7170080726
C 6.1394943553 2.5246665444 -1.3439613001
C 3.0632016554 -1.438502742 1.5049597311
C 3.8908412985 -2.7067119221 1.9542171619
C 5.3643884815 -2.1751856132 1.8059796733
C 5.1077709912 -0.6994511124 1.3054992793
O 3.8682187105 -0.3021820983 2.0096309484
H 3.0684500658 -2.2784209325 -0.5770850944
H 5.2863323856 -1.4656885285 -0.7889513464
H 2.0291136126 -1.385353052 1.8964860151
H 3.657983974 -2.9674374293 2.9988886296
H 3.6867574778 -3.5826341945 1.3179041534
H 5.8904331703 -2.1652801101 2.77378198
H 5.9592561103 -2.7603712536 1.0866254566
H 5.922836477 0.0227885183 1.5044518684
O -2.9760281007 1.752064071 0.8917776579
C -5.9868978235 2.3804676071 2.0806349033
C -4.4742640483 -1.801426485 -0.2440949441
C -4.8339153253 -2.4562027006 -1.6330408473
C -3.7088920506 -1.8406016924 -2.5470494403
C -2.8395594019 -1.0538046507 -1.487570894
O -2.9924320578 -1.837862906 -0.2381103194
H -5.7340784712 -0.1043743647 -0.9587289206
H -3.8395851068 0.9158990478 -1.9811471555
H -5.0337439754 2.6304994163 2.5903168539
H -4.8782724829 -2.3085606208 0.6535867701
H -4.7464850497 -3.5529885965 -1.5735955233
H -5.8502645076 -2.1996677597 -1.9722223275
H -3.107337364 -2.6230216205 -3.0359274919
H -4.1130876543 -1.1714927443 -3.3236694495
H -1.7688880503 -0.9304134864 -1.7419074212
H -6.6056041086 1.7675987532 2.7679768533
H -6.5255068272 3.3119310075 1.8265186701
H 7.1443972809 2.9106239824 -1.0923160894
H 5.3669145686 3.2323304833 -0.9799978672
H 6.0416773154 2.4315597248 -2.4449704515
H 0.9194836051 1.5660608505 -1.4898232529
H 1.5557095529 2.7567025118 -0.2651492065
H -0.3340760008 1.3898523554 1.288546686
H -0.7421927899 2.8783034385 0.3616435229
$end

$rem
JOBTYPE                   OPT
METHOD                    B3LYP
DFT_D                     d3_op
BASIS                     STO-3G
GEOM_OPT_MAX_CYCLES       100
GEOM_OPT_TOL_GRADIENT     300
GEOM_OPT_TOL_DISPLACEMENT 1200
GEOM_OPT_TOL_ENERGY       100
SYMMETRY                  False
THRESH                    12
SCF_CONVERGENCE           8
MAX_SUB_FILE_NUM          128
MEM_STATIC                400
MEM_TOTAL                 4000
$end
--------------------------------------------------------------

   15   -1510.2826445535      9.37E-09 Convergence criterion met
 Total energy in the final basis set = -1510.28264455
   14   -1510.2843391623      1.91E-09 Convergence criterion met
 Total energy in the final basis set = -1510.28433916
   13   -1510.2851135057      8.78E-09 Convergence criterion met
 Total energy in the final basis set = -1510.28511351
   13   -1510.2859237636      6.34E-09 Convergence criterion met
 Total energy in the final basis set = -1510.28592376
   13   -1510.2868094707      5.72E-09 Convergence criterion met
 Total energy in the final basis set = -1510.28680947
   13   -1510.2877500476      9.75E-09 Convergence criterion met
 Total energy in the final basis set = -1510.28775005
   14   -1510.2818535758      4.37E-09 Convergence criterion met
 Total energy in the final basis set = -1510.28185358
   14   -1510.2889655073      2.32E-09 Convergence criterion met
   12   -1510.3049319327      3.14E-09 Convergence criterion met
 Total energy in the final basis set = -1510.30493193
   11   -1510.3049388241      8.61E-09 Convergence criterion met
 Total energy in the final basis set = -1510.30493882
   11   -1510.3049364502      4.25E-09 Convergence criterion met
 Total energy in the final basis set = -1510.30493645
   11   -1510.3049416164      3.60E-09 Convergence criterion met
 Total energy in the final basis set = -1510.30494162
    9   -1510.3049402147      7.04E-09 Convergence criterion met
 Total energy in the final basis set = -1510.30494021
    9   -1510.3049384772      4.28E-09 Convergence criterion met
 Total energy in the final basis set = -1510.30493848

             Standard Nuclear Orientation (Angstroms)
    I     Atom           X                Y                Z
 ----------------------------------------------------------------
    1      O      -2.1713043959    -1.0868361752     2.2721745692
    2      C      -2.9601718255    -0.5708174800     1.4526487174
    3      C      -3.2091704846    -1.0021608391    -0.0409473758
    4      C      -2.6058979715    -0.0094711121    -1.1183496448
    5      C      -1.8539133246     1.2057363489    -0.4832954195
    6      O      -1.6058429276     2.1761798151    -1.4983281396
    7      C      -0.7838090071     3.2956630305    -0.9720279950
    8      C       0.7451439562     3.0539470262    -1.2592925811
    9      O       1.2581920965     1.9445077519    -0.4270512794
   10      C       1.2185849992     0.7145676916    -1.1680089825
   11      C       1.5175025626    -0.4947487512    -0.2120080902
   12      C       3.0481830206    -0.7575510583     0.0786379144
   13      C       3.9701106542     0.2785962885    -0.6435724588
   14      O       3.6208969841     1.1027898466    -1.5206949334
   15      O      -3.9058239765     0.4604564231     1.7731105476
   16      O       5.3060056412     0.1485795690    -0.1581362651
   17      O       0.8225677299     0.6349808180    -2.3571371466
   18      C       6.1885582702     1.1290472980    -0.8333520680
   19      C       0.9695712043    -0.2492877481     1.2586147573
   20      C       0.9020981961    -1.6483876553     1.9827533275
   21      C       2.4244853017    -1.9142363761     2.2810174504
   22      C       3.0845170039    -0.6182348433     1.6636475092
   23      O       2.0922894383     0.4442838135     1.9334335989
   24      H       1.0265877410    -1.3761954172    -0.6624847251
   25      H       3.3557698970    -1.7718253334    -0.2369641101
   26      H       0.0370751011     0.3544775085     1.2958809071
   27      H       0.3059164245    -1.5729854079     2.9055617802
   28      H       0.4476565188    -2.4152024756     1.3356279785
   29      H       2.6239887777    -1.9668520286     3.3632728674
   30      H       2.7989154854    -2.8359981177     1.8077047819
   31      H       4.0785508456    -0.3468073022     2.0693217637
   32      O      -1.5054012506     1.3347420258     0.7157204896
   33      C      -3.6534161364     0.9576885702     3.1433668717
   34      C      -2.4329508954    -2.3386001168    -0.3926701070
   35      C      -3.0383748047    -2.9336110201    -1.7235530452
   36      C      -2.4382439007    -1.9491878419    -2.7969246502
   37      C      -1.5950431512    -0.9752653040    -1.8878372965
   38      O      -1.0959215128    -1.8580187845    -0.8095107526
   39      H      -4.2989144792    -1.1105695411    -0.1868771002
   40      H      -3.3805632243     0.3814857525    -1.8019584318
   41      H      -2.6516359610     1.4287122261     3.2178822719
   42      H      -2.3415873727    -3.0448246218     0.4552945764
   43      H      -2.6852068681    -3.9653300382    -1.8798433613
   44      H      -4.1399989293    -2.9353480115    -1.7141721948
   45      H      -1.7789334869    -2.4772590661    -3.5040225260
   46      H      -3.2150680319    -1.4178873584    -3.3694392125
   47      H      -0.7390227951    -0.4464688287    -2.3698904833
   48      H      -3.7180546231     0.1439495535     3.8944363727
   49      H      -4.4345384691     1.7132762630     3.3461822302
   50      H       7.1793049596     1.0286026210    -0.3534614270
   51      H       5.8153854290     2.1657666196    -0.7085848232
   52      H       6.2782766935     0.9147924528    -1.9181396697
   53      H       0.8892331099     2.8187119147    -2.3354511420
   54      H       1.3170628936     3.9630083371    -0.9822043761
   55      H      -0.9477913717     3.3984740542     0.1218143223
   56      H      -1.1238836604     4.2096993480    -1.5003579334
 ----------------------------------------------------------------

    9   -1510.3049374041      5.83E-09 Convergence criterion met
 Total energy in the final basis set = -1510.30493740
 Final energy is   -1510.30493740414
 **  OPTIMIZATION CONVERGED  **

                    Orbital Energies (a.u.)
 --------------------------------------------------------------

 Alpha MOs
 -- Occupied --
-18.944 -18.940 -18.922 -18.919 -18.887 -18.883 -18.880 -18.869
-18.861 -18.859 -10.108 -10.101 -10.090 -10.090 -10.072 -10.066
-10.065 -10.055 -10.053 -10.047 -10.046 -10.037 -10.031 -10.031
-10.030 -10.017 -10.017 -10.015 -10.004  -9.995  -1.022  -1.015
 -0.999  -0.997  -0.967  -0.953  -0.945  -0.939  -0.925  -0.924
 -0.760  -0.750  -0.723  -0.712  -0.705  -0.698  -0.687  -0.660
 -0.653  -0.613  -0.590  -0.573  -0.541  -0.535  -0.531  -0.518
 -0.508  -0.504  -0.485  -0.471  -0.457  -0.456  -0.448  -0.435
 -0.429  -0.424  -0.417  -0.414  -0.410  -0.404  -0.402  -0.397
 -0.392  -0.379  -0.370  -0.365  -0.359  -0.353  -0.349  -0.343
 -0.341  -0.337  -0.331  -0.327  -0.321  -0.319  -0.316  -0.304
 -0.299  -0.298  -0.298  -0.288  -0.280  -0.278  -0.275  -0.267
 -0.262  -0.255  -0.252  -0.243  -0.235  -0.230  -0.216  -0.190
 -0.181  -0.165  -0.164  -0.156  -0.154  -0.143  -0.142  -0.141
 -0.127

          Ground-State Mulliken Net Atomic Charges

     Atom                 Charge (a.u.)
  ----------------------------------------
      1 O                    -0.218035
      2 C                     0.214816
      3 C                    -0.081625
      4 C                    -0.079306
      5 C                     0.217198
      6 O                    -0.166334
      7 C                    -0.053365
      8 C                    -0.052152
      9 O                    -0.168228
     10 C                     0.217287
     11 C                    -0.086664
     12 C                    -0.079030
     13 C                     0.214923
     14 O                    -0.208784
     15 O                    -0.176489
     16 O                    -0.167576
     17 O                    -0.229424
     18 C                    -0.127824
     19 C                     0.018743
     20 C                    -0.143909
     21 C                    -0.144754
     22 C                     0.024515
     23 O                    -0.192668
     24 H                     0.098291
     25 H                     0.085449
     26 H                     0.101523
     27 H                     0.083491
     28 H                     0.078092
     29 H                     0.074464
     30 H                     0.069623
     31 H                     0.083060
     32 O                    -0.212140
     33 C                    -0.128859
     34 C                     0.024847
     35 C                    -0.144408
     36 C                    -0.144155
     37 C                     0.012233
     38 O                    -0.197823
     39 H                     0.083742
     40 H                     0.087756
     41 H                     0.092333
     42 H                     0.086331
     43 H                     0.076485
     44 H                     0.072503
     45 H                     0.078259
     46 H                     0.073319
     47 H                     0.106612
     48 H                     0.086723
     49 H                     0.086068
     50 H                     0.091793
     51 H                     0.092299
     52 H                     0.089107
     53 H                     0.102497
     54 H                     0.089012
     55 H                     0.100534
     56 H                     0.089623
  ----------------------------------------
  Sum of atomic charges =    -0.000000

                    Cartesian Multipole Moments
 -----------------------------------------------------------------
    Charge (ESU x 10^10)
                 0.0000
    Dipole Moment (Debye)
         X      -0.4406      Y       0.3019      Z      -0.9315
       Tot       1.0738
    Quadrupole Moments (Debye-Ang)
        XX    -141.1353     XY       1.3054     YY    -149.0138
        XZ      -0.6137     YZ       0.5780     ZZ    -163.8323

 Total job time:  115.14s(wall), 5486.07s(cpu)
        *  Thank you very much for using Q-Chem.  Have a nice day.  *
