 Q-Chem 5.0, Q-Chem, Inc., Pleasanton, CA (2017)
 Q-Chem 5.0.1 for Intel X86 EM64T Linux

User input:
--------------------------------------------------------------
$molecule
0  1
O -5.2744348209 -0.0983569461 2.1520139191
C -5.2596591829 0.5137918353 1.063103906
C -5.0607693972 -0.0957070844 -0.3741058277
C -3.6685595825 0.2420927983 -1.0473933592
C -2.6536153426 0.8684827898 -0.0257084149
O -1.3385313008 0.7540396233 -0.5632967643
C -0.3382998149 1.3569645752 0.3521346985
C 0.9848580962 1.562159526 -0.4812783278
O 2.1235289128 0.8249526168 0.1082748226
C 2.1239317246 -0.5272598111 -0.3700492107
C 3.3813046655 -1.2844702014 0.1873592862
C 4.7777289046 -0.5981344876 -0.0953817139
C 4.8025486167 0.4590959458 -1.2516415359
O 3.8523696644 1.0150129461 -1.8425772298
O -5.6174251745 1.8962747105 0.9035128148
O 6.1811817187 0.7321383006 -1.537051586
O 1.2368621031 -1.0082201153 -1.1088432933
C 6.2850329288 1.7549269654 -2.6031241714
C 3.3596282445 -1.2027821467 1.7780514347
C 4.482099988 -2.141459982 2.3769304687
C 5.7715151503 -1.2658393663 2.1544732998
C 5.1638390837 -0.0493921041 1.3530158257
O 3.8661945609 0.1672763686 2.0283369448
H 3.3472361541 -2.3222599362 -0.1871807119
H 5.5108100031 -1.373695358 -0.3839735762
H 2.3549414372 -1.3307144871 2.2257185161
H 4.2980979121 -2.3299960131 3.4464179846
H 4.531638161 -3.1093181766 1.8526630045
H 6.1914139577 -0.918684758 3.1123352841
H 6.5586342658 -1.7934750985 1.5925231965
H 5.7696790193 0.8773468422 1.3544935767
O -2.9138554591 1.3602674103 1.0960973302
C -5.762183772 2.5270313935 2.2332262876
C -5.0236872681 -1.6814467209 -0.3740911623
C -5.3914844064 -2.1728591445 -1.8277323952
C -4.0895273163 -1.7679055819 -2.6152339588
C -3.1790107627 -1.2150752064 -1.4478806513
O -3.5829877141 -2.0110956924 -0.2653297404
H -5.8851990958 0.281585155 -1.0055798244
H -3.7715506899 0.9118878551 -1.9205050284
H -4.7937224854 2.5424841265 2.7741094895
H -5.5900832899 -2.1484843799 0.4549393096
H -5.5430289256 -3.2641428491 -1.8368434181
H -6.2985726528 -1.685843214 -2.219818203
H -3.6169987247 -2.6385381322 -3.0970569434
H -4.2803272177 -1.0006017992 -3.3825237163
H -2.0863181874 -1.2870551396 -1.6146772204
H -6.5085849374 1.9976156202 2.8603058178
H -6.0999194508 3.5634280126 2.0485795511
H 7.3663557449 1.922676205 -2.7607346596
H 5.8012394565 2.7075385727 -2.3049390257
H 5.8221192007 1.4077581351 -3.5495187591
H 0.7976537292 1.2309218193 -1.5253521612
H 1.2862135826 2.6280646806 -0.4744184487
H -0.1426694185 0.6788165921 1.212564745
H -0.7181237835 2.3184516574 0.7584549808
$end

$rem
JOBTYPE                   OPT
METHOD                    B3LYP
DFT_D                     d3_op
BASIS                     STO-3G
GEOM_OPT_MAX_CYCLES       100
GEOM_OPT_TOL_GRADIENT     300
GEOM_OPT_TOL_DISPLACEMENT 1200
GEOM_OPT_TOL_ENERGY       100
SYMMETRY                  False
THRESH                    12
SCF_CONVERGENCE           8
MAX_SUB_FILE_NUM          128
MEM_STATIC                400
MEM_TOTAL                 4000
$end
--------------------------------------------------------------

   16   -1510.2789757371      5.66E-09 Convergence criterion met
 Total energy in the final basis set = -1510.27897574
   13   -1510.2801300805      7.76E-09 Convergence criterion met
 Total energy in the final basis set = -1510.28013008
   13   -1510.2818086875      6.09E-09 Convergence criterion met
 Total energy in the final basis set = -1510.28180869
   13   -1510.2830557970      9.43E-09 Convergence criterion met
 Total energy in the final basis set = -1510.28305580
   13   -1510.2841290290      6.23E-09 Convergence criterion met
 Total energy in the final basis set = -1510.28412903
   13   -1510.2851747199      9.05E-09 Convergence criterion met
 Total energy in the final basis set = -1510.28517472
   13   -1510.2861647782      9.34E-09 Convergence criterion met
 Total energy in the final basis set = -1510.28616478
   13   -1510.2869562766      9.09E-09 Convergence criterion met
   12   -1510.3062076583      6.05E-09 Convergence criterion met
 Total energy in the final basis set = -1510.30620766
   12   -1510.3062245021      5.99E-09 Convergence criterion met
 Total energy in the final basis set = -1510.30622450
   11   -1510.3062461524      9.58E-09 Convergence criterion met
 Total energy in the final basis set = -1510.30624615
   11   -1510.3062502542      5.54E-09 Convergence criterion met
 Total energy in the final basis set = -1510.30625025
   11   -1510.3062512072      2.65E-09 Convergence criterion met
 Total energy in the final basis set = -1510.30625121
    9   -1510.3062528036      4.39E-09 Convergence criterion met
 Total energy in the final basis set = -1510.30625280

             Standard Nuclear Orientation (Angstroms)
    I     Atom           X                Y                Z
 ----------------------------------------------------------------
    1      O       1.8973210420    -1.7485011371     1.8642032209
    2      C       2.7487068057    -1.2002072154     1.1294370291
    3      C       3.0146275505     0.3426633097     0.9839256487
    4      C       2.4912872600     0.9725107106    -0.3720059996
    5      C       1.8464343606    -0.0802815555    -1.3344270769
    6      O       1.7083621230     0.5182703273    -2.6255959357
    7      C       0.9924396039    -0.3806104608    -3.5662698997
    8      C      -0.5498942156    -0.0541942063    -3.6045417047
    9      O      -1.1918271259    -0.5181507416    -2.3564286908
   10      C      -1.1394752782     0.5157397195    -1.3603231631
   11      C      -1.3344988848    -0.1006922673     0.0720893925
   12      C      -2.6872070953     0.3092570873     0.7744173441
   13      C      -3.6732391216     0.9722312230    -0.2397711160
   14      O      -3.5206926617     1.0432814783    -1.4820347299
   15      O       3.7496367838    -1.9068636681     0.3882163781
   16      O      -4.8133030502     1.4720276393     0.4590010140
   17      O      -0.7879123062     1.6945920338    -1.6223981911
   18      C      -5.7792499067     2.0668570278    -0.4947690737
   19      C      -1.4463811465    -1.6835305748     0.0848016892
   20      C      -1.0623762484    -2.1875048176     1.5247301199
   21      C      -2.3040225136    -1.6876393748     2.3518925615
   22      C      -3.2335680192    -1.1206709004     1.2022622231
   23      O      -2.9064957973    -1.9465474055     0.0190634615
   24      H      -0.4657573143     0.2573419507     0.6777280807
   25      H      -2.5375502899     0.9782387504     1.6406511189
   26      H      -0.9184255451    -2.1757041006    -0.7532458242
   27      H      -1.0058680025    -3.2878419809     1.5300141409
   28      H      -0.0884350589    -1.7866980827     1.8625009814
   29      H      -2.8024767984    -2.5138059179     2.8836347470
   30      H      -2.0431921671    -0.9056163319     3.0832079711
   31      H      -4.3206579923    -1.1463906757     1.4131340160
   32      O       1.4924739147    -1.2474341652    -1.0476717618
   33      C       3.4782168030    -3.3610939530     0.4466637101
   34      C       2.1558724809     1.1451375509     2.0439736863
   35      C       2.7051649997     2.6203268125     2.1371642205
   36      C       2.1657517072     3.2375601119     0.7908665466
   37      C       1.4044935011     2.0073944063     0.1685748042
   38      O       0.8525706442     1.3158399160     1.3588413811
   39      H       4.0984631137     0.5200222633     1.1034542923
   40      H       3.2943765147     1.4968319956    -0.9196623905
   41      H       2.5089268520    -3.6037626532    -0.0352831195
   42      H       2.0187282380     0.6165139398     3.0071737964
   43      H       2.2816645732     3.1336823502     3.0150742429
   44      H       3.8043480862     2.6484720848     2.2078088223
   45      H       1.4660473894     4.0671398928     0.9798154439
   46      H       2.9738082600     3.5991149384     0.1355811265
   47      H       0.5742923722     2.2105743532    -0.5531977523
   48      H       3.4574459957    -3.7325251720     1.4915574161
   49      H       4.3012630739    -3.8501000133    -0.1061811051
   50      H      -6.4896757635     2.6575803437     0.1124446088
   51      H      -6.3323036689     1.2790696336    -1.0468080764
   52      H      -5.2728867487     2.7234138661    -1.2303290395
   53      H      -0.6995692856     1.0388251375    -3.7352109551
   54      H      -1.0234635546    -0.6104588557    -4.4388313191
   55      H       1.1394130131    -1.4391981422    -3.2626837872
   56      H       1.4370369939    -0.2047589311    -4.5672936614
 ----------------------------------------------------------------

    9   -1510.3062534637      4.49E-09 Convergence criterion met
 Total energy in the final basis set = -1510.30625346
 Final energy is   -1510.30625346368
 **  OPTIMIZATION CONVERGED  **

                    Orbital Energies (a.u.)
 --------------------------------------------------------------

 Alpha MOs
 -- Occupied --
-18.940 -18.936 -18.927 -18.922 -18.896 -18.885 -18.877 -18.868
-18.866 -18.857 -10.107 -10.097 -10.096 -10.090 -10.073 -10.067
-10.063 -10.062 -10.058 -10.047 -10.045 -10.039 -10.037 -10.033
-10.025 -10.021 -10.018 -10.005 -10.001  -9.988  -1.021  -1.011
 -1.005  -0.997  -0.975  -0.951  -0.944  -0.935  -0.930  -0.924
 -0.764  -0.745  -0.725  -0.714  -0.703  -0.700  -0.684  -0.658
 -0.657  -0.614  -0.590  -0.572  -0.545  -0.538  -0.529  -0.517
 -0.511  -0.500  -0.484  -0.470  -0.462  -0.454  -0.449  -0.438
 -0.430  -0.427  -0.417  -0.414  -0.408  -0.406  -0.401  -0.395
 -0.391  -0.378  -0.368  -0.366  -0.358  -0.355  -0.352  -0.345
 -0.343  -0.340  -0.332  -0.328  -0.324  -0.316  -0.313  -0.306
 -0.305  -0.302  -0.293  -0.287  -0.282  -0.276  -0.273  -0.271
 -0.260  -0.254  -0.250  -0.247  -0.235  -0.233  -0.213  -0.191
 -0.177  -0.170  -0.164  -0.154  -0.152  -0.150  -0.148  -0.141
 -0.126

          Ground-State Mulliken Net Atomic Charges

     Atom                 Charge (a.u.)
  ----------------------------------------
      1 O                    -0.219215
      2 C                     0.219270
      3 C                    -0.082183
      4 C                    -0.080209
      5 C                     0.211567
      6 O                    -0.168882
      7 C                    -0.053860
      8 C                    -0.051947
      9 O                    -0.169223
     10 C                     0.217323
     11 C                    -0.098925
     12 C                    -0.078209
     13 C                     0.214811
     14 O                    -0.207309
     15 O                    -0.172915
     16 O                    -0.168042
     17 O                    -0.234165
     18 C                    -0.129015
     19 C                     0.022117
     20 C                    -0.152341
     21 C                    -0.144672
     22 C                     0.024135
     23 O                    -0.196267
     24 H                     0.112556
     25 H                     0.086913
     26 H                     0.091022
     27 H                     0.069767
     28 H                     0.096145
     29 H                     0.072576
     30 H                     0.071392
     31 H                     0.079216
     32 O                    -0.211655
     33 C                    -0.128232
     34 C                     0.026121
     35 C                    -0.143891
     36 C                    -0.143987
     37 C                     0.009421
     38 O                    -0.192947
     39 H                     0.085435
     40 H                     0.088047
     41 H                     0.093773
     42 H                     0.088359
     43 H                     0.078139
     44 H                     0.073648
     45 H                     0.079404
     46 H                     0.074251
     47 H                     0.114888
     48 H                     0.088148
     49 H                     0.087637
     50 H                     0.090622
     51 H                     0.088009
     52 H                     0.094140
     53 H                     0.101979
     54 H                     0.089927
     55 H                     0.098173
     56 H                     0.089165
  ----------------------------------------
  Sum of atomic charges =    -0.000000

                    Cartesian Multipole Moments
 -----------------------------------------------------------------
    Charge (ESU x 10^10)
                -0.0000
    Dipole Moment (Debye)
         X       1.9291      Y       1.1894      Z      -0.1569
       Tot       2.2717
    Quadrupole Moments (Debye-Ang)
        XX    -147.0238     XY      -5.2118     YY    -157.6369
        XZ      -0.9301     YZ       3.6281     ZZ    -152.4911

 Total job time:  233.32s(wall), 11107.59s(cpu)
        *  Thank you very much for using Q-Chem.  Have a nice day.  *
