 Q-Chem 5.0, Q-Chem, Inc., Pleasanton, CA (2017)
 Q-Chem 5.0.1 for Intel X86 EM64T Linux

User input:
--------------------------------------------------------------
$molecule
0  1
O -3.94934 -3.66094 2.70899
C -3.26408 -4.56952 2.26188
C -3.36658 -6.02376 2.66595
C -2.21739 -6.60169 3.5081
C -1.18165 -5.61623 4.00227
O -0.47423 -6.16478 5.03381
C 0.54665 -5.29833 5.54007
C 1.53461 -6.09057 6.39002
O 1.56765 -5.56005 7.72431
C 0.61975 -6.04083 8.56661
C 0.75708 -5.50758 9.97283
C 2.13886 -5.71249 10.61077
C 3.25841 -6.08093 9.65811
O 3.2082 -5.99794 8.43944
O -2.33631 -4.28304 1.30966
O 4.44351 -6.40339 10.23981
O -0.24619 -6.84413 8.24255
C 5.59171 -6.71515 9.54236
C 0.64033 -3.972 10.06742
C 0.20893 -3.57957 11.47965
C 1.46433 -3.91384 12.26268
C 2.41206 -4.28782 11.11624
O 1.96805 -3.50541 10.03322
H -0.05901 -5.96125 10.58089
H 2.10459 -6.50077 11.39479
H -0.05233 -3.53759 9.31364
H 0.07628 -2.47364 11.47635
H -0.72309 -4.05569 11.85304
H 1.80726 -2.99329 12.78484
H 1.36348 -4.75119 12.98694
H 3.47249 -4.14313 11.4198
O -1.05169 -4.45284 3.64267
C -2.10638 -3.02079 0.80345
C -4.56399 -6.26388 3.61093
C -4.98793 -7.73042 3.5614
C -3.84858 -8.37303 4.31601
C -3.04372 -7.13081 4.7111
O -4.0188 -6.13794 4.89703
H -3.54488 -6.59564 1.72787
H -1.67094 -7.43227 3.00939
H -1.78783 -2.33418 1.61675
H -5.44144 -5.61836 3.38628
H -5.91621 -7.83146 4.16843
H -5.16997 -8.13106 2.54097
H -4.26406 -8.86406 5.22448
H -3.24179 -9.10164 3.73613
H -2.43386 -7.37465 5.6071
H -3.02663 -2.629 0.31978
H -1.29894 -3.07477 0.0448
H 6.4053 -6.93903 10.26236
H 5.90047 -5.85595 8.90927
H 5.42106 -7.60925 8.90522
H 1.40029 -7.19545 6.34595
H 2.54656 -5.91011 5.96388
H 0.11755 -4.42389 6.07931
H 1.14055 -4.90267 4.68088
$end

$opt
CONSTRAINT
tors           1           2           3           4    -108.775
tors           3           4           5           6    +161.928
tors           4           5           6           7    +178.855
tors           5           6           7           8    -163.963
tors           6           7           8           9    -120.738
tors           7           8           9          10     +85.337
tors           8           9          10          11    +176.601
tors           9          10          11          12     -54.260
tors          11          12          13          14     +13.521
ENDCONSTRAINT
$end

$rem
JOBTYPE                   OPT
METHOD                    B3LYP
DFT_D                     d3_op
BASIS                     STO-3G
GEOM_OPT_MAX_CYCLES       100
GEOM_OPT_TOL_GRADIENT     300
GEOM_OPT_TOL_DISPLACEMENT 1200
GEOM_OPT_TOL_ENERGY       100
SYMMETRY                  False
THRESH                    12
SCF_CONVERGENCE           8
MAX_SUB_FILE_NUM          128
MEM_STATIC                400
MEM_TOTAL                 4000
$end
--------------------------------------------------------------

   15   -1510.0925811502      7.71E-09 Convergence criterion met
 Total energy in the final basis set = -1510.09258115
   14   -1510.1709034924      3.83E-09 Convergence criterion met
 Total energy in the final basis set = -1510.17090349
   14   -1510.2206245868      4.64E-09 Convergence criterion met
 Total energy in the final basis set = -1510.22062459
   14   -1510.2484188008      5.22E-09 Convergence criterion met
 Total energy in the final basis set = -1510.24841880
    2   -1510.2484188008      9.43E-10 Convergence criterion met
 Total energy in the final basis set = -1510.24841880
   14   -1510.2620932755      3.55E-09 Convergence criterion met
 Total energy in the final basis set = -1510.26209328
   14   -1510.2686943305      2.75E-09 Convergence criterion met
 Total energy in the final basis set = -1510.26869433
   12   -1510.2719176112      9.39E-09 Convergence criterion met
   11   -1510.2789555542      9.28E-09 Convergence criterion met
 Total energy in the final basis set = -1510.27895555
   11   -1510.2789588739      4.23E-09 Convergence criterion met
 Total energy in the final basis set = -1510.27895887
    9   -1510.2789697439      8.99E-09 Convergence criterion met
 Total energy in the final basis set = -1510.27896974
   10   -1510.2789782557      8.84E-09 Convergence criterion met
 Total energy in the final basis set = -1510.27897826
    9   -1510.2789809754      3.29E-09 Convergence criterion met
 Total energy in the final basis set = -1510.27898098
    9   -1510.2789820037      3.18E-09 Convergence criterion met
 Total energy in the final basis set = -1510.27898200

             Standard Nuclear Orientation (Angstroms)
    I     Atom           X                Y                Z
 ----------------------------------------------------------------
    1      O      -5.2744348209    -0.0983569461     2.1520139191
    2      C      -5.2596591829     0.5137918353     1.0631039060
    3      C      -5.0607693972    -0.0957070844    -0.3741058277
    4      C      -3.6685595825     0.2420927983    -1.0473933592
    5      C      -2.6536153426     0.8684827898    -0.0257084149
    6      O      -1.3385313008     0.7540396233    -0.5632967643
    7      C      -0.3382998149     1.3569645752     0.3521346985
    8      C       0.9848580962     1.5621595260    -0.4812783278
    9      O       2.1235289128     0.8249526168     0.1082748226
   10      C       2.1239317246    -0.5272598111    -0.3700492107
   11      C       3.3813046655    -1.2844702014     0.1873592862
   12      C       4.7777289046    -0.5981344876    -0.0953817139
   13      C       4.8025486167     0.4590959458    -1.2516415359
   14      O       3.8523696644     1.0150129461    -1.8425772298
   15      O      -5.6174251745     1.8962747105     0.9035128148
   16      O       6.1811817187     0.7321383006    -1.5370515860
   17      O       1.2368621031    -1.0082201153    -1.1088432933
   18      C       6.2850329288     1.7549269654    -2.6031241714
   19      C       3.3596282445    -1.2027821467     1.7780514347
   20      C       4.4820999880    -2.1414599820     2.3769304687
   21      C       5.7715151503    -1.2658393663     2.1544732998
   22      C       5.1638390837    -0.0493921041     1.3530158257
   23      O       3.8661945609     0.1672763686     2.0283369448
   24      H       3.3472361541    -2.3222599362    -0.1871807119
   25      H       5.5108100031    -1.3736953580    -0.3839735762
   26      H       2.3549414372    -1.3307144871     2.2257185161
   27      H       4.2980979121    -2.3299960131     3.4464179846
   28      H       4.5316381610    -3.1093181766     1.8526630045
   29      H       6.1914139577    -0.9186847580     3.1123352841
   30      H       6.5586342658    -1.7934750985     1.5925231965
   31      H       5.7696790193     0.8773468422     1.3544935767
   32      O      -2.9138554591     1.3602674103     1.0960973302
   33      C      -5.7621837720     2.5270313935     2.2332262876
   34      C      -5.0236872681    -1.6814467209    -0.3740911623
   35      C      -5.3914844064    -2.1728591445    -1.8277323952
   36      C      -4.0895273163    -1.7679055819    -2.6152339588
   37      C      -3.1790107627    -1.2150752064    -1.4478806513
   38      O      -3.5829877141    -2.0110956924    -0.2653297404
   39      H      -5.8851990958     0.2815851550    -1.0055798244
   40      H      -3.7715506899     0.9118878551    -1.9205050284
   41      H      -4.7937224854     2.5424841265     2.7741094895
   42      H      -5.5900832899    -2.1484843799     0.4549393096
   43      H      -5.5430289256    -3.2641428491    -1.8368434181
   44      H      -6.2985726528    -1.6858432140    -2.2198182030
   45      H      -3.6169987247    -2.6385381322    -3.0970569434
   46      H      -4.2803272177    -1.0006017992    -3.3825237163
   47      H      -2.0863181874    -1.2870551396    -1.6146772204
   48      H      -6.5085849374     1.9976156202     2.8603058178
   49      H      -6.0999194508     3.5634280126     2.0485795511
   50      H       7.3663557449     1.9226762050    -2.7607346596
   51      H       5.8012394565     2.7075385727    -2.3049390257
   52      H       5.8221192007     1.4077581351    -3.5495187591
   53      H       0.7976537292     1.2309218193    -1.5253521612
   54      H       1.2862135826     2.6280646806    -0.4744184487
   55      H      -0.1426694185     0.6788165921     1.2125647450
   56      H      -0.7181237835     2.3184516574     0.7584549808
 ----------------------------------------------------------------

    9   -1510.2789823268      1.54E-09 Convergence criterion met
 Total energy in the final basis set = -1510.27898233
 Final energy is   -1510.27898232680
 **  OPTIMIZATION CONVERGED  **

                    Orbital Energies (a.u.)
 --------------------------------------------------------------

 Alpha MOs
 -- Occupied --
-18.937 -18.936 -18.927 -18.913 -18.891 -18.880 -18.879 -18.879
-18.868 -18.854 -10.103 -10.101 -10.094 -10.084 -10.070 -10.067
-10.067 -10.063 -10.062 -10.052 -10.050 -10.049 -10.040 -10.038
-10.034 -10.026 -10.022 -10.021 -10.014 -10.013  -1.016  -1.014
 -1.004  -0.991  -0.972  -0.963  -0.939  -0.939  -0.929  -0.918
 -0.765  -0.756  -0.727  -0.719  -0.711  -0.703  -0.690  -0.665
 -0.649  -0.612  -0.595  -0.577  -0.547  -0.539  -0.538  -0.531
 -0.514  -0.508  -0.487  -0.472  -0.461  -0.452  -0.448  -0.437
 -0.435  -0.425  -0.424  -0.413  -0.410  -0.406  -0.399  -0.396
 -0.393  -0.378  -0.375  -0.363  -0.358  -0.353  -0.348  -0.343
 -0.339  -0.333  -0.332  -0.330  -0.327  -0.326  -0.319  -0.315
 -0.307  -0.306  -0.302  -0.299  -0.294  -0.285  -0.275  -0.270
 -0.266  -0.258  -0.252  -0.244  -0.238  -0.236  -0.227  -0.182
 -0.179  -0.172  -0.159  -0.155  -0.152  -0.147  -0.144  -0.138
 -0.135

          Ground-State Mulliken Net Atomic Charges

     Atom                 Charge (a.u.)
  ----------------------------------------
      1 O                    -0.219335
      2 C                     0.214987
      3 C                    -0.082234
      4 C                    -0.076722
      5 C                     0.215195
      6 O                    -0.168493
      7 C                    -0.048790
      8 C                    -0.047161
      9 O                    -0.164092
     10 C                     0.211508
     11 C                    -0.079772
     12 C                    -0.079507
     13 C                     0.209913
     14 O                    -0.210387
     15 O                    -0.175927
     16 O                    -0.172331
     17 O                    -0.214306
     18 C                    -0.128818
     19 C                     0.026071
     20 C                    -0.145129
     21 C                    -0.141839
     22 C                     0.027097
     23 O                    -0.184330
     24 H                     0.085758
     25 H                     0.085784
     26 H                     0.083093
     27 H                     0.078975
     28 H                     0.074476
     29 H                     0.078366
     30 H                     0.074456
     31 H                     0.085746
     32 O                    -0.209240
     33 C                    -0.128243
     34 C                     0.023783
     35 C                    -0.143278
     36 C                    -0.144765
     37 C                     0.022742
     38 O                    -0.191552
     39 H                     0.082514
     40 H                     0.085807
     41 H                     0.091246
     42 H                     0.088117
     43 H                     0.076981
     44 H                     0.072196
     45 H                     0.077946
     46 H                     0.072290
     47 H                     0.095015
     48 H                     0.085999
     49 H                     0.084710
     50 H                     0.090575
     51 H                     0.089178
     52 H                     0.089059
     53 H                     0.104027
     54 H                     0.090487
     55 H                     0.090767
     56 H                     0.091384
  ----------------------------------------
  Sum of atomic charges =    -0.000000

                    Cartesian Multipole Moments
 -----------------------------------------------------------------
    Charge (ESU x 10^10)
                 0.0000
    Dipole Moment (Debye)
         X       2.6444      Y       0.7139      Z      -1.8854
       Tot       3.3252
    Quadrupole Moments (Debye-Ang)
        XX    -139.2233     XY      -4.7890     YY    -154.2281
        XZ       6.5761     YZ      -1.5186     ZZ    -159.0084

 Total job time:  71.07s(wall), 3375.19s(cpu)
        *  Thank you very much for using Q-Chem.  Have a nice day.  *
