 Q-Chem 5.0, Q-Chem, Inc., Pleasanton, CA (2017)
 Q-Chem 5.0.1 for Intel X86 EM64T Linux

User input:
--------------------------------------------------------------
$molecule
0  1
O -3.94934 -3.66094 2.70899
C -3.26408 -4.56952 2.26188
C -3.36658 -6.02376 2.66595
C -2.12236 -6.6659 3.30111
C -0.97396 -5.73591 3.62421
O -0.12007 -6.34062 4.50205
C 1.02365 -5.53958 4.81749
C 2.10243 -6.39758 5.47032
O 2.07149 -6.22207 6.89549
C 1.24099 -7.05708 7.56794
C 1.7846 -7.46801 8.91563
C 2.99076 -8.41717 8.86507
C 3.68784 -8.52899 7.52407
O 3.27345 -8.07022 6.46938
O -2.42413 -4.30118 1.22566
O 4.83903 -9.25176 7.50986
O 0.14684 -7.40776 7.1488
C 5.60191 -9.47543 6.38291
C 2.34343 -6.31053 9.7596
C 2.32597 -6.69673 11.23745
C 3.42694 -7.73825 11.27067
C 3.93027 -7.6566 9.82447
O 3.71925 -6.31019 9.46794
H 0.94197 -7.95387 9.45904
H 2.75678 -9.44907 9.20791
H 1.80389 -5.35169 9.59855
H 2.66341 -5.80432 11.81191
H 1.34232 -7.03401 11.62933
H 4.21295 -7.39327 11.97872
H 3.10111 -8.76779 11.53419
H 4.98193 -8.01357 9.76612
O -0.85796 -4.56695 3.27942
C -2.24199 -3.04934 0.67577
C -4.41187 -6.2428 3.77813
C -4.88649 -7.69493 3.77534
C -3.66981 -8.38559 4.34539
C -2.76694 -7.17852 4.61652
O -3.66611 -6.15609 4.96338
H -3.68997 -6.56961 1.7514
H -1.70516 -7.51123 2.71041
H -1.85596 -2.34632 1.44461
H -5.29057 -5.56575 3.70086
H -5.71897 -7.78117 4.51001
H -5.22702 -8.06896 2.78583
H -3.95859 -8.86375 5.30827
H -3.19007 -9.13588 3.68041
H -2.03156 -7.45455 5.40118
H -3.20139 -2.66791 0.26549
H -1.50301 -3.11834 -0.14858
H 6.48281 -10.09165 6.65627
H 5.95661 -8.50956 5.96368
H 5.0066 -10.0204 5.61937
H 1.90914 -7.40079 5.00939
H 3.08562 -5.98923 5.14129
H 0.78784 -4.61173 5.38495
H 1.47714 -5.23472 3.84305
$end

$opt
CONSTRAINT
tors           1           2           3           4    -118.702
tors           3           4           5           6    +162.961
tors           4           5           6           7    +177.735
tors           5           6           7           8    -164.295
tors           6           7           8           9     -99.942
tors           7           8           9          10     +88.579
tors           8           9          10          11    +144.505
tors           9          10          11          12     -70.340
tors          11          12          13          14      -9.792
ENDCONSTRAINT
$end

$rem
JOBTYPE                   OPT
METHOD                    B3LYP
DFT_D                     d3_op
BASIS                     STO-3G
GEOM_OPT_MAX_CYCLES       100
GEOM_OPT_TOL_GRADIENT     300
GEOM_OPT_TOL_DISPLACEMENT 1200
GEOM_OPT_TOL_ENERGY       100
SYMMETRY                  False
THRESH                    12
SCF_CONVERGENCE           8
MAX_SUB_FILE_NUM          128
MEM_STATIC                400
MEM_TOTAL                 4000
$end
--------------------------------------------------------------

   15   -1510.1266268614      6.18E-09 Convergence criterion met
 Total energy in the final basis set = -1510.12662686
   13   -1510.1946073900      9.94E-09 Convergence criterion met
 Total energy in the final basis set = -1510.19460739
   13   -1510.2400123906      9.13E-09 Convergence criterion met
 Total energy in the final basis set = -1510.24001239
   14   -1510.2605262085      5.11E-09 Convergence criterion met
 Total energy in the final basis set = -1510.26052621
   14   -1510.2687476160      4.17E-09 Convergence criterion met
 Total energy in the final basis set = -1510.26874762
   13   -1510.2719782955      4.22E-09 Convergence criterion met
 Total energy in the final basis set = -1510.27197830
   13   -1510.2734365273      3.75E-09 Convergence criterion met
 Total energy in the final basis set = -1510.27343653
   13   -1510.2743166828      2.80E-09 Convergence criterion met
   12   -1510.2765745603      2.81E-09 Convergence criterion met
 Total energy in the final basis set = -1510.27657456
   11   -1510.2766384510      8.07E-09 Convergence criterion met
 Total energy in the final basis set = -1510.27663845
   11   -1510.2766822842      4.52E-09 Convergence criterion met
 Total energy in the final basis set = -1510.27668228
   11   -1510.2767325559      3.97E-09 Convergence criterion met
 Total energy in the final basis set = -1510.27673256
   11   -1510.2767441114      2.66E-09 Convergence criterion met
 Total energy in the final basis set = -1510.27674411
    9   -1510.2767475296      8.64E-09 Convergence criterion met
 Total energy in the final basis set = -1510.27674753

             Standard Nuclear Orientation (Angstroms)
    I     Atom           X                Y                Z
 ----------------------------------------------------------------
    1      O      -5.8489088429     0.1596926956     1.6181543331
    2      C      -5.3778489252     0.6037426341     0.5497471154
    3      C      -4.7861243099    -0.2240544914    -0.6502518399
    4      C      -3.2666480567     0.0688995413    -0.9667005238
    5      C      -2.5540448078     0.7967120689     0.2295082216
    6      O      -1.1502717967     0.6666679290     0.0440810360
    7      C      -0.3914009463     1.3735822258     1.1032360996
    8      C       1.0855784453     1.5074286894     0.5783772532
    9      O       1.9903800098     0.4876164093     1.1531107591
   10      C       1.9893129636    -0.7089940932     0.3465976118
   11      C       3.4277730824    -1.3497828354     0.3360254350
   12      C       4.5203569168    -0.5361250648    -0.4709054819
   13      C       3.9641805954     0.6249411230    -1.3595656688
   14      O       2.7721851239     0.8811217281    -1.6405886834
   15      O      -5.5053149843     1.9677115777     0.1119906658
   16      O       5.0733861587     1.3739930948    -1.8613705001
   17      O       0.9861070706    -1.1555523107    -0.2507819467
   18      C       4.5918812928     2.4778889464    -2.7247019786
   19      C       4.0708728917    -1.3079645067     1.7903164470
   20      C       5.3645886940    -2.2168102138     1.8168727751
   21      C       6.4052692505    -1.2961582971     1.0772669841
   22      C       5.4935058258    -0.0644443329     0.6980531742
   23      O       4.6071904114     0.0714502249     1.8728479839
   24      H       3.3334816208    -2.3795226986    -0.0512014755
   25      H       5.0659364176    -1.2186943301    -1.1493255768
   26      H       3.3522526944    -1.4920326832     2.6120338244
   27      H       5.6700102996    -2.4216917484     2.8550899224
   28      H       5.2059337714    -3.1772385754     1.3004592721
   29      H       7.2150302855    -0.9783104599     1.7535213248
   30      H       6.8512557280    -1.7766311632     0.1917663155
   31      H       6.0277452473     0.8828676519     0.4906050011
   32      O      -3.0913312004     1.3509274614     1.2158586522
   33      C      -6.0279396870     2.7970626414     1.2186126052
   34      C      -4.7511580955    -1.7895398114    -0.3957260152
   35      C      -4.7501773178    -2.4985140573    -1.8041385667
   36      C      -3.2986326174    -2.1498989324    -2.3070926561
   37      C      -2.6977675275    -1.4127149863    -1.0450416057
   38      O      -3.3810190623    -2.0514487372     0.1060054660
   39      H      -5.4027050649     0.0125788327    -1.5365464738
   40      H      -3.1226854124     0.6433121080    -1.8996376052
   41      H      -5.3023776836     2.8472010930     2.0564091612
   42      H      -5.5061413450    -2.1477052823     0.3311892828
   43      H      -4.8833937113    -3.5859087108    -1.6862219373
   44      H      -5.5386262082    -2.1142831119    -2.4707712051
   45      H      -2.7179315016    -3.0571101567    -2.5374653185
   46      H      -3.3037645351    -1.5006120800    -3.1975176629
   47      H      -1.5962318863    -1.4710689261    -0.9308093520
   48      H      -6.9899136966     2.4050144178     1.6079652349
   49      H      -6.1807879053     3.8093559819     0.8011643336
   50      H       5.4970143459     3.0081540467    -3.0733141533
   51      H       3.9425263954     3.1799411310    -2.1629965750
   52      H       4.0250434154     2.0950763978    -3.5978655770
   53      H       1.1035143527     1.4652216634    -0.5312714369
   54      H       1.5034240340     2.4782208132     0.9161481629
   55      H      -0.4107114682     0.7980849832     2.0550513506
   56      H      -0.8378662377     2.3734218699     1.2947112856
 ----------------------------------------------------------------

    9   -1510.2767480820      6.69E-09 Convergence criterion met
 Total energy in the final basis set = -1510.27674808
 Final energy is   -1510.27674808195
 **  OPTIMIZATION CONVERGED  **

                    Orbital Energies (a.u.)
 --------------------------------------------------------------

 Alpha MOs
 -- Occupied --
-18.947 -18.932 -18.914 -18.910 -18.890 -18.889 -18.874 -18.874
-18.874 -18.853 -10.112 -10.096 -10.095 -10.082 -10.074 -10.068
-10.064 -10.063 -10.061 -10.047 -10.047 -10.046 -10.044 -10.037
-10.030 -10.023 -10.022 -10.021 -10.011 -10.010  -1.024  -1.011
 -0.999  -0.989  -0.972  -0.958  -0.948  -0.935  -0.928  -0.916
 -0.766  -0.753  -0.726  -0.718  -0.711  -0.701  -0.687  -0.670
 -0.646  -0.610  -0.596  -0.574  -0.548  -0.539  -0.534  -0.527
 -0.516  -0.504  -0.487  -0.474  -0.465  -0.448  -0.445  -0.443
 -0.435  -0.422  -0.420  -0.415  -0.413  -0.405  -0.398  -0.395
 -0.394  -0.383  -0.378  -0.363  -0.357  -0.352  -0.348  -0.340
 -0.337  -0.335  -0.333  -0.327  -0.325  -0.322  -0.317  -0.313
 -0.308  -0.304  -0.301  -0.297  -0.291  -0.284  -0.280  -0.268
 -0.263  -0.261  -0.246  -0.240  -0.236  -0.236  -0.223  -0.189
 -0.174  -0.167  -0.164  -0.157  -0.150  -0.145  -0.143  -0.135
 -0.132

          Ground-State Mulliken Net Atomic Charges

     Atom                 Charge (a.u.)
  ----------------------------------------
      1 O                    -0.219942
      2 C                     0.215669
      3 C                    -0.082359
      4 C                    -0.076279
      5 C                     0.216219
      6 O                    -0.166294
      7 C                    -0.048393
      8 C                    -0.051243
      9 O                    -0.180324
     10 C                     0.213950
     11 C                    -0.080092
     12 C                    -0.079169
     13 C                     0.214268
     14 O                    -0.214744
     15 O                    -0.177169
     16 O                    -0.168713
     17 O                    -0.202678
     18 C                    -0.128089
     19 C                     0.026719
     20 C                    -0.144974
     21 C                    -0.142769
     22 C                     0.025592
     23 O                    -0.185017
     24 H                     0.083804
     25 H                     0.086794
     26 H                     0.085589
     27 H                     0.078655
     28 H                     0.073978
     29 H                     0.078380
     30 H                     0.073363
     31 H                     0.087755
     32 O                    -0.210847
     33 C                    -0.128352
     34 C                     0.022966
     35 C                    -0.142980
     36 C                    -0.145050
     37 C                     0.021110
     38 O                    -0.192843
     39 H                     0.081523
     40 H                     0.085323
     41 H                     0.090431
     42 H                     0.088226
     43 H                     0.076231
     44 H                     0.071388
     45 H                     0.077287
     46 H                     0.071635
     47 H                     0.100661
     48 H                     0.085940
     49 H                     0.084002
     50 H                     0.093006
     51 H                     0.090297
     52 H                     0.091019
     53 H                     0.109645
     54 H                     0.085843
     55 H                     0.092469
     56 H                     0.088581
  ----------------------------------------
  Sum of atomic charges =    -0.000000

                    Cartesian Multipole Moments
 -----------------------------------------------------------------
    Charge (ESU x 10^10)
                 0.0000
    Dipole Moment (Debye)
         X       3.8437      Y       1.0288      Z      -3.0255
       Tot       4.9986
    Quadrupole Moments (Debye-Ang)
        XX    -149.5281     XY      -5.0048     YY    -150.5839
        XZ       4.6339     YZ      -1.3431     ZZ    -158.6164

 Total job time:  52.93s(wall), 2516.15s(cpu)
        *  Thank you very much for using Q-Chem.  Have a nice day.  *
