 Q-Chem 5.0, Q-Chem, Inc., Pleasanton, CA (2017)
 Q-Chem 5.0.1 for Intel X86 EM64T Linux

User input:
--------------------------------------------------------------
$molecule
0  1
O -5.8489088429 0.1596926956 1.6181543331
C -5.3778489252 0.6037426341 0.5497471154
C -4.7861243099 -0.2240544914 -0.6502518399
C -3.2666480567 0.0688995413 -0.9667005238
C -2.5540448078 0.7967120689 0.2295082216
O -1.1502717967 0.666667929 0.044081036
C -0.3914009463 1.3735822258 1.1032360996
C 1.0855784453 1.5074286894 0.5783772532
O 1.9903800098 0.4876164093 1.1531107591
C 1.9893129636 -0.7089940932 0.3465976118
C 3.4277730824 -1.3497828354 0.336025435
C 4.5203569168 -0.5361250648 -0.4709054819
C 3.9641805954 0.624941123 -1.3595656688
O 2.7721851239 0.8811217281 -1.6405886834
O -5.5053149843 1.9677115777 0.1119906658
O 5.0733861587 1.3739930948 -1.8613705001
O 0.9861070706 -1.1555523107 -0.2507819467
C 4.5918812928 2.4778889464 -2.7247019786
C 4.0708728917 -1.3079645067 1.790316447
C 5.364588694 -2.2168102138 1.8168727751
C 6.4052692505 -1.2961582971 1.0772669841
C 5.4935058258 -0.0644443329 0.6980531742
O 4.6071904114 0.0714502249 1.8728479839
H 3.3334816208 -2.3795226986 -0.0512014755
H 5.0659364176 -1.2186943301 -1.1493255768
H 3.3522526944 -1.4920326832 2.6120338244
H 5.6700102996 -2.4216917484 2.8550899224
H 5.2059337714 -3.1772385754 1.3004592721
H 7.2150302855 -0.9783104599 1.7535213248
H 6.851255728 -1.7766311632 0.1917663155
H 6.0277452473 0.8828676519 0.4906050011
O -3.0913312004 1.3509274614 1.2158586522
C -6.027939687 2.7970626414 1.2186126052
C -4.7511580955 -1.7895398114 -0.3957260152
C -4.7501773178 -2.4985140573 -1.8041385667
C -3.2986326174 -2.1498989324 -2.3070926561
C -2.6977675275 -1.4127149863 -1.0450416057
O -3.3810190623 -2.0514487372 0.106005466
H -5.4027050649 0.0125788327 -1.5365464738
H -3.1226854124 0.643312108 -1.8996376052
H -5.3023776836 2.847201093 2.0564091612
H -5.506141345 -2.1477052823 0.3311892828
H -4.8833937113 -3.5859087108 -1.6862219373
H -5.5386262082 -2.1142831119 -2.4707712051
H -2.7179315016 -3.0571101567 -2.5374653185
H -3.3037645351 -1.50061208 -3.1975176629
H -1.5962318863 -1.4710689261 -0.930809352
H -6.9899136966 2.4050144178 1.6079652349
H -6.1807879053 3.8093559819 0.8011643336
H 5.4970143459 3.0081540467 -3.0733141533
H 3.9425263954 3.179941131 -2.162996575
H 4.0250434154 2.0950763978 -3.597865577
H 1.1035143527 1.4652216634 -0.5312714369
H 1.503424034 2.4782208132 0.9161481629
H -0.4107114682 0.7980849832 2.0550513506
H -0.8378662377 2.3734218699 1.2947112856
$end

$rem
JOBTYPE                   OPT
METHOD                    B3LYP
DFT_D                     d3_op
BASIS                     STO-3G
GEOM_OPT_MAX_CYCLES       100
GEOM_OPT_TOL_GRADIENT     300
GEOM_OPT_TOL_DISPLACEMENT 1200
GEOM_OPT_TOL_ENERGY       100
SYMMETRY                  False
THRESH                    12
SCF_CONVERGENCE           8
MAX_SUB_FILE_NUM          128
MEM_STATIC                400
MEM_TOTAL                 4000
$end
--------------------------------------------------------------

   16   -1510.2767580092      5.01E-09 Convergence criterion met
 Total energy in the final basis set = -1510.27675801
   14   -1510.2802189270      4.10E-09 Convergence criterion met
 Total energy in the final basis set = -1510.28021893
   14   -1510.2835726626      4.83E-09 Convergence criterion met
 Total energy in the final basis set = -1510.28357266
   14   -1510.2854439922      7.30E-09 Convergence criterion met
 Total energy in the final basis set = -1510.28544399
   14   -1510.2872115677      4.67E-09 Convergence criterion met
 Total energy in the final basis set = -1510.28721157
   14   -1510.2882395048      6.89E-09 Convergence criterion met
 Total energy in the final basis set = -1510.28823950
   14   -1510.2891852880      5.46E-09 Convergence criterion met
 Total energy in the final basis set = -1510.28918529
   14   -1510.2903102951      4.19E-09 Convergence criterion met
   12   -1510.3051557345      3.17E-09 Convergence criterion met
 Total energy in the final basis set = -1510.30515573
   13   -1510.3051778815      4.77E-09 Convergence criterion met
 Total energy in the final basis set = -1510.30517788
   12   -1510.3052000255      4.48E-09 Convergence criterion met
 Total energy in the final basis set = -1510.30520003
   11   -1510.3052077723      5.25E-09 Convergence criterion met
 Total energy in the final basis set = -1510.30520777
   11   -1510.3052140709      6.14E-09 Convergence criterion met
 Total energy in the final basis set = -1510.30521407
    9   -1510.3052162247      8.27E-09 Convergence criterion met
 Total energy in the final basis set = -1510.30521622

             Standard Nuclear Orientation (Angstroms)
    I     Atom           X                Y                Z
 ----------------------------------------------------------------
    1      O      -1.7720499107    -1.1750280847     2.3782701172
    2      C      -2.6750070061    -0.7114659495     1.6504706971
    3      C      -3.0436912674    -1.1531720702     0.1856840559
    4      C      -2.6079016298    -0.1259942792    -0.9390990008
    5      C      -1.8870298270     1.1434082618    -0.3764692236
    6      O      -1.7947436687     2.1107801418    -1.4213758712
    7      C      -1.0154962802     3.2971376899    -0.9846136294
    8      C       0.4935597310     3.1681997156    -1.4165725984
    9      O       1.1655214512     2.1236846465    -0.6144691604
   10      C       1.1101037347     0.8623835406    -1.2994964307
   11      C       1.5312238891    -0.2934098731    -0.3198654336
   12      C       3.0841150983    -0.5749437672    -0.2598174012
   13      C       3.8939607056     0.3912397615    -1.1828464270
   14      O       3.4228060359     1.2550556526    -1.9592211444
   15      O      -3.6546486951     0.2453779744     2.0805129516
   16      O       5.2905784979     0.1520501607    -1.0115232611
   17      O       0.6168417007     0.7193728834    -2.4457532143
   18      C       6.0710344478     1.0738839279    -1.8703271147
   19      C       1.2322119716     0.0650086356     1.1972101808
   20      C       1.2736575226    -1.2753896677     2.0288978658
   21      C       2.8220827105    -1.5472858058     2.0988510056
   22      C       3.3800419583    -0.3154607861     1.2834294339
   23      O       2.4544167955     0.7847239538     1.6290559819
   24      H       0.9489798889    -1.1858695360    -0.6213689586
   25      H       3.3272264291    -1.6157834163    -0.5421521589
   26      H       0.3177233789     0.6805338792     1.3343750146
   27      H       0.8389366510    -1.1202312667     3.0285750307
   28      H       0.7140029053    -2.0806378816     1.5277009597
   29      H       3.1930507912    -1.5201016023     3.1358640785
   30      H       3.1092118032    -2.5093167016     1.6454679030
   31      H       4.4290605329    -0.0338378786     1.4996989020
   32      O      -1.4553387752     1.3166639067     0.7887273793
   33      C      -3.3026172279     0.7448185549     3.4277946215
   34      C      -2.2292137323    -2.4417270785    -0.2499434837
   35      C      -2.9243052880    -3.0650022154    -1.5225732555
   36      C      -2.4845950905    -2.0459256281    -2.6408948953
   37      C      -1.6174089334    -1.0260732585    -1.8077320375
   38      O      -0.9684119524    -1.8840892615    -0.7905229652
   39      H      -4.1342741974    -1.3249484060     0.1463005239
   40      H      -3.4683273454     0.2079980308    -1.5456537421
   41      H      -2.3447374901     1.3043270527     3.4073116152
   42      H      -2.0173984400    -3.1450607913     0.5786198297
   43      H      -2.5325896585    -4.0755062073    -1.7201104599
   44      H      -4.0183895372    -3.1266190476    -1.4088373857
   45      H      -1.8653847427    -2.5341288930    -3.4102475235
   46      H      -3.3404809372    -1.5590851814    -3.1351434783
   47      H      -0.8387770047    -0.4448541899    -2.3575931792
   48      H      -3.2130345581    -0.0818715757     4.1618214361
   49      H      -4.1217005005     1.4231099643     3.7297181644
   50      H       7.1347795673     0.8578450037    -1.6611215581
   51      H       5.8519075247     2.1347656708    -1.6327435694
   52      H       5.8615511296     0.9029511445    -2.9461330264
   53      H       0.5525301716     2.9183579659    -2.4974500724
   54      H       1.0169695147     4.1243201900    -1.2117584873
   55      H      -1.0807795316     3.4017305536     0.1194814451
   56      H      -1.4753594971     4.1757964465    -1.4817699349
 ----------------------------------------------------------------

    9   -1510.3052185414      8.28E-09 Convergence criterion met
 Total energy in the final basis set = -1510.30521854
 Final energy is   -1510.30521854140
 **  OPTIMIZATION CONVERGED  **

                    Orbital Energies (a.u.)
 --------------------------------------------------------------

 Alpha MOs
 -- Occupied --
-18.942 -18.940 -18.921 -18.920 -18.887 -18.885 -18.881 -18.870
-18.861 -18.858 -10.108 -10.101 -10.090 -10.090 -10.072 -10.066
-10.065 -10.056 -10.054 -10.048 -10.045 -10.036 -10.032 -10.032
-10.030 -10.017 -10.015 -10.014 -10.005  -9.996  -1.022  -1.015
 -0.999  -0.996  -0.968  -0.954  -0.944  -0.939  -0.924  -0.924
 -0.760  -0.750  -0.723  -0.712  -0.705  -0.698  -0.687  -0.660
 -0.654  -0.613  -0.589  -0.573  -0.541  -0.535  -0.531  -0.518
 -0.508  -0.504  -0.485  -0.471  -0.458  -0.455  -0.447  -0.436
 -0.429  -0.424  -0.418  -0.414  -0.410  -0.403  -0.402  -0.397
 -0.392  -0.379  -0.370  -0.364  -0.359  -0.353  -0.350  -0.343
 -0.341  -0.337  -0.330  -0.326  -0.323  -0.318  -0.316  -0.305
 -0.300  -0.299  -0.298  -0.289  -0.280  -0.278  -0.275  -0.268
 -0.262  -0.255  -0.251  -0.243  -0.234  -0.230  -0.216  -0.190
 -0.181  -0.165  -0.164  -0.155  -0.154  -0.144  -0.142  -0.141
 -0.128

          Ground-State Mulliken Net Atomic Charges

     Atom                 Charge (a.u.)
  ----------------------------------------
      1 O                    -0.218249
      2 C                     0.214667
      3 C                    -0.081778
      4 C                    -0.079465
      5 C                     0.216324
      6 O                    -0.167013
      7 C                    -0.053682
      8 C                    -0.051901
      9 O                    -0.168337
     10 C                     0.217512
     11 C                    -0.090665
     12 C                    -0.079298
     13 C                     0.214860
     14 O                    -0.207267
     15 O                    -0.176033
     16 O                    -0.167708
     17 O                    -0.230573
     18 C                    -0.127940
     19 C                     0.018710
     20 C                    -0.143195
     21 C                    -0.144632
     22 C                     0.024805
     23 O                    -0.192903
     24 H                     0.103397
     25 H                     0.086128
     26 H                     0.100331
     27 H                     0.081046
     28 H                     0.080237
     29 H                     0.074377
     30 H                     0.070294
     31 H                     0.081844
     32 O                    -0.212758
     33 C                    -0.128784
     34 C                     0.025383
     35 C                    -0.144278
     36 C                    -0.144042
     37 C                     0.011390
     38 O                    -0.197864
     39 H                     0.083885
     40 H                     0.087679
     41 H                     0.091738
     42 H                     0.086313
     43 H                     0.076667
     44 H                     0.072573
     45 H                     0.078323
     46 H                     0.073249
     47 H                     0.109340
     48 H                     0.086966
     49 H                     0.086187
     50 H                     0.091742
     51 H                     0.091673
     52 H                     0.089950
     53 H                     0.102208
     54 H                     0.089353
     55 H                     0.099901
     56 H                     0.089313
  ----------------------------------------
  Sum of atomic charges =    -0.000000

                    Cartesian Multipole Moments
 -----------------------------------------------------------------
    Charge (ESU x 10^10)
                -0.0000
    Dipole Moment (Debye)
         X      -0.6701      Y       0.0966      Z      -0.8983
       Tot       1.1249
    Quadrupole Moments (Debye-Ang)
        XX    -142.2715     XY       0.7855     YY    -149.9996
        XZ      -3.5643     YZ      -0.1261     ZZ    -161.9593

 Total job time:  136.09s(wall), 6489.50s(cpu)
        *  Thank you very much for using Q-Chem.  Have a nice day.  *
