 Q-Chem 5.0, Q-Chem, Inc., Pleasanton, CA (2017)
 Q-Chem 5.0.1 for Intel X86 EM64T Linux

User input:
--------------------------------------------------------------
$molecule
0  1
O -5.5755354 -0.0598966932 1.7371731787
C -5.3240678445 0.4898908142 0.6441776004
C -4.8068518456 -0.1970209133 -0.6746555919
C -3.2868606409 0.0809512208 -1.0101927085
C -2.5460465701 0.858429697 0.1306819154
O -1.1719131763 0.9568134216 -0.2300546272
C -0.401452891 1.6898811113 0.8037031106
C 1.0328901749 1.9413233215 0.2116454156
O 2.0037731207 0.9133263204 0.6473995405
C 1.9415176038 -0.2306609181 -0.2188497474
C 3.1177310808 -1.211300542 0.1399343018
C 4.5566184704 -0.6842870655 -0.2561294647
C 4.5478565075 0.612567712 -1.1322346825
O 3.5592966132 1.2676333737 -1.5304610562
O -5.6207261183 1.8611530986 0.3343465513
O 5.9039560667 0.9599398763 -1.4251731201
O 1.0605120962 -0.4184226851 -1.0850422463
C 5.9451639237 2.1932467036 -2.2452579608
C 3.2915593507 -1.3460250573 1.7142122017
C 4.259233745 -2.5573685586 2.0241031121
C 5.6616590673 -1.928443562 1.6842271119
C 5.2293932723 -0.4975543387 1.1758572271
O 4.0982383104 -0.1523357437 2.0628237294
H 2.9011994531 -2.180736414 -0.3417255153
H 5.1057372094 -1.4564359643 -0.8260773241
H 2.3408009762 -1.3488449518 2.2813361131
H 4.1904792231 -2.8438274862 3.0854614334
H 4.027226797 -3.4393450131 1.4057108087
H 6.2923134243 -1.8406251685 2.5833764906
H 6.2129073135 -2.4965172938 0.918173012
H 6.0157322894 0.2812066053 1.2143929877
O -3.0347224553 1.3097091367 1.1915368056
C -6.05571791 2.5641784564 1.5603560691
C -4.8012631975 -1.7797379158 -0.5542879336
C -4.7681634407 -2.3827302768 -2.0118503968
C -3.2829394635 -2.0703478475 -2.4315699489
C -2.7241036858 -1.401010927 -1.1140725383
O -3.4517699478 -2.0940578797 -0.0264133056
H -5.4502877785 0.1427963635 -1.5056788844
H -3.1624539812 0.6351012965 -1.9582251103
H -5.2445354943 2.5887580419 2.3169555906
H -5.5805388443 -2.185254019 0.1196997394
H -4.9587422505 -3.4674830502 -1.9844461596
H -5.5082096588 -1.9103273457 -2.6773423319
H -2.7234872759 -2.9909372927 -2.6617553821
H -3.2186929585 -1.3928036626 -3.2979965012
H -1.6271449519 -1.472392137 -0.9728008317
H -6.9475573466 2.0857716996 2.0150501166
H -6.3058773977 3.5961874006 1.2522997737
H 7.0150690175 2.3991363403 -2.4323636813
H 5.4886231418 3.0523751865 -1.7124807523
H 5.4176647812 2.0581198731 -3.2115968038
H 0.9668033616 1.9878971789 -0.8963051494
H 1.4301189847 2.8999956225 0.6024039912
H -0.3308241029 1.0977185756 1.7430048337
H -0.900450862 2.6543283717 1.0428687991
$end

$rem
JOBTYPE                   OPT
METHOD                    B3LYP
DFT_D                     d3_op
BASIS                     STO-3G
GEOM_OPT_MAX_CYCLES       100
GEOM_OPT_TOL_GRADIENT     300
GEOM_OPT_TOL_DISPLACEMENT 1200
GEOM_OPT_TOL_ENERGY       100
SYMMETRY                  False
THRESH                    12
SCF_CONVERGENCE           8
MAX_SUB_FILE_NUM          128
MEM_STATIC                400
MEM_TOTAL                 4000
$end
--------------------------------------------------------------

   16   -1510.2850218940      5.37E-09 Convergence criterion met
 Total energy in the final basis set = -1510.28502189
   14   -1510.2857568098      6.08E-09 Convergence criterion met
 Total energy in the final basis set = -1510.28575681
   14   -1510.2871798378      6.38E-09 Convergence criterion met
 Total energy in the final basis set = -1510.28717984
   14   -1510.2888414540      3.98E-09 Convergence criterion met
 Total energy in the final basis set = -1510.28884145
   14   -1510.2890931538      5.21E-09 Convergence criterion met
 Total energy in the final basis set = -1510.28909315
   13   -1510.2899291802      6.00E-09 Convergence criterion met
 Total energy in the final basis set = -1510.28992918
   14   -1510.2918209295      3.92E-09 Convergence criterion met
 Total energy in the final basis set = -1510.29182093
   14   -1510.2926924181      6.82E-09 Convergence criterion met
   13   -1510.3051792853      5.68E-09 Convergence criterion met
 Total energy in the final basis set = -1510.30517929
   13   -1510.3047297079      4.73E-09 Convergence criterion met
 Total energy in the final basis set = -1510.30472971
   12   -1510.3052412519      7.41E-09 Convergence criterion met
 Total energy in the final basis set = -1510.30524125
   11   -1510.3052246300      5.61E-09 Convergence criterion met
 Total energy in the final basis set = -1510.30522463
   11   -1510.3052392920      4.91E-09 Convergence criterion met
 Total energy in the final basis set = -1510.30523929
    9   -1510.3052396021      7.89E-09 Convergence criterion met
 Total energy in the final basis set = -1510.30523960

             Standard Nuclear Orientation (Angstroms)
    I     Atom           X                Y                Z
 ----------------------------------------------------------------
    1      O      -2.0167383488    -1.1563345182     2.2757012328
    2      C      -2.8412843109    -0.5952726709     1.5238293538
    3      C      -3.1689431907    -0.9541461581     0.0265803542
    4      C      -2.5974804949     0.0744189847    -1.0341136547
    5      C      -1.8098600788     1.2588634800    -0.3840997205
    6      O      -1.5914945441     2.2623494503    -1.3740932007
    7      C      -0.7428843699     3.3587221293    -0.8419067916
    8      C       0.7724847965     3.1201675960    -1.1972124888
    9      O       1.3102680110     1.9833646245    -0.4194172939
   10      C       1.2089012123     0.7718036268    -1.1840462297
   11      C       1.5141190004    -0.4662344108    -0.2659455608
   12      C       3.0471521891    -0.8088850577    -0.0992928244
   13      C       3.9629911824     0.1888546748    -0.8796154320
   14      O       3.5880580812     1.0855781502    -1.6707763570
   15      O      -3.7613246125     0.4239789655     1.9421441579
   16      O       5.3295871208    -0.0742182293    -0.5628374757
   17      O       0.7650012936     0.7292803245    -2.3583385286
   18      C       6.2095967507     0.8703010241    -1.2907996636
   19      C       1.0961278059    -0.2162118406     1.2457039004
   20      C       1.0235325444    -1.6197010368     1.9622076932
   21      C       2.5506288025    -1.9548893970     2.1397660538
   22      C       3.2163838856    -0.6845293615     1.4790302086
   23      O       2.2987362878     0.4191200869     1.8353030203
   24      H       0.9398182858    -1.3139706637    -0.6837075590
   25      H       3.2785878629    -1.8338624098    -0.4430919072
   26      H       0.1943316115     0.4231748679     1.3588595068
   27      H       0.5058587828    -1.5288725458     2.9298114912
   28      H       0.4857964645    -2.3595413567     1.3485734161
   29      H       2.8309577213    -2.0245189106     3.2029395661
   30      H       2.8459645334    -2.8881429043     1.6341981286
   31      H       4.2510991054    -0.4619563830     1.8051169679
   32      O      -1.4177326374     1.3433297159     0.8050996833
   33      C      -3.4369731809     0.8501980040     3.3211154779
   34      C      -2.4344108298    -2.2866769531    -0.4189119585
   35      C      -3.1080503646    -2.8067687114    -1.7486402216
   36      C      -2.5310215255    -1.7870223139    -2.8017116309
   37      C      -1.6329814369    -0.8705006727    -1.8852935823
   38      O      -1.1069976070    -1.8104452387    -0.8707780340
   39      H      -4.2660704890    -1.0380185358    -0.0719356488
   40      H      -3.3949452176     0.4968188229    -1.6709344770
   41      H      -2.4258649621     1.3041989031     3.3709202482
   42      H      -2.3214701737    -3.0336562967     0.3906851679
   43      H      -2.7869529984    -3.8378443022    -1.9665972110
   44      H      -4.2080034442    -2.7844424485    -1.6917557393
   45      H      -1.9124803182    -2.2950571386    -3.5585800657
   46      H      -3.3191945545    -1.2147330823    -3.3163174188
   47      H      -0.7861441567    -0.3330130925    -2.3750176933
   48      H      -3.4789947763     0.0016866050     4.0344090940
   49      H      -4.1962401272     1.6048967360     3.5972783096
   50      H       7.2428776781     0.6164493007    -0.9909140922
   51      H       5.9902761472     1.9227855924    -1.0183183796
   52      H       6.1033552303     0.7610061608    -2.3895126476
   53      H       0.8733755195     2.9193835136    -2.2851787905
   54      H       1.3602341614     4.0169901511    -0.9137206183
   55      H      -0.8626294727     3.4235117271     0.2605438395
   56      H      -1.0986836534     4.2925869243    -1.3232107643
 ----------------------------------------------------------------

    9   -1510.3052392912      8.07E-09 Convergence criterion met
 Total energy in the final basis set = -1510.30523929
 Final energy is   -1510.30523929124
 **  OPTIMIZATION CONVERGED  **

                    Orbital Energies (a.u.)
 --------------------------------------------------------------

 Alpha MOs
 -- Occupied --
-18.943 -18.940 -18.922 -18.919 -18.887 -18.884 -18.881 -18.870
-18.861 -18.859 -10.108 -10.101 -10.090 -10.090 -10.072 -10.066
-10.065 -10.056 -10.053 -10.047 -10.046 -10.036 -10.031 -10.031
-10.030 -10.017 -10.016 -10.015 -10.005  -9.996  -1.022  -1.015
 -0.999  -0.997  -0.968  -0.953  -0.944  -0.939  -0.925  -0.924
 -0.760  -0.750  -0.723  -0.712  -0.705  -0.698  -0.687  -0.660
 -0.653  -0.613  -0.589  -0.573  -0.541  -0.535  -0.531  -0.518
 -0.508  -0.504  -0.485  -0.471  -0.457  -0.455  -0.448  -0.436
 -0.429  -0.424  -0.417  -0.414  -0.410  -0.404  -0.402  -0.397
 -0.392  -0.379  -0.370  -0.364  -0.359  -0.353  -0.349  -0.343
 -0.341  -0.337  -0.330  -0.327  -0.322  -0.319  -0.316  -0.305
 -0.300  -0.299  -0.298  -0.289  -0.280  -0.278  -0.275  -0.267
 -0.262  -0.255  -0.252  -0.243  -0.235  -0.230  -0.216  -0.190
 -0.181  -0.165  -0.164  -0.155  -0.154  -0.143  -0.142  -0.141
 -0.128

          Ground-State Mulliken Net Atomic Charges

     Atom                 Charge (a.u.)
  ----------------------------------------
      1 O                    -0.218282
      2 C                     0.214764
      3 C                    -0.081690
      4 C                    -0.079465
      5 C                     0.216730
      6 O                    -0.166561
      7 C                    -0.053468
      8 C                    -0.051973
      9 O                    -0.167976
     10 C                     0.217431
     11 C                    -0.088533
     12 C                    -0.079227
     13 C                     0.214840
     14 O                    -0.208031
     15 O                    -0.176267
     16 O                    -0.167703
     17 O                    -0.229896
     18 C                    -0.127861
     19 C                     0.018638
     20 C                    -0.143444
     21 C                    -0.144693
     22 C                     0.024684
     23 O                    -0.192686
     24 H                     0.100765
     25 H                     0.085842
     26 H                     0.101126
     27 H                     0.082453
     28 H                     0.078970
     29 H                     0.074450
     30 H                     0.069979
     31 H                     0.082394
     32 O                    -0.212551
     33 C                    -0.128730
     34 C                     0.025086
     35 C                    -0.144386
     36 C                    -0.144086
     37 C                     0.011791
     38 O                    -0.197896
     39 H                     0.083760
     40 H                     0.087634
     41 H                     0.092220
     42 H                     0.086247
     43 H                     0.076509
     44 H                     0.072519
     45 H                     0.078243
     46 H                     0.073224
     47 H                     0.107977
     48 H                     0.086486
     49 H                     0.086106
     50 H                     0.091760
     51 H                     0.091374
     52 H                     0.090078
     53 H                     0.102344
     54 H                     0.089238
     55 H                     0.100217
     56 H                     0.089525
  ----------------------------------------
  Sum of atomic charges =     0.000000

                    Cartesian Multipole Moments
 -----------------------------------------------------------------
    Charge (ESU x 10^10)
                 0.0000
    Dipole Moment (Debye)
         X      -0.5199      Y       0.2709      Z      -0.9193
       Tot       1.0903
    Quadrupole Moments (Debye-Ang)
        XX    -141.4787     XY       0.8210     YY    -149.6588
        XZ      -2.0719     YZ       0.8451     ZZ    -162.9290

 Total job time:  105.17s(wall), 5014.04s(cpu)
        *  Thank you very much for using Q-Chem.  Have a nice day.  *
