 Q-Chem 5.0, Q-Chem, Inc., Pleasanton, CA (2017)
 Q-Chem 5.0.1 for Intel X86 EM64T Linux

User input:
--------------------------------------------------------------
$molecule
0  1
O -3.94934 -3.66094 2.70899
C -3.26408 -4.56952 2.26188
C -3.36658 -6.02376 2.66595
C -2.24599 -6.58647 3.55561
C -1.24215 -5.58809 4.08818
O -0.37337 -6.21177 4.93769
C 0.61474 -5.32946 5.4803
C 1.67111 -6.12619 6.23887
O 1.3567 -6.14573 7.64017
C 0.49505 -7.11732 8.03095
C 0.35372 -7.20962 9.53168
C 1.58647 -7.75746 10.26548
C 2.87175 -7.79211 9.46326
O 2.99688 -7.41139 8.30829
O -2.30752 -4.27804 1.34071
O 3.9677 -8.25692 10.11905
O -0.17831 -7.7888 7.25999
C 5.22677 -8.34404 9.56311
C 0.16478 -5.86002 10.24766
C -0.52468 -6.08479 11.59237
C 0.58533 -6.76486 12.37092
C 1.73046 -6.67918 11.35453
O 1.46499 -5.49232 10.64285
H -0.53059 -7.85872 9.72796
H 1.41836 -8.7855 10.65575
H -0.3954 -5.11662 9.63939
H -0.70442 -5.07896 12.03552
H -1.48507 -6.64229 11.55122
H 0.80881 -6.15008 13.27094
H 0.38289 -7.81698 12.66718
H 2.7135 -6.72646 11.87265
O -1.2015 -4.38872 3.84251
C -2.05797 -3.01209 0.85363
C -4.58301 -6.27638 3.58728
C -4.98978 -7.7486 3.53143
C -3.85953 -8.38132 4.31165
C -3.08124 -7.13134 4.73188
O -4.07237 -6.14827 4.88991
H -3.51963 -6.60467 1.72891
H -1.666 -7.38272 3.03801
H -1.7605 -2.33462 1.68243
H -5.46173 -5.64025 3.34193
H -5.9285 -7.85579 4.12115
H -5.15019 -8.1553 2.50982
H -4.28923 -8.886 5.20567
H -3.22653 -9.09451 3.74052
H -2.47405 -7.35449 5.63561
H -2.96219 -2.61184 0.34719
H -1.22892 -3.06223 0.11838
H 5.92933 -8.75586 10.31629
H 5.58043 -7.33619 9.25718
H 5.20997 -9.02008 8.68159
H 1.92724 -7.11496 5.79568
H 2.59844 -5.51532 6.18306
H 0.1896 -4.50084 6.09064
H 1.15541 -4.8835 4.61179
$end

$opt
CONSTRAINT
tors           1           2           3           4    -106.366
tors           3           4           5           6    +175.422
tors           4           5           6           7    +179.737
tors           5           6           7           8    -171.205
tors           6           7           8           9     -96.042
tors           7           8           9          10     +85.337
tors           8           9          10          11    +171.964
tors           9          10          11          12     -70.340
tors          11          12          13          14      +0.819
ENDCONSTRAINT
$end

$rem
JOBTYPE                   OPT
METHOD                    B3LYP
DFT_D                     d3_op
BASIS                     STO-3G
GEOM_OPT_MAX_CYCLES       100
GEOM_OPT_TOL_GRADIENT     300
GEOM_OPT_TOL_DISPLACEMENT 1200
GEOM_OPT_TOL_ENERGY       100
SYMMETRY                  False
THRESH                    12
SCF_CONVERGENCE           8
MAX_SUB_FILE_NUM          128
MEM_STATIC                400
MEM_TOTAL                 4000
$end
--------------------------------------------------------------

   15   -1510.1449231732      6.28E-09 Convergence criterion met
 Total energy in the final basis set = -1510.14492317
   14   -1510.2127113429      5.50E-09 Convergence criterion met
 Total energy in the final basis set = -1510.21271134
   13   -1510.2531501486      9.40E-09 Convergence criterion met
 Total energy in the final basis set = -1510.25315015
   14   -1510.2718392951      5.99E-09 Convergence criterion met
 Total energy in the final basis set = -1510.27183930
   14   -1510.2785985699      3.60E-09 Convergence criterion met
 Total energy in the final basis set = -1510.27859857
    2   -1510.2785985699      1.28E-09 Convergence criterion met
 Total energy in the final basis set = -1510.27859857
   13   -1510.2813028428      4.13E-09 Convergence criterion met
 Total energy in the final basis set = -1510.28130284
   13   -1510.2826334786      3.55E-09 Convergence criterion met
   11   -1510.2848472182      7.03E-09 Convergence criterion met
 Total energy in the final basis set = -1510.28484722
   11   -1510.2849018046      5.19E-09 Convergence criterion met
 Total energy in the final basis set = -1510.28490180
   11   -1510.2849506294      3.32E-09 Convergence criterion met
 Total energy in the final basis set = -1510.28495063
   11   -1510.2849697415      2.27E-09 Convergence criterion met
 Total energy in the final basis set = -1510.28496974
   11   -1510.2849782989      2.75E-09 Convergence criterion met
 Total energy in the final basis set = -1510.28497830
    9   -1510.2849803869      4.90E-09 Convergence criterion met
 Total energy in the final basis set = -1510.28498039

             Standard Nuclear Orientation (Angstroms)
    I     Atom           X                Y                Z
 ----------------------------------------------------------------
    1      O      -5.5755354000    -0.0598966932     1.7371731787
    2      C      -5.3240678445     0.4898908142     0.6441776004
    3      C      -4.8068518456    -0.1970209133    -0.6746555919
    4      C      -3.2868606409     0.0809512208    -1.0101927085
    5      C      -2.5460465701     0.8584296970     0.1306819154
    6      O      -1.1719131763     0.9568134216    -0.2300546272
    7      C      -0.4014528910     1.6898811113     0.8037031106
    8      C       1.0328901749     1.9413233215     0.2116454156
    9      O       2.0037731207     0.9133263204     0.6473995405
   10      C       1.9415176038    -0.2306609181    -0.2188497474
   11      C       3.1177310808    -1.2113005420     0.1399343018
   12      C       4.5566184704    -0.6842870655    -0.2561294647
   13      C       4.5478565075     0.6125677120    -1.1322346825
   14      O       3.5592966132     1.2676333737    -1.5304610562
   15      O      -5.6207261183     1.8611530986     0.3343465513
   16      O       5.9039560667     0.9599398763    -1.4251731201
   17      O       1.0605120962    -0.4184226851    -1.0850422463
   18      C       5.9451639237     2.1932467036    -2.2452579608
   19      C       3.2915593507    -1.3460250573     1.7142122017
   20      C       4.2592337450    -2.5573685586     2.0241031121
   21      C       5.6616590673    -1.9284435620     1.6842271119
   22      C       5.2293932723    -0.4975543387     1.1758572271
   23      O       4.0982383104    -0.1523357437     2.0628237294
   24      H       2.9011994531    -2.1807364140    -0.3417255153
   25      H       5.1057372094    -1.4564359643    -0.8260773241
   26      H       2.3408009762    -1.3488449518     2.2813361131
   27      H       4.1904792231    -2.8438274862     3.0854614334
   28      H       4.0272267970    -3.4393450131     1.4057108087
   29      H       6.2923134243    -1.8406251685     2.5833764906
   30      H       6.2129073135    -2.4965172938     0.9181730120
   31      H       6.0157322894     0.2812066053     1.2143929877
   32      O      -3.0347224553     1.3097091367     1.1915368056
   33      C      -6.0557179100     2.5641784564     1.5603560691
   34      C      -4.8012631975    -1.7797379158    -0.5542879336
   35      C      -4.7681634407    -2.3827302768    -2.0118503968
   36      C      -3.2829394635    -2.0703478475    -2.4315699489
   37      C      -2.7241036858    -1.4010109270    -1.1140725383
   38      O      -3.4517699478    -2.0940578797    -0.0264133056
   39      H      -5.4502877785     0.1427963635    -1.5056788844
   40      H      -3.1624539812     0.6351012965    -1.9582251103
   41      H      -5.2445354943     2.5887580419     2.3169555906
   42      H      -5.5805388443    -2.1852540190     0.1196997394
   43      H      -4.9587422505    -3.4674830502    -1.9844461596
   44      H      -5.5082096588    -1.9103273457    -2.6773423319
   45      H      -2.7234872759    -2.9909372927    -2.6617553821
   46      H      -3.2186929585    -1.3928036626    -3.2979965012
   47      H      -1.6271449519    -1.4723921370    -0.9728008317
   48      H      -6.9475573466     2.0857716996     2.0150501166
   49      H      -6.3058773977     3.5961874006     1.2522997737
   50      H       7.0150690175     2.3991363403    -2.4323636813
   51      H       5.4886231418     3.0523751865    -1.7124807523
   52      H       5.4176647812     2.0581198731    -3.2115968038
   53      H       0.9668033616     1.9878971789    -0.8963051494
   54      H       1.4301189847     2.8999956225     0.6024039912
   55      H      -0.3308241029     1.0977185756     1.7430048337
   56      H      -0.9004508620     2.6543283717     1.0428687991
 ----------------------------------------------------------------

    9   -1510.2849861557      3.46E-09 Convergence criterion met
 Total energy in the final basis set = -1510.28498616
 Final energy is   -1510.28498615574
 **  OPTIMIZATION CONVERGED  **

                    Orbital Energies (a.u.)
 --------------------------------------------------------------

 Alpha MOs
 -- Occupied --
-18.942 -18.934 -18.922 -18.912 -18.890 -18.885 -18.878 -18.877
-18.865 -18.853 -10.107 -10.098 -10.092 -10.083 -10.071 -10.070
-10.068 -10.062 -10.060 -10.051 -10.049 -10.048 -10.041 -10.035
-10.032 -10.025 -10.022 -10.020 -10.013 -10.012  -1.020  -1.013
 -1.000  -0.990  -0.971  -0.962  -0.943  -0.937  -0.927  -0.917
 -0.764  -0.755  -0.726  -0.719  -0.711  -0.703  -0.690  -0.667
 -0.648  -0.612  -0.595  -0.575  -0.547  -0.538  -0.537  -0.530
 -0.514  -0.507  -0.486  -0.473  -0.463  -0.450  -0.446  -0.441
 -0.434  -0.424  -0.419  -0.416  -0.412  -0.407  -0.399  -0.396
 -0.392  -0.380  -0.376  -0.362  -0.358  -0.352  -0.349  -0.341
 -0.337  -0.333  -0.332  -0.329  -0.327  -0.325  -0.317  -0.315
 -0.306  -0.305  -0.301  -0.298  -0.293  -0.283  -0.277  -0.269
 -0.265  -0.261  -0.249  -0.242  -0.238  -0.235  -0.226  -0.186
 -0.177  -0.167  -0.160  -0.158  -0.153  -0.145  -0.142  -0.137
 -0.134

          Ground-State Mulliken Net Atomic Charges

     Atom                 Charge (a.u.)
  ----------------------------------------
      1 O                    -0.218682
      2 C                     0.215562
      3 C                    -0.082305
      4 C                    -0.076860
      5 C                     0.214522
      6 O                    -0.166210
      7 C                    -0.048774
      8 C                    -0.046403
      9 O                    -0.170580
     10 C                     0.213522
     11 C                    -0.080839
     12 C                    -0.079056
     13 C                     0.212905
     14 O                    -0.210380
     15 O                    -0.176867
     16 O                    -0.170121
     17 O                    -0.213620
     18 C                    -0.128269
     19 C                     0.026621
     20 C                    -0.144798
     21 C                    -0.142831
     22 C                     0.026108
     23 O                    -0.185248
     24 H                     0.083977
     25 H                     0.086064
     26 H                     0.084585
     27 H                     0.078518
     28 H                     0.074048
     29 H                     0.078306
     30 H                     0.073758
     31 H                     0.086306
     32 O                    -0.209713
     33 C                    -0.128291
     34 C                     0.024288
     35 C                    -0.143916
     36 C                    -0.143825
     37 C                     0.023694
     38 O                    -0.191590
     39 H                     0.082386
     40 H                     0.086728
     41 H                     0.091345
     42 H                     0.087533
     43 H                     0.076472
     44 H                     0.072050
     45 H                     0.077418
     46 H                     0.073333
     47 H                     0.093501
     48 H                     0.085488
     49 H                     0.084458
     50 H                     0.091856
     51 H                     0.090282
     52 H                     0.090298
     53 H                     0.103816
     54 H                     0.089226
     55 H                     0.091188
     56 H                     0.089020
  ----------------------------------------
  Sum of atomic charges =    -0.000000

                    Cartesian Multipole Moments
 -----------------------------------------------------------------
    Charge (ESU x 10^10)
                -0.0000
    Dipole Moment (Debye)
         X       3.1804      Y       0.6046      Z      -2.2185
       Tot       3.9246
    Quadrupole Moments (Debye-Ang)
        XX    -145.8600     XY      -4.4577     YY    -150.2082
        XZ       5.1290     YZ       0.4699     ZZ    -160.7392

 Total job time:  54.25s(wall), 2579.82s(cpu)
        *  Thank you very much for using Q-Chem.  Have a nice day.  *
