 Q-Chem 5.0, Q-Chem, Inc., Pleasanton, CA (2017)
 Q-Chem 5.0.1 for Intel X86 EM64T Linux

User input:
--------------------------------------------------------------
$molecule
0  1
O -3.94934 -3.66094 2.70899
C -3.26408 -4.56952 2.26188
C -3.36658 -6.02376 2.66595
C -2.14342 -6.64905 3.35641
C -1.02126 -5.70436 3.72576
O -0.34934 -6.18481 4.81348
C 0.73565 -5.34477 5.22138
C 1.52254 -6.01109 6.34519
O 1.132 -5.45693 7.6114
C 0.04006 -6.02223 8.18344
C -0.25693 -5.46986 9.55725
C 0.74604 -5.87338 10.6479
C 2.05861 -6.45083 10.1576
O 2.30512 -6.77107 9.0038
O -2.41247 -4.29726 1.23648
O 3.00329 -6.67338 11.10951
O -0.70026 -6.8137 7.6143
C 4.25001 -7.20663 10.85783
C -0.20539 -3.93548 9.65113
C -1.04214 -3.46483 10.83924
C -0.17996 -3.93242 11.99506
C 1.03522 -4.47503 11.23308
O 1.10483 -3.66364 10.08378
H -1.27852 -5.82382 9.82677
H 0.32599 -6.58276 11.3945
H -0.53205 -3.429 8.71656
H -1.03761 -2.35132 10.82
H -2.09285 -3.8263 10.85497
H 0.10246 -3.04369 12.60213
H -0.63603 -4.70988 12.64556
H 1.93319 -4.46292 11.88908
O -0.79045 -4.61404 3.21979
C -2.22515 -3.04351 0.69261
C -4.46393 -6.24731 3.72615
C -4.9372 -7.69812 3.69232
C -3.74345 -8.39045 4.30312
C -2.86038 -7.18162 4.63293
O -3.77783 -6.16619 4.94605
H -3.64724 -6.57413 1.74
H -1.68753 -7.49956 2.80367
H -1.84857 -2.34256 1.46801
H -5.33937 -5.57131 3.61078
H -5.7972 -7.78738 4.39436
H -5.24031 -8.06739 2.68894
H -4.07336 -8.88989 5.24176
H -3.22811 -9.12422 3.64643
H -2.17624 -7.47781 5.45418
H -3.18014 -2.66165 0.27256
H -1.4767 -3.1093 -0.12343
H 4.81449 -7.27717 11.81012
H 4.81108 -6.5524 10.15667
H 4.15077 -8.22469 10.42418
H 1.5713 -7.12245 6.30329
H 2.56958 -5.6591 6.21938
H 0.42871 -4.3076 5.48731
H 1.43309 -5.29004 4.3521
$end

$opt
CONSTRAINT
tors           1           2           3           4    -116.124
tors           3           4           5           6    +151.610
tors           4           5           6           7    +179.737
tors           5           6           7           8    -174.273
tors           6           7           8           9    -100.055
tors           7           8           9          10     +85.337
tors           8           9          10          11    +175.602
tors           9          10          11          12     -70.340
tors          11          12          13          14      -9.792
ENDCONSTRAINT
$end

$rem
JOBTYPE                   OPT
METHOD                    B3LYP
DFT_D                     d3_op
BASIS                     STO-3G
GEOM_OPT_MAX_CYCLES       100
GEOM_OPT_TOL_GRADIENT     300
GEOM_OPT_TOL_DISPLACEMENT 1200
GEOM_OPT_TOL_ENERGY       100
SYMMETRY                  False
THRESH                    12
SCF_CONVERGENCE           8
MAX_SUB_FILE_NUM          128
MEM_STATIC                400
MEM_TOTAL                 4000
$end
--------------------------------------------------------------

   15   -1510.1446715902      7.35E-09 Convergence criterion met
 Total energy in the final basis set = -1510.14467159
   14   -1510.2140042729      4.11E-09 Convergence criterion met
 Total energy in the final basis set = -1510.21400427
   14   -1510.2512907702      7.63E-09 Convergence criterion met
 Total energy in the final basis set = -1510.25129077
   14   -1510.2702742203      6.02E-09 Convergence criterion met
 Total energy in the final basis set = -1510.27027422
   14   -1510.2771001022      4.33E-09 Convergence criterion met
 Total energy in the final basis set = -1510.27710010
   13   -1510.2799960728      4.25E-09 Convergence criterion met
 Total energy in the final basis set = -1510.27999607
   13   -1510.2815353856      3.61E-09 Convergence criterion met
 Total energy in the final basis set = -1510.28153539
   12   -1510.2823019898      8.18E-09 Convergence criterion met
   11   -1510.2835748155      5.62E-09 Convergence criterion met
 Total energy in the final basis set = -1510.28357482
   10   -1510.2836182330      9.86E-09 Convergence criterion met
 Total energy in the final basis set = -1510.28361823
   11   -1510.2836546502      3.14E-09 Convergence criterion met
 Total energy in the final basis set = -1510.28365465
   10   -1510.2836778543      9.08E-09 Convergence criterion met
 Total energy in the final basis set = -1510.28367785
    9   -1510.2836861006      8.01E-09 Convergence criterion met
 Total energy in the final basis set = -1510.28368610
    9   -1510.2836874892      4.30E-09 Convergence criterion met
 Total energy in the final basis set = -1510.28368749

             Standard Nuclear Orientation (Angstroms)
    I     Atom           X                Y                Z
 ----------------------------------------------------------------
    1      O       5.1632264904    -0.9772795028    -1.7619690890
    2      C       5.1377298872    -0.0449231575    -0.9305868776
    3      C       4.6566187662    -0.1080682071     0.5638823660
    4      C       3.3886114302     0.7812669623     0.8842627601
    5      C       2.5962060439     1.1604936796    -0.4228194718
    6      O       1.2324345155     1.3381236125    -0.0580586005
    7      C       0.3837055321     1.7062456064    -1.2129173198
    8      C      -1.0393565264     2.0068091586    -0.6119168074
    9      O      -1.9574379120     0.8601836668    -0.7861927079
   10      C      -1.7799396415    -0.0704508744     0.2974133200
   11      C      -2.8361465581    -1.2259833257     0.1635706981
   12      C      -4.3305765681    -0.7945816431     0.4605205514
   13      C      -4.4707276699     0.6780570669     0.9748811326
   14      O      -3.5545783676     1.4547802560     1.3253843755
   15      O       5.7380274868     1.2431255254    -1.1395532402
   16      O      -5.8599134994     1.0127796324     1.0113149725
   17      O      -0.8838692584     0.0142609381     1.1651652654
   18      C      -6.0365976503     2.3986568717     1.5041808615
   19      C      -2.9736419353    -1.7152424563    -1.3426425241
   20      C      -3.7578496974    -3.0878147679    -1.3605945638
   21      C      -5.2339393646    -2.6017564337    -1.1130195492
   22      C      -5.0151016533    -1.0463159020    -0.9532554623
   23      O      -3.9380662204    -0.7521226853    -1.9235467805
   24      H      -2.5163116831    -2.0415551675     0.8355212609
   25      H      -4.7822622542    -1.4541654913     1.2248433086
   26      H      -2.0263584438    -1.7078840758    -1.9152958800
   27      H      -3.6524188781    -3.5799566432    -2.3404058449
   28      H      -3.4008326293    -3.7779502911    -0.5794366299
   29      H      -5.8784347099    -2.8100631227    -1.9819795768
   30      H      -5.6896118213    -3.0539103881    -0.2176846450
   31      H      -5.9048372659    -0.4157481046    -1.1452003684
   32      O       3.0272013332     1.2295728936    -1.5958242152
   33      C       6.1526169428     1.3755705161    -2.5530365505
   34      C       4.1568942999    -1.5410470991     1.0248491130
   35      C       4.3332682928    -1.6171203986     2.5907331479
   36      C       3.2023523580    -0.6269374046     3.0600777172
   37      C       2.5051596268    -0.2698871404     1.6886394249
   38      O       2.6854283512    -1.4890619226     0.8621156320
   39      H       5.5063021434     0.2240800816     1.1877963224
   40      H       3.6357148761     1.6915976149     1.4597873766
   41      H       5.2727460860     1.3633998130    -3.2286653149
   42      H       4.5843999034    -2.3803953646     0.4424698943
   43      H       4.1433683991    -2.6418334052     2.9485173882
   44      H       5.3389339790    -1.3076482555     2.9177602898
   45      H       2.4879284378    -1.1182216338     3.7391876895
   46      H       3.6045941269     0.2681679701     3.5615151400
   47      H       1.4301889315    -0.0008204921     1.7419057132
   48      H       6.8435445471     0.5627014347    -2.8571695165
   49      H       6.6671283615     2.3507500055    -2.6341602296
   50      H      -7.1270883627     2.5794185450     1.5195468974
   51      H      -5.5473788542     3.1345482360     0.8338613546
   52      H      -5.6242851390     2.5241020626     2.5262013209
   53      H      -0.9276204743     2.2732555434     0.4604812670
   54      H      -1.5105635317     2.8468920734    -1.1609958257
   55      H       0.3245131186     0.8761927510    -1.9515717582
   56      H       0.7939284585     2.6010922631    -1.7302541573
 ----------------------------------------------------------------

    9   -1510.2836882130      2.35E-09 Convergence criterion met
 Total energy in the final basis set = -1510.28368821
 Final energy is   -1510.28368821303
 **  OPTIMIZATION CONVERGED  **

                    Orbital Energies (a.u.)
 --------------------------------------------------------------

 Alpha MOs
 -- Occupied --
-18.942 -18.933 -18.923 -18.913 -18.888 -18.884 -18.875 -18.873
-18.866 -18.856 -10.106 -10.097 -10.093 -10.084 -10.071 -10.070
-10.068 -10.061 -10.059 -10.048 -10.047 -10.043 -10.040 -10.034
-10.030 -10.024 -10.020 -10.019 -10.011 -10.010  -1.019  -1.013
 -1.000  -0.992  -0.970  -0.958  -0.943  -0.936  -0.927  -0.918
 -0.763  -0.753  -0.725  -0.718  -0.710  -0.701  -0.687  -0.667
 -0.648  -0.611  -0.593  -0.575  -0.545  -0.537  -0.534  -0.527
 -0.513  -0.506  -0.485  -0.474  -0.463  -0.449  -0.446  -0.440
 -0.433  -0.422  -0.418  -0.416  -0.411  -0.405  -0.397  -0.395
 -0.392  -0.380  -0.374  -0.362  -0.357  -0.354  -0.349  -0.341
 -0.336  -0.332  -0.330  -0.327  -0.325  -0.323  -0.314  -0.313
 -0.305  -0.303  -0.299  -0.297  -0.291  -0.283  -0.276  -0.269
 -0.263  -0.260  -0.248  -0.243  -0.238  -0.234  -0.223  -0.185
 -0.176  -0.167  -0.160  -0.159  -0.150  -0.144  -0.142  -0.136
 -0.133

          Ground-State Mulliken Net Atomic Charges

     Atom                 Charge (a.u.)
  ----------------------------------------
      1 O                    -0.219044
      2 C                     0.214171
      3 C                    -0.082411
      4 C                    -0.076487
      5 C                     0.214879
      6 O                    -0.167854
      7 C                    -0.047476
      8 C                    -0.047328
      9 O                    -0.170548
     10 C                     0.215130
     11 C                    -0.080708
     12 C                    -0.078625
     13 C                     0.214123
     14 O                    -0.210241
     15 O                    -0.174656
     16 O                    -0.169711
     17 O                    -0.213603
     18 C                    -0.128044
     19 C                     0.026748
     20 C                    -0.144462
     21 C                    -0.143280
     22 C                     0.025301
     23 O                    -0.186515
     24 H                     0.085191
     25 H                     0.086090
     26 H                     0.085222
     27 H                     0.078429
     28 H                     0.074455
     29 H                     0.078091
     30 H                     0.073365
     31 H                     0.087732
     32 O                    -0.212382
     33 C                    -0.127983
     34 C                     0.022540
     35 C                    -0.142757
     36 C                    -0.145745
     37 C                     0.018698
     38 O                    -0.194253
     39 H                     0.081884
     40 H                     0.085105
     41 H                     0.091563
     42 H                     0.087304
     43 H                     0.075847
     44 H                     0.071171
     45 H                     0.077482
     46 H                     0.071303
     47 H                     0.106045
     48 H                     0.085915
     49 H                     0.084933
     50 H                     0.091985
     51 H                     0.090594
     52 H                     0.090398
     53 H                     0.104093
     54 H                     0.088276
     55 H                     0.092600
     56 H                     0.087451
  ----------------------------------------
  Sum of atomic charges =    -0.000000

                    Cartesian Multipole Moments
 -----------------------------------------------------------------
    Charge (ESU x 10^10)
                 0.0000
    Dipole Moment (Debye)
         X      -2.5860      Y       1.0784      Z       1.6922
       Tot       3.2732
    Quadrupole Moments (Debye-Ang)
        XX    -143.2214     XY       4.4671     YY    -150.9810
        XZ       1.4573     YZ      -2.2429     ZZ    -159.6685

 Total job time:  52.20s(wall), 2482.92s(cpu)
        *  Thank you very much for using Q-Chem.  Have a nice day.  *
