 Q-Chem 5.0, Q-Chem, Inc., Pleasanton, CA (2017)
 Q-Chem 5.0.1 for Intel X86 EM64T Linux

User input:
--------------------------------------------------------------
$molecule
0  1
O 5.1632264904 -0.9772795028 -1.761969089
C 5.1377298872 -0.0449231575 -0.9305868776
C 4.6566187662 -0.1080682071 0.563882366
C 3.3886114302 0.7812669623 0.8842627601
C 2.5962060439 1.1604936796 -0.4228194718
O 1.2324345155 1.3381236125 -0.0580586005
C 0.3837055321 1.7062456064 -1.2129173198
C -1.0393565264 2.0068091586 -0.6119168074
O -1.957437912 0.8601836668 -0.7861927079
C -1.7799396415 -0.0704508744 0.29741332
C -2.8361465581 -1.2259833257 0.1635706981
C -4.3305765681 -0.7945816431 0.4605205514
C -4.4707276699 0.6780570669 0.9748811326
O -3.5545783676 1.454780256 1.3253843755
O 5.7380274868 1.2431255254 -1.1395532402
O -5.8599134994 1.0127796324 1.0113149725
O -0.8838692584 0.0142609381 1.1651652654
C -6.0365976503 2.3986568717 1.5041808615
C -2.9736419353 -1.7152424563 -1.3426425241
C -3.7578496974 -3.0878147679 -1.3605945638
C -5.2339393646 -2.6017564337 -1.1130195492
C -5.0151016533 -1.046315902 -0.9532554623
O -3.9380662204 -0.7521226853 -1.9235467805
H -2.5163116831 -2.0415551675 0.8355212609
H -4.7822622542 -1.4541654913 1.2248433086
H -2.0263584438 -1.7078840758 -1.91529588
H -3.6524188781 -3.5799566432 -2.3404058449
H -3.4008326293 -3.7779502911 -0.5794366299
H -5.8784347099 -2.8100631227 -1.9819795768
H -5.6896118213 -3.0539103881 -0.217684645
H -5.9048372659 -0.4157481046 -1.1452003684
O 3.0272013332 1.2295728936 -1.5958242152
C 6.1526169428 1.3755705161 -2.5530365505
C 4.1568942999 -1.5410470991 1.024849113
C 4.3332682928 -1.6171203986 2.5907331479
C 3.202352358 -0.6269374046 3.0600777172
C 2.5051596268 -0.2698871404 1.6886394249
O 2.6854283512 -1.4890619226 0.862115632
H 5.5063021434 0.2240800816 1.1877963224
H 3.6357148761 1.6915976149 1.4597873766
H 5.272746086 1.363399813 -3.2286653149
H 4.5843999034 -2.3803953646 0.4424698943
H 4.1433683991 -2.6418334052 2.9485173882
H 5.338933979 -1.3076482555 2.9177602898
H 2.4879284378 -1.1182216338 3.7391876895
H 3.6045941269 0.2681679701 3.56151514
H 1.4301889315 -0.0008204921 1.7419057132
H 6.8435445471 0.5627014347 -2.8571695165
H 6.6671283615 2.3507500055 -2.6341602296
H -7.1270883627 2.579418545 1.5195468974
H -5.5473788542 3.134548236 0.8338613546
H -5.624285139 2.5241020626 2.5262013209
H -0.9276204743 2.2732555434 0.460481267
H -1.5105635317 2.8468920734 -1.1609958257
H 0.3245131186 0.876192751 -1.9515717582
H 0.7939284585 2.6010922631 -1.7302541573
$end

$rem
JOBTYPE                   OPT
METHOD                    B3LYP
DFT_D                     d3_op
BASIS                     STO-3G
GEOM_OPT_MAX_CYCLES       100
GEOM_OPT_TOL_GRADIENT     300
GEOM_OPT_TOL_DISPLACEMENT 1200
GEOM_OPT_TOL_ENERGY       100
SYMMETRY                  False
THRESH                    12
SCF_CONVERGENCE           8
MAX_SUB_FILE_NUM          128
MEM_STATIC                400
MEM_TOTAL                 4000
$end
--------------------------------------------------------------

   16   -1510.2837541448      5.44E-09 Convergence criterion met
 Total energy in the final basis set = -1510.28375414
   13   -1510.2857013211      7.50E-09 Convergence criterion met
 Total energy in the final basis set = -1510.28570132
   13   -1510.2870279509      8.57E-09 Convergence criterion met
 Total energy in the final basis set = -1510.28702795
   14   -1510.2877846536      5.24E-09 Convergence criterion met
 Total energy in the final basis set = -1510.28778465
   13   -1510.2890682195      9.60E-09 Convergence criterion met
 Total energy in the final basis set = -1510.28906822
   13   -1510.2905186469      7.62E-09 Convergence criterion met
 Total energy in the final basis set = -1510.29051865
   14   -1510.2918727397      2.32E-09 Convergence criterion met
 Total energy in the final basis set = -1510.29187274
   14   -1510.2935187638      2.66E-09 Convergence criterion met
   12   -1510.3062725250      6.35E-09 Convergence criterion met
 Total energy in the final basis set = -1510.30627252
   12   -1510.3063053881      9.34E-09 Convergence criterion met
 Total energy in the final basis set = -1510.30630539
   12   -1510.3063489558      6.87E-09 Convergence criterion met
 Total energy in the final basis set = -1510.30634896
   11   -1510.3063507204      7.26E-09 Convergence criterion met
 Total energy in the final basis set = -1510.30635072
   11   -1510.3063486429      9.46E-09 Convergence criterion met
 Total energy in the final basis set = -1510.30634864
   10   -1510.3063515794      8.65E-09 Convergence criterion met
 Total energy in the final basis set = -1510.30635158

             Standard Nuclear Orientation (Angstroms)
    I     Atom           X                Y                Z
 ----------------------------------------------------------------
    1      O       1.9887570895    -2.0137391607    -1.4871169237
    2      C       2.8115313769    -1.2711717285    -0.9063660851
    3      C       2.9516487103    -1.0501492650     0.6436967227
    4      C       2.4172006296     0.3488402411     1.1597804886
    5      C       1.8860353854     1.2666481876     0.0077108591
    6      O       1.7306052823     2.5925569158     0.5178811053
    7      C       1.1203856327     3.4914574923    -0.4949809082
    8      C      -0.4442374028     3.5756551207    -0.3170763211
    9      O      -1.0712857553     2.3093128355    -0.7523074904
   10      C      -1.1320879807     1.3884910549     0.3485031792
   11      C      -1.3239792756    -0.0794880068    -0.1767480553
   12      C      -2.7122361266    -0.7272578756     0.2015587029
   13      C      -3.7224887970     0.3563454637     0.6979792459
   14      O      -3.5480816964     1.5974750301     0.6729183975
   15      O       3.8932031766    -0.6002783224    -1.5623587882
   16      O      -4.9158420105    -0.2747506770     1.1621460820
   17      O      -0.8647595502     1.7223659933     1.5313504641
   18      C      -5.8977413842     0.7492592142     1.5909066111
   19      C      -1.3375634077    -0.2210702000    -1.7581712865
   20      C      -0.9355735395    -1.7001696932    -2.1131182383
   21      C      -2.2127125634    -2.4765449599    -1.6214040908
   22      C      -3.1669934474    -1.2799496439    -1.2175435407
   23      O      -2.7772702763    -0.1735107425    -2.1197822149
   24      H      -0.4944991809    -0.6743197395     0.2794617156
   25      H      -2.6222592829    -1.5292189372     0.9559528059
   26      H      -0.7724252479     0.5703580152    -2.2849712083
   27      H      -0.8142352088    -1.7996083795    -3.2037668887
   28      H       0.0101323222    -2.0061675538    -1.6284814208
   29      H      -2.6639234791    -3.0754466885    -2.4283727140
   30      H      -2.0074232551    -3.1393798552    -0.7652448913
   31      H      -4.2519117149    -1.4894847007    -1.2960973097
   32      O       1.6240666173     0.9192165025    -1.1675304827
   33      C       3.7479704018    -0.7408445121    -3.0289274478
   34      C       2.0033776501    -2.0480435010     1.4257041655
   35      C       2.4361615438    -2.0803251430     2.9416182344
   36      C       1.8926730586    -0.6892621429     3.4470647860
   37      C       1.2406134715    -0.1132381765     2.1342165805
   38      O       0.7103683570    -1.3241430089     1.4633459159
   39      H       4.0133818440    -1.1852641875     0.9172314839
   40      H       3.1916502502     0.9035783899     1.7183501580
   41      H       2.8111573333    -0.2645358488    -3.3838275982
   42      H       1.8787419014    -3.0321858831     0.9338812293
   43      H       1.9482343798    -2.9186071959     3.4641433660
   44      H       3.5274192177    -2.1791156068     3.0566413457
   45      H       1.1299952708    -0.8164931788     4.2316348217
   46      H       2.6912787840    -0.0362254535     3.8326143959
   47      H       0.4178584785     0.6374275859     2.2378533959
   48      H       3.7438542193    -1.8054789235    -3.3403194035
   49      H       4.6190307223    -0.2265234214    -3.4748937776
   50      H      -6.7830393769     0.1917839070     1.9481547720
   51      H      -6.1893302182     1.4107075027     0.7496709701
   52      H      -5.4977213927     1.3786502855     2.4118404988
   53      H      -0.6901280589     3.7832358311     0.7462102412
   54      H      -0.8454273146     4.3767863559    -0.9703368517
   55      H       1.3576468758     3.1236688641    -1.5161845000
   56      H       1.5695383929     4.4930120473    -0.3349343289
 ----------------------------------------------------------------

    9   -1510.3063511051      5.02E-09 Convergence criterion met
 Total energy in the final basis set = -1510.30635111
 Final energy is   -1510.30635110505
 **  OPTIMIZATION CONVERGED  **

                    Orbital Energies (a.u.)
 --------------------------------------------------------------

 Alpha MOs
 -- Occupied --
-18.941 -18.936 -18.927 -18.922 -18.897 -18.885 -18.876 -18.868
-18.866 -18.856 -10.107 -10.098 -10.096 -10.090 -10.073 -10.066
-10.063 -10.062 -10.058 -10.048 -10.045 -10.039 -10.037 -10.033
-10.024 -10.022 -10.019 -10.004 -10.001  -9.988  -1.021  -1.011
 -1.005  -0.997  -0.976  -0.951  -0.944  -0.935  -0.930  -0.924
 -0.765  -0.745  -0.725  -0.714  -0.703  -0.700  -0.684  -0.658
 -0.657  -0.615  -0.590  -0.572  -0.545  -0.539  -0.528  -0.517
 -0.511  -0.500  -0.485  -0.470  -0.462  -0.455  -0.449  -0.438
 -0.430  -0.427  -0.417  -0.414  -0.408  -0.406  -0.401  -0.395
 -0.391  -0.379  -0.368  -0.366  -0.358  -0.355  -0.351  -0.345
 -0.343  -0.340  -0.333  -0.328  -0.324  -0.316  -0.312  -0.306
 -0.305  -0.302  -0.292  -0.287  -0.282  -0.276  -0.273  -0.271
 -0.260  -0.255  -0.250  -0.247  -0.235  -0.233  -0.213  -0.191
 -0.177  -0.170  -0.164  -0.154  -0.152  -0.150  -0.148  -0.140
 -0.125

          Ground-State Mulliken Net Atomic Charges

     Atom                 Charge (a.u.)
  ----------------------------------------
      1 O                    -0.219305
      2 C                     0.219342
      3 C                    -0.082292
      4 C                    -0.080083
      5 C                     0.211498
      6 O                    -0.168356
      7 C                    -0.053739
      8 C                    -0.051988
      9 O                    -0.169020
     10 C                     0.216762
     11 C                    -0.099608
     12 C                    -0.078212
     13 C                     0.214617
     14 O                    -0.207352
     15 O                    -0.173009
     16 O                    -0.167997
     17 O                    -0.234710
     18 C                    -0.128103
     19 C                     0.021982
     20 C                    -0.152341
     21 C                    -0.144809
     22 C                     0.024069
     23 O                    -0.196540
     24 H                     0.112826
     25 H                     0.086645
     26 H                     0.090428
     27 H                     0.069667
     28 H                     0.096232
     29 H                     0.072506
     30 H                     0.071355
     31 H                     0.079216
     32 O                    -0.211175
     33 C                    -0.128155
     34 C                     0.026156
     35 C                    -0.143781
     36 C                    -0.143976
     37 C                     0.010350
     38 O                    -0.192523
     39 H                     0.085502
     40 H                     0.088057
     41 H                     0.093868
     42 H                     0.088644
     43 H                     0.078294
     44 H                     0.073836
     45 H                     0.079522
     46 H                     0.074414
     47 H                     0.114635
     48 H                     0.087893
     49 H                     0.087623
     50 H                     0.090793
     51 H                     0.090534
     52 H                     0.090417
     53 H                     0.101993
     54 H                     0.089896
     55 H                     0.098235
     56 H                     0.089267
  ----------------------------------------
  Sum of atomic charges =    -0.000000

                    Cartesian Multipole Moments
 -----------------------------------------------------------------
    Charge (ESU x 10^10)
                -0.0000
    Dipole Moment (Debye)
         X       1.8981      Y       0.1892      Z       1.3770
       Tot       2.3526
    Quadrupole Moments (Debye-Ang)
        XX    -146.2878     XY       0.5538     YY    -152.7965
        XZ      -4.4657     YZ      -3.9870     ZZ    -157.9507

 Total job time:  127.05s(wall), 6054.97s(cpu)
        *  Thank you very much for using Q-Chem.  Have a nice day.  *
