 Q-Chem 5.0, Q-Chem, Inc., Pleasanton, CA (2017)
 Q-Chem 5.0.1 for Intel X86 EM64T Linux

User input:
--------------------------------------------------------------
$molecule
0  1
O -3.94934 -3.66094 2.70899
C -3.26408 -4.56952 2.26188
C -3.36658 -6.02376 2.66595
C -2.28161 -6.56914 3.60896
C -1.31671 -5.55615 4.18421
O -0.78233 -6.03277 5.34727
C 0.14912 -5.12882 5.95102
C 0.80721 -5.78299 7.16144
O 0.17989 -5.32188 8.36839
C -0.92175 -6.01263 8.7536
C -1.34634 -5.70126 10.16903
C -0.32537 -6.08448 11.25025
C 1.0778 -6.37913 10.75935
O 1.46444 -6.26126 9.60558
O -2.30229 -4.27588 1.34665
O 1.97532 -6.73993 11.71397
O -1.52728 -6.79704 8.03545
C 3.30359 -7.0162 11.46634
C -1.52412 -4.20026 10.46552
C -2.47154 -4.02169 11.65073
C -1.60359 -4.52784 12.78727
C -0.28418 -4.76712 12.04292
O -0.29128 -3.8019 11.01673
H -2.31637 -6.22345 10.3368
H -0.65833 -6.97114 11.8336
H -1.88196 -3.61975 9.58722
H -2.62169 -2.92564 11.77958
H -3.46209 -4.51605 11.55458
H -1.49626 -3.71188 13.53595
H -1.96208 -5.45666 13.28181
H 0.57504 -4.72241 12.74785
O -1.11162 -4.42538 3.76111
C -2.05384 -3.00965 0.85951
C -4.63827 -6.27806 3.50488
C -5.03657 -7.74944 3.42238
C -3.952 -8.37451 4.26518
C -3.20738 -7.11848 4.73165
O -4.21044 -6.14279 4.83283
H -3.46211 -6.60518 1.72162
H -1.67505 -7.39528 3.1774
H -1.76434 -2.32988 1.68924
H -5.50192 -5.64514 3.20325
H -6.00854 -7.86092 3.95475
H -5.13295 -8.15504 2.39228
H -4.43258 -8.88274 5.13112
H -3.28271 -9.08472 3.73321
H -2.68222 -7.36289 5.67751
H -2.9561 -2.61333 0.3465
H -1.2198 -3.0579 0.1298
H 3.80351 -7.28347 12.41981
H 3.80642 -6.12352 11.03655
H 3.39176 -7.87205 10.76338
H 0.95498 -6.88424 7.08507
H 1.82702 -5.3408 7.20642
H -0.2843 -4.13369 6.2009
H 0.96468 -4.97613 5.20479
$end

$opt
CONSTRAINT
tors           1           2           3           4    -103.581
tors           3           4           5           6    +156.274
tors           4           5           6           7    +179.737
tors           5           6           7           8    -174.273
tors           6           7           8           9    -100.149
tors           7           8           9          10     +86.412
tors           8           9          10          11    +166.664
tors           9          10          11          12     -63.151
tors          11          12          13          14      +4.412
ENDCONSTRAINT
$end

$rem
JOBTYPE                   OPT
METHOD                    B3LYP
DFT_D                     d3_op
BASIS                     STO-3G
GEOM_OPT_MAX_CYCLES       100
GEOM_OPT_TOL_GRADIENT     300
GEOM_OPT_TOL_DISPLACEMENT 1200
GEOM_OPT_TOL_ENERGY       100
SYMMETRY                  False
THRESH                    12
SCF_CONVERGENCE           8
MAX_SUB_FILE_NUM          128
MEM_STATIC                400
MEM_TOTAL                 4000
$end
--------------------------------------------------------------

   15   -1510.1244943093      7.10E-09 Convergence criterion met
 Total energy in the final basis set = -1510.12449431
   13   -1510.1929318254      9.19E-09 Convergence criterion met
 Total energy in the final basis set = -1510.19293183
   14   -1510.2425060055      7.37E-09 Convergence criterion met
 Total energy in the final basis set = -1510.24250601
   14   -1510.2647200227      6.21E-09 Convergence criterion met
 Total energy in the final basis set = -1510.26472002
   14   -1510.2734675573      4.25E-09 Convergence criterion met
 Total energy in the final basis set = -1510.27346756
   13   -1510.2770308587      7.80E-09 Convergence criterion met
 Total energy in the final basis set = -1510.27703086
    2   -1510.2770308587      7.25E-09 Convergence criterion met
 Total energy in the final basis set = -1510.27703086
   13   -1510.2787796064      2.93E-09 Convergence criterion met
   12   -1510.2827183894      2.91E-09 Convergence criterion met
 Total energy in the final basis set = -1510.28271839
   10   -1510.2827810221      7.79E-09 Convergence criterion met
 Total energy in the final basis set = -1510.28278102
   11   -1510.2828329644      5.45E-09 Convergence criterion met
 Total energy in the final basis set = -1510.28283296
   11   -1510.2828558794      2.76E-09 Convergence criterion met
 Total energy in the final basis set = -1510.28285588
   10   -1510.2828668522      7.27E-09 Convergence criterion met
 Total energy in the final basis set = -1510.28286685
   10   -1510.2828726840      7.99E-09 Convergence criterion met
 Total energy in the final basis set = -1510.28287268

             Standard Nuclear Orientation (Angstroms)
    I     Atom           X                Y                Z
 ----------------------------------------------------------------
    1      O      -5.0298091105    -0.5048262642     1.9560104138
    2      C      -5.1359083120     0.1892545377     0.9226288499
    3      C      -4.7435472436    -0.2103144560    -0.5465977181
    4      C      -3.3909150988     0.4332884876    -1.0599900460
    5      C      -2.5879713609     1.1375175050     0.0916310121
    6      O      -1.2191771409     1.1829689518    -0.2932042381
    7      C      -0.3836722840     1.8407240277     0.7381017888
    8      C       1.0592579023     1.9544099667     0.1219432294
    9      O       1.9559725144     0.8907996245     0.6260222757
   10      C       1.8175565151    -0.2906819397    -0.1799507570
   11      C       2.9978804811    -1.2789204989     0.1395727181
   12      C       4.4370038404    -0.7271217121    -0.2146883871
   13      C       4.4468999167     0.5375768506    -1.1367336762
   14      O       3.4741495196     1.2002340480    -1.5593518499
   15      O      -5.8072231745     1.4575986135     0.8613770606
   16      O       5.8112422456     0.8481113860    -1.4376473505
   17      O       0.8924903731    -0.4845502449    -0.9984723633
   18      C       5.8786880233     2.0514819543    -2.2991524623
   19      C       3.1531449340    -1.4553113816     1.7129838185
   20      C       4.1669542014    -2.6323418858     2.0111354497
   21      C       5.5492231047    -1.9282713671     1.7427298709
   22      C       5.0639271579    -0.5139369756     1.2359272024
   23      O       3.8996048258    -0.2356339143     2.1030066097
   24      H       2.7883568948    -2.2326750116    -0.3751328959
   25      H       5.0148749731    -1.5049429607    -0.7473066727
   26      H       2.1938909468    -1.5136042272     2.2628472835
   27      H       4.0764659259    -2.9646229470     3.0573648112
   28      H       3.9970599654    -3.4977433615     1.3506542211
   29      H       6.1331232669    -1.8211503344     2.6710606924
   30      H       6.1629141656    -2.4561062005     0.9956089210
   31      H       5.8113326075     0.3004778996     1.3007932833
   32      O      -3.0292610099     1.5581693529     1.1851975384
   33      C      -6.1491535049     1.9069120871     2.2280223680
   34      C      -4.4243427255    -1.7560572391    -0.7074415411
   35      C      -4.5811812061    -2.1251773416    -2.2342801404
   36      C      -3.3049806567    -1.4314968911    -2.8409525524
   37      C      -2.6093326200    -0.8658473989    -1.5405633298
   38      O      -2.9620679152    -1.8489169840    -0.4894437558
   39      H      -5.5786997552     0.0940101467    -1.2026332563
   40      H      -3.5572626583     1.1540629846    -1.8813390458
   41      H      -5.2347722952     2.0885763512     2.8293451975
   42      H      -4.9640422479    -2.4091337501     0.0054695445
   43      H      -4.5461511751    -3.2181480253    -2.3686214278
   44      H      -5.5216826980    -1.7458854431    -2.6647818901
   45      H      -2.6483075004    -2.1581409699    -3.3449297012
   46      H      -3.5557709096    -0.6301519280    -3.5542548706
   47      H      -1.5095933248    -0.7294756015    -1.5937958842
   48      H      -6.7799705062     1.1645943264     2.7588031079
   49      H      -6.7088069566     2.8531987514     2.1104455432
   50      H       6.9532803907     2.2353769013    -2.4824191155
   51      H       5.4296725607     2.9353049318    -1.8015701817
   52      H       5.3590832761     1.8907599068    -3.2659158513
   53      H       0.9850491277     1.9268911010    -0.9857504310
   54      H       1.5281430636     2.9065728288     0.4421741885
   55      H      -0.3565943975     1.2402075912     1.6741079474
   56      H      -0.7899805183     2.8460968115     0.9842666232
 ----------------------------------------------------------------

   10   -1510.2828781666      4.93E-09 Convergence criterion met
 Total energy in the final basis set = -1510.28287817
 Final energy is   -1510.28287816663
 **  OPTIMIZATION CONVERGED  **

                    Orbital Energies (a.u.)
 --------------------------------------------------------------

 Alpha MOs
 -- Occupied --
-18.941 -18.934 -18.922 -18.913 -18.890 -18.883 -18.875 -18.875
-18.867 -18.854 -10.106 -10.097 -10.093 -10.083 -10.070 -10.070
-10.067 -10.062 -10.060 -10.048 -10.048 -10.045 -10.040 -10.036
-10.030 -10.024 -10.021 -10.020 -10.011 -10.010  -1.019  -1.013
 -1.001  -0.991  -0.971  -0.959  -0.942  -0.936  -0.928  -0.917
 -0.764  -0.753  -0.726  -0.717  -0.710  -0.702  -0.688  -0.667
 -0.647  -0.610  -0.594  -0.575  -0.546  -0.538  -0.535  -0.528
 -0.514  -0.506  -0.486  -0.473  -0.462  -0.448  -0.445  -0.439
 -0.434  -0.422  -0.418  -0.416  -0.411  -0.406  -0.398  -0.395
 -0.392  -0.379  -0.376  -0.362  -0.356  -0.353  -0.348  -0.340
 -0.337  -0.333  -0.332  -0.327  -0.324  -0.323  -0.315  -0.313
 -0.306  -0.304  -0.300  -0.297  -0.291  -0.283  -0.276  -0.268
 -0.264  -0.260  -0.248  -0.242  -0.237  -0.235  -0.223  -0.185
 -0.176  -0.168  -0.159  -0.158  -0.151  -0.144  -0.142  -0.135
 -0.133

          Ground-State Mulliken Net Atomic Charges

     Atom                 Charge (a.u.)
  ----------------------------------------
      1 O                    -0.219104
      2 C                     0.213991
      3 C                    -0.082386
      4 C                    -0.077238
      5 C                     0.214096
      6 O                    -0.166701
      7 C                    -0.047865
      8 C                    -0.045864
      9 O                    -0.169311
     10 C                     0.214449
     11 C                    -0.080118
     12 C                    -0.079377
     13 C                     0.212113
     14 O                    -0.212316
     15 O                    -0.174696
     16 O                    -0.170597
     17 O                    -0.212449
     18 C                    -0.128396
     19 C                     0.026456
     20 C                    -0.144966
     21 C                    -0.142356
     22 C                     0.026644
     23 O                    -0.184512
     24 H                     0.085169
     25 H                     0.085915
     26 H                     0.084912
     27 H                     0.078704
     28 H                     0.074258
     29 H                     0.078265
     30 H                     0.073860
     31 H                     0.086000
     32 O                    -0.212003
     33 C                    -0.128027
     34 C                     0.023954
     35 C                    -0.143571
     36 C                    -0.144914
     37 C                     0.019997
     38 O                    -0.192123
     39 H                     0.082149
     40 H                     0.084537
     41 H                     0.091624
     42 H                     0.086139
     43 H                     0.076040
     44 H                     0.071450
     45 H                     0.077230
     46 H                     0.071401
     47 H                     0.103664
     48 H                     0.085501
     49 H                     0.084787
     50 H                     0.091603
     51 H                     0.089841
     52 H                     0.089824
     53 H                     0.104671
     54 H                     0.088809
     55 H                     0.093288
     56 H                     0.087553
  ----------------------------------------
  Sum of atomic charges =    -0.000000

                    Cartesian Multipole Moments
 -----------------------------------------------------------------
    Charge (ESU x 10^10)
                 0.0000
    Dipole Moment (Debye)
         X       2.8182      Y       0.7959      Z      -2.0777
       Tot       3.5906
    Quadrupole Moments (Debye-Ang)
        XX    -141.8369     XY      -3.7503     YY    -151.6389
        XZ       2.7529     YZ      -0.5209     ZZ    -159.0787

 Total job time:  57.22s(wall), 2723.66s(cpu)
        *  Thank you very much for using Q-Chem.  Have a nice day.  *
