 Q-Chem 5.0, Q-Chem, Inc., Pleasanton, CA (2017)
 Q-Chem 5.0.1 for Intel X86 EM64T Linux

User input:
--------------------------------------------------------------
$molecule
0  1
O -5.0298091105 -0.5048262642 1.9560104138
C -5.135908312 0.1892545377 0.9226288499
C -4.7435472436 -0.210314456 -0.5465977181
C -3.3909150988 0.4332884876 -1.059990046
C -2.5879713609 1.137517505 0.0916310121
O -1.2191771409 1.1829689518 -0.2932042381
C -0.383672284 1.8407240277 0.7381017888
C 1.0592579023 1.9544099667 0.1219432294
O 1.9559725144 0.8907996245 0.6260222757
C 1.8175565151 -0.2906819397 -0.179950757
C 2.9978804811 -1.2789204989 0.1395727181
C 4.4370038404 -0.7271217121 -0.2146883871
C 4.4468999167 0.5375768506 -1.1367336762
O 3.4741495196 1.200234048 -1.5593518499
O -5.8072231745 1.4575986135 0.8613770606
O 5.8112422456 0.848111386 -1.4376473505
O 0.8924903731 -0.4845502449 -0.9984723633
C 5.8786880233 2.0514819543 -2.2991524623
C 3.153144934 -1.4553113816 1.7129838185
C 4.1669542014 -2.6323418858 2.0111354497
C 5.5492231047 -1.9282713671 1.7427298709
C 5.0639271579 -0.5139369756 1.2359272024
O 3.8996048258 -0.2356339143 2.1030066097
H 2.7883568948 -2.2326750116 -0.3751328959
H 5.0148749731 -1.5049429607 -0.7473066727
H 2.1938909468 -1.5136042272 2.2628472835
H 4.0764659259 -2.964622947 3.0573648112
H 3.9970599654 -3.4977433615 1.3506542211
H 6.1331232669 -1.8211503344 2.6710606924
H 6.1629141656 -2.4561062005 0.995608921
H 5.8113326075 0.3004778996 1.3007932833
O -3.0292610099 1.5581693529 1.1851975384
C -6.1491535049 1.9069120871 2.228022368
C -4.4243427255 -1.7560572391 -0.7074415411
C -4.5811812061 -2.1251773416 -2.2342801404
C -3.3049806567 -1.4314968911 -2.8409525524
C -2.60933262 -0.8658473989 -1.5405633298
O -2.9620679152 -1.848916984 -0.4894437558
H -5.5786997552 0.0940101467 -1.2026332563
H -3.5572626583 1.1540629846 -1.8813390458
H -5.2347722952 2.0885763512 2.8293451975
H -4.9640422479 -2.4091337501 0.0054695445
H -4.5461511751 -3.2181480253 -2.3686214278
H -5.521682698 -1.7458854431 -2.6647818901
H -2.6483075004 -2.1581409699 -3.3449297012
H -3.5557709096 -0.630151928 -3.5542548706
H -1.5095933248 -0.7294756015 -1.5937958842
H -6.7799705062 1.1645943264 2.7588031079
H -6.7088069566 2.8531987514 2.1104455432
H 6.9532803907 2.2353769013 -2.4824191155
H 5.4296725607 2.9353049318 -1.8015701817
H 5.3590832761 1.8907599068 -3.2659158513
H 0.9850491277 1.926891101 -0.985750431
H 1.5281430636 2.9065728288 0.4421741885
H -0.3565943975 1.2402075912 1.6741079474
H -0.7899805183 2.8460968115 0.9842666232
$end

$rem
JOBTYPE                   OPT
METHOD                    B3LYP
DFT_D                     d3_op
BASIS                     STO-3G
GEOM_OPT_MAX_CYCLES       100
GEOM_OPT_TOL_GRADIENT     300
GEOM_OPT_TOL_DISPLACEMENT 1200
GEOM_OPT_TOL_ENERGY       100
SYMMETRY                  False
THRESH                    12
SCF_CONVERGENCE           8
MAX_SUB_FILE_NUM          128
MEM_STATIC                400
MEM_TOTAL                 4000
$end
--------------------------------------------------------------

   16   -1510.2828798547      5.31E-09 Convergence criterion met
 Total energy in the final basis set = -1510.28287985
   14   -1510.2845779277      2.35E-09 Convergence criterion met
 Total energy in the final basis set = -1510.28457793
   13   -1510.2864550820      9.25E-09 Convergence criterion met
 Total energy in the final basis set = -1510.28645508
   14   -1510.2874242299      4.04E-09 Convergence criterion met
 Total energy in the final basis set = -1510.28742423
   13   -1510.2887404970      7.76E-09 Convergence criterion met
 Total energy in the final basis set = -1510.28874050
   13   -1510.2899741002      4.26E-09 Convergence criterion met
 Total energy in the final basis set = -1510.28997410
   13   -1510.2913381465      7.78E-09 Convergence criterion met
 Total energy in the final basis set = -1510.29133815
   14   -1510.2927692734      2.45E-09 Convergence criterion met
   12   -1510.3064698505      3.22E-09 Convergence criterion met
 Total energy in the final basis set = -1510.30646985
   11   -1510.3064916291      6.61E-09 Convergence criterion met
 Total energy in the final basis set = -1510.30649163
   11   -1510.3064775886      9.64E-09 Convergence criterion met
 Total energy in the final basis set = -1510.30647759
   11   -1510.3064940957      4.97E-09 Convergence criterion met
 Total energy in the final basis set = -1510.30649410
   11   -1510.3064963657      2.81E-09 Convergence criterion met
 Total energy in the final basis set = -1510.30649637
   10   -1510.3064954799      5.36E-09 Convergence criterion met
 Total energy in the final basis set = -1510.30649548

             Standard Nuclear Orientation (Angstroms)
    I     Atom           X                Y                Z
 ----------------------------------------------------------------
    1      O       1.8911513343    -1.7652852252     1.8443954006
    2      C       2.7439354569    -1.1483375961     1.1681522624
    3      C       2.9636501286     0.4076079355     1.1180283058
    4      C       2.4599149381     1.0961375100    -0.2167577361
    5      C       1.8773520526     0.0808626609    -1.2559112044
    6      O       1.7541078559     0.7493002186    -2.5139474792
    7      C       1.0974558958    -0.1161610206    -3.5265180252
    8      C      -0.4550262073     0.1536071300    -3.5865658796
    9      O      -1.1073220221    -0.4027140151    -2.3823893215
   10      C      -1.1236099677     0.5775075456    -1.3326994839
   11      C      -1.3397284803    -0.1212450449     0.0581797263
   12      C      -2.7324061634     0.1984470765     0.7302596915
   13      C      -3.7044233411     0.8888597787    -0.2786305226
   14      O      -3.5200226926     1.0235923885    -1.5112839000
   15      O       3.7877406641    -1.7783384783     0.4166321605
   16      O      -4.8770181772     1.3266089068     0.4079187936
   17      O      -0.8102154756     1.7809638435    -1.5202291764
   18      C      -5.8253783935     1.9443669771    -0.5488191841
   19      C      -1.3890354512    -1.7059257451    -0.0169179599
   20      C      -1.0455647121    -2.2766890025     1.4082573030
   21      C      -2.3349145682    -1.8646207941     2.2093129646
   22      C      -3.2406824322    -1.2731441829     1.0527314898
   23      O      -2.8341897049    -2.0179699020    -0.1586019681
   24      H      -0.5053476362     0.2369957165     0.7104624379
   25      H      -2.6414304525     0.8160400774     1.6416549839
   26      H      -0.8092278720    -2.1320846095    -0.8569099619
   27      H      -0.9518147865    -3.3731853076     1.3542088919
   28      H      -0.0996215528    -1.8657750312     1.8075430461
   29      H      -2.8204250066    -2.7327265484     2.6829428455
   30      H      -2.1290107792    -1.1087535873     2.9839047487
   31      H      -4.3335325449    -1.3512757811     1.2159569391
   32      O       1.5541368634    -1.1112635600    -1.0465633626
   33      C       3.5569928143    -3.2400287310     0.3728543513
   34      C       2.0511814607     1.1259647169     2.1935470354
   35      C       2.5563363863     2.6088797907     2.3786597699
   36      C       2.0326335572     3.2830291734     1.0540154909
   37      C       1.3262459684     2.0666611798     0.3457604667
   38      O       0.7628142896     1.2963981512     1.4812094657
   39      H       4.0373676191     0.6109517154     1.2798262379
   40      H       3.2612336639     1.6755267025    -0.7081808807
   41      H       2.6124542130    -3.4764329867    -0.1589393669
   42      H       1.9039361220     0.5439972772     3.1240402510
   43      H       2.0999886221     3.0641072918     3.2720981632
   44      H       3.6525226126     2.6607880285     2.4767134516
   45      H       1.3032010460     4.0802566618     1.2681667470
   46      H       2.8453435603     3.7020601006     0.4401835570
   47      H       0.5105907945     2.2839190964    -0.3883076103
   48      H       3.5103905591    -3.6785949561     1.3905237615
   49      H       4.4125335749    -3.6703127797    -0.1794713510
   50      H      -6.6761822206     2.3071189603     0.0567403446
   51      H      -6.1883234739     1.2079016110    -1.2949084164
   52      H      -5.3621307076     2.7947130200    -1.0893834188
   53      H      -0.6442573826     1.2457877480    -3.6604588518
   54      H      -0.8870992897    -0.3725329058    -4.4619213803
   55      H       1.2788484329    -1.1854073401    -3.2854944105
   56      H       1.5589500015     0.1391620050    -4.5024961836
 ----------------------------------------------------------------

    9   -1510.3064951934      3.11E-09 Convergence criterion met
 Total energy in the final basis set = -1510.30649519
 Final energy is   -1510.30649519343
 **  OPTIMIZATION CONVERGED  **

                    Orbital Energies (a.u.)
 --------------------------------------------------------------

 Alpha MOs
 -- Occupied --
-18.941 -18.936 -18.927 -18.922 -18.896 -18.885 -18.876 -18.868
-18.867 -18.857 -10.107 -10.097 -10.096 -10.090 -10.073 -10.066
-10.063 -10.062 -10.058 -10.047 -10.045 -10.039 -10.037 -10.033
-10.025 -10.021 -10.018 -10.005 -10.001  -9.988  -1.021  -1.011
 -1.004  -0.997  -0.975  -0.952  -0.944  -0.935  -0.930  -0.924
 -0.764  -0.745  -0.725  -0.714  -0.703  -0.700  -0.684  -0.658
 -0.657  -0.614  -0.590  -0.572  -0.545  -0.538  -0.529  -0.517
 -0.511  -0.500  -0.485  -0.470  -0.462  -0.454  -0.449  -0.438
 -0.430  -0.426  -0.417  -0.414  -0.408  -0.406  -0.401  -0.395
 -0.391  -0.379  -0.368  -0.366  -0.358  -0.355  -0.351  -0.345
 -0.343  -0.340  -0.332  -0.328  -0.324  -0.316  -0.313  -0.306
 -0.305  -0.302  -0.293  -0.287  -0.283  -0.276  -0.273  -0.271
 -0.260  -0.254  -0.250  -0.247  -0.235  -0.233  -0.213  -0.191
 -0.177  -0.170  -0.164  -0.154  -0.152  -0.150  -0.148  -0.141
 -0.126

          Ground-State Mulliken Net Atomic Charges

     Atom                 Charge (a.u.)
  ----------------------------------------
      1 O                    -0.219094
      2 C                     0.219180
      3 C                    -0.082134
      4 C                    -0.080281
      5 C                     0.211638
      6 O                    -0.168870
      7 C                    -0.053710
      8 C                    -0.051963
      9 O                    -0.168963
     10 C                     0.217315
     11 C                    -0.098889
     12 C                    -0.078306
     13 C                     0.214328
     14 O                    -0.207316
     15 O                    -0.173101
     16 O                    -0.167982
     17 O                    -0.234227
     18 C                    -0.128137
     19 C                     0.022221
     20 C                    -0.152198
     21 C                    -0.144717
     22 C                     0.024195
     23 O                    -0.196150
     24 H                     0.112508
     25 H                     0.086703
     26 H                     0.091210
     27 H                     0.069944
     28 H                     0.095999
     29 H                     0.072580
     30 H                     0.071393
     31 H                     0.079091
     32 O                    -0.211650
     33 C                    -0.128298
     34 C                     0.026175
     35 C                    -0.143861
     36 C                    -0.143949
     37 C                     0.009594
     38 O                    -0.192797
     39 H                     0.085446
     40 H                     0.088081
     41 H                     0.093738
     42 H                     0.088328
     43 H                     0.078110
     44 H                     0.073595
     45 H                     0.079462
     46 H                     0.074283
     47 H                     0.114699
     48 H                     0.088202
     49 H                     0.087549
     50 H                     0.090826
     51 H                     0.089923
     52 H                     0.091057
     53 H                     0.102034
     54 H                     0.089953
     55 H                     0.098014
     56 H                     0.089222
  ----------------------------------------
  Sum of atomic charges =    -0.000000

                    Cartesian Multipole Moments
 -----------------------------------------------------------------
    Charge (ESU x 10^10)
                -0.0000
    Dipole Moment (Debye)
         X       1.8803      Y       1.2573      Z      -0.0454
       Tot       2.2624
    Quadrupole Moments (Debye-Ang)
        XX    -146.5951     XY      -4.7162     YY    -158.3357
        XZ      -1.1311     YZ       3.1045     ZZ    -152.1743

 Total job time:  134.72s(wall), 6415.56s(cpu)
        *  Thank you very much for using Q-Chem.  Have a nice day.  *
