 Q-Chem 5.0, Q-Chem, Inc., Pleasanton, CA (2017)
 Q-Chem 5.0.1 for Intel X86 EM64T Linux

User input:
--------------------------------------------------------------
$molecule
0  1
O -3.94934 -3.66094 2.70899
C -3.26408 -4.56952 2.26188
C -3.36658 -6.02376 2.66595
C -2.47629 -6.49466 3.82763
C -1.71428 -5.42048 4.57165
O -1.2479 -5.91768 5.75517
C -0.50394 -4.95901 6.5146
C 0.09554 -5.6194 7.75179
O -0.71181 -5.32608 8.90289
C -1.80698 -6.10992 9.06207
C -2.56744 -5.80762 10.33131
C -1.98382 -6.44193 11.60226
C -0.56772 -6.9693 11.48719
O 0.09038 -7.01445 10.4579
O -2.24043 -4.26444 1.42155
O -0.01545 -7.44479 12.63464
O -2.24561 -6.85512 8.19633
C 1.25795 -7.96631 12.7264
C -2.60414 -4.32139 10.73289
C -3.81062 -4.06035 11.63311
C -3.37702 -4.76932 12.90097
C -1.9574 -5.19581 12.50907
O -1.52913 -4.18197 11.6297
H -3.60858 -6.16934 10.16729
H -2.61198 -7.26939 11.99979
H -2.61302 -3.63204 9.86039
H -3.83831 -2.96468 11.83074
H -4.79118 -4.38247 11.22126
H -3.34877 -4.02368 13.7264
H -3.99994 -5.64155 13.19561
H -1.33571 -5.34308 13.41942
O -1.56826 -4.2554 4.22252
C -1.95378 -2.99096 0.97636
C -4.76675 -6.33278 3.24106
C -5.06758 -7.82534 3.12212
C -4.14365 -8.37798 4.18143
C -3.57339 -7.0764 4.75517
O -4.62367 -6.15461 4.62504
H -3.25193 -6.62597 1.73673
H -1.74307 -7.27817 3.53498
H -1.71786 -2.32834 1.83636
H -5.58001 -5.74894 2.7556
H -6.11957 -7.97802 3.45457
H -4.93799 -8.25501 2.10554
H -4.76116 -8.90068 4.94584
H -3.34406 -9.05564 3.81148
H -3.22914 -7.26564 5.7923
H -2.81757 -2.5801 0.41115
H -1.0726 -3.03052 0.30377
H 1.44934 -8.27663 13.77404
H 2.00734 -7.19846 12.43791
H 1.35647 -8.85447 12.06621
H 0.37862 -6.68904 7.6313
H 1.04262 -5.0722 7.95027
H -1.07977 -4.04069 6.77113
H 0.3629 -4.66057 5.87864
$end

$opt
CONSTRAINT
tors           1           2           3           4     -90.898
tors           3           4           5           6    +164.817
tors           4           5           6           7    +179.532
tors           5           6           7           8    -174.575
tors           6           7           8           9     -99.942
tors           7           8           9          10     +81.978
tors           8           9          10          11    +176.553
tors           9          10          11          12     -80.680
tors          11          12          13          14      -5.581
ENDCONSTRAINT
$end

$rem
JOBTYPE                   OPT
METHOD                    B3LYP
DFT_D                     d3_op
BASIS                     STO-3G
GEOM_OPT_MAX_CYCLES       100
GEOM_OPT_TOL_GRADIENT     300
GEOM_OPT_TOL_DISPLACEMENT 1200
GEOM_OPT_TOL_ENERGY       100
SYMMETRY                  False
THRESH                    12
SCF_CONVERGENCE           8
MAX_SUB_FILE_NUM          128
MEM_STATIC                400
MEM_TOTAL                 4000
$end
--------------------------------------------------------------

   15   -1510.1537949048      6.27E-09 Convergence criterion met
 Total energy in the final basis set = -1510.15379490
   13   -1510.2233627294      8.91E-09 Convergence criterion met
 Total energy in the final basis set = -1510.22336273
   13   -1510.2601304552      7.86E-09 Convergence criterion met
 Total energy in the final basis set = -1510.26013046
   14   -1510.2759031364      1.52E-09 Convergence criterion met
 Total energy in the final basis set = -1510.27590314
   13   -1510.2817908117      7.45E-09 Convergence criterion met
 Total energy in the final basis set = -1510.28179081
   13   -1510.2841228574      2.76E-09 Convergence criterion met
 Total energy in the final basis set = -1510.28412286
   12   -1510.2852034908      8.51E-09 Convergence criterion met
 Total energy in the final basis set = -1510.28520349
   12   -1510.2855232562      6.51E-09 Convergence criterion met
   11   -1510.2862836576      7.53E-09 Convergence criterion met
 Total energy in the final basis set = -1510.28628366
   11   -1510.2863246182      4.08E-09 Convergence criterion met
 Total energy in the final basis set = -1510.28632462
   10   -1510.2863472113      9.58E-09 Convergence criterion met
 Total energy in the final basis set = -1510.28634721
   11   -1510.2863653095      3.19E-09 Convergence criterion met
 Total energy in the final basis set = -1510.28636531
   10   -1510.2863740132      9.92E-09 Convergence criterion met
 Total energy in the final basis set = -1510.28637401
    9   -1510.2863765853      5.15E-09 Convergence criterion met
 Total energy in the final basis set = -1510.28637659

             Standard Nuclear Orientation (Angstroms)
    I     Atom           X                Y                Z
 ----------------------------------------------------------------
    1      O      -4.9647089256    -0.1546755459     1.8819505570
    2      C      -5.1540882764     0.2816188387     0.7268152090
    3      C      -4.7055967619    -0.3719717912    -0.6313918008
    4      C      -3.2804661016     0.0967370644    -1.1329290127
    5      C      -2.5823510682     1.1219126190    -0.1732504964
    6      O      -1.2125273968     1.1678229814    -0.5529641247
    7      C      -0.4285172833     2.1142369153     0.2715298826
    8      C       1.0070914907     2.1398427098    -0.3733071351
    9      O       1.9565886308     1.2863739140     0.3743414253
   10      C       1.8094215397    -0.0872366644    -0.0264250144
   11      C       2.8904565552    -0.9538245369     0.7195916748
   12      C       4.3326975612    -0.9093570974     0.0671503565
   13      C       4.4004749197    -0.0253998304    -1.2231289811
   14      O       3.4486326127     0.5366912349    -1.8105096598
   15      O      -5.9296997780     1.4494031507     0.4181872219
   16      O       5.7593456836     0.0453293718    -1.6583280330
   17      O       0.9035826111    -0.5175659052    -0.7730215855
   18      C       5.8577307913     0.8797045195    -2.8791323180
   19      C       3.2118393717    -0.3909961843     2.1706681080
   20      C       3.9719340189    -1.5095128631     2.9879944014
   21      C       5.4028603532    -1.4457601354     2.3357208902
   22      C       5.1943223826    -0.3084621051     1.2602657015
   23      O       4.2582128694     0.6282636776     1.9201052368
   24      H       2.5099794193    -1.9898540634     0.7564953781
   25      H       4.6844531039    -1.9238048504    -0.1964155620
   26      H       2.3452224602     0.0641157867     2.6875643101
   27      H       4.0030017619    -1.2492225199     4.0579375489
   28      H       3.4970748283    -2.4977157237     2.8792751562
   29      H       6.1691537123    -1.1466225390     3.0685327727
   30      H       5.7053251097    -2.4005546667     1.8766625503
   31      H       6.1138509579     0.2152459891     0.9342667511
   32      O      -3.0899589866     1.7829623333     0.7601231280
   33      C      -6.3085081380     2.1393189286     1.6707868475
   34      C      -4.4533311674    -1.9312399375    -0.4650974964
   35      C      -4.4065749271    -2.5841758737    -1.9027212884
   36      C      -2.9886669120    -2.1182332816    -2.4033804936
   37      C      -2.4866221457    -1.2815432666    -1.1624004550
   38      O      -3.0483443650    -2.0089354441    -0.0011857412
   39      H      -5.4791408344    -0.1558322740    -1.3891605658
   40      H      -3.3347627357     0.5494261668    -2.1401598889
   41      H      -5.4111651382     2.4817037016     2.2257510866
   42      H      -5.1257043171    -2.4265170621     0.2617685023
   43      H      -4.4696669454    -3.6816023855    -1.8301897773
   44      H      -5.2246259215    -2.2252250945    -2.5473328650
   45      H      -2.3209654685    -2.9753803205    -2.5853968191
   46      H      -3.0388388872    -1.5097418905    -3.3205073933
   47      H      -1.3865559707    -1.1631474635    -1.0695745875
   48      H      -6.9066704037     1.4834877955     2.3364672654
   49      H      -6.9149889583     3.0134178621     1.3701318313
   50      H       6.9296488195     0.8996475974    -3.1486505072
   51      H       5.5005079565     1.9134512476    -2.6953377187
   52      H       5.2718613901     0.4477166185    -3.7160643079
   53      H       0.9290047771     1.8220440465    -1.4349798499
   54      H       1.4288488311     3.1636091661    -0.3184622296
   55      H      -0.3724651692     1.7769888984     1.3302332795
   56      H      -0.8918397443     3.1252198856     0.2543631122
 ----------------------------------------------------------------

    9   -1510.2863771927      3.92E-09 Convergence criterion met
 Total energy in the final basis set = -1510.28637719
 Final energy is   -1510.28637719269
 **  OPTIMIZATION CONVERGED  **

                    Orbital Energies (a.u.)
 --------------------------------------------------------------

 Alpha MOs
 -- Occupied --
-18.944 -18.933 -18.922 -18.914 -18.888 -18.887 -18.876 -18.875
-18.864 -18.853 -10.108 -10.097 -10.093 -10.082 -10.071 -10.071
-10.068 -10.061 -10.059 -10.049 -10.048 -10.045 -10.041 -10.034
-10.029 -10.024 -10.021 -10.019 -10.011 -10.010  -1.021  -1.012
 -1.000  -0.991  -0.970  -0.959  -0.944  -0.936  -0.927  -0.917
 -0.764  -0.753  -0.725  -0.718  -0.711  -0.702  -0.688  -0.668
 -0.648  -0.611  -0.593  -0.575  -0.546  -0.537  -0.535  -0.528
 -0.514  -0.507  -0.485  -0.473  -0.462  -0.449  -0.444  -0.442
 -0.434  -0.422  -0.420  -0.417  -0.411  -0.405  -0.399  -0.395
 -0.391  -0.380  -0.375  -0.363  -0.357  -0.354  -0.348  -0.340
 -0.338  -0.333  -0.331  -0.327  -0.324  -0.323  -0.315  -0.313
 -0.306  -0.305  -0.300  -0.296  -0.291  -0.282  -0.276  -0.268
 -0.264  -0.261  -0.248  -0.243  -0.237  -0.235  -0.223  -0.187
 -0.177  -0.166  -0.161  -0.158  -0.152  -0.145  -0.140  -0.134
 -0.134

          Ground-State Mulliken Net Atomic Charges

     Atom                 Charge (a.u.)
  ----------------------------------------
      1 O                    -0.217812
      2 C                     0.213434
      3 C                    -0.082161
      4 C                    -0.077884
      5 C                     0.213714
      6 O                    -0.167746
      7 C                    -0.047776
      8 C                    -0.046841
      9 O                    -0.171706
     10 C                     0.215211
     11 C                    -0.081483
     12 C                    -0.078426
     13 C                     0.214476
     14 O                    -0.208489
     15 O                    -0.174051
     16 O                    -0.169021
     17 O                    -0.215799
     18 C                    -0.128046
     19 C                     0.026853
     20 C                    -0.144389
     21 C                    -0.143531
     22 C                     0.024964
     23 O                    -0.187185
     24 H                     0.084597
     25 H                     0.086779
     26 H                     0.085776
     27 H                     0.078309
     28 H                     0.074518
     29 H                     0.078218
     30 H                     0.073601
     31 H                     0.086881
     32 O                    -0.211964
     33 C                    -0.128102
     34 C                     0.025178
     35 C                    -0.144557
     36 C                    -0.143797
     37 C                     0.020126
     38 O                    -0.190680
     39 H                     0.082505
     40 H                     0.084301
     41 H                     0.092338
     42 H                     0.084165
     43 H                     0.075844
     44 H                     0.071419
     45 H                     0.077214
     46 H                     0.071795
     47 H                     0.103441
     48 H                     0.085084
     49 H                     0.085023
     50 H                     0.092332
     51 H                     0.091341
     52 H                     0.090629
     53 H                     0.103639
     54 H                     0.088876
     55 H                     0.091269
     56 H                     0.087599
  ----------------------------------------
  Sum of atomic charges =    -0.000000

                    Cartesian Multipole Moments
 -----------------------------------------------------------------
    Charge (ESU x 10^10)
                 0.0000
    Dipole Moment (Debye)
         X       2.6602      Y       0.1623      Z      -2.0588
       Tot       3.3678
    Quadrupole Moments (Debye-Ang)
        XX    -144.2617     XY      -4.8191     YY    -154.0175
        XZ       2.8760     YZ      -1.4958     ZZ    -155.9509

 Total job time:  53.20s(wall), 2354.95s(cpu)
        *  Thank you very much for using Q-Chem.  Have a nice day.  *
