 Q-Chem 5.0, Q-Chem, Inc., Pleasanton, CA (2017)
 Q-Chem 5.0.1 for Intel X86 EM64T Linux

User input:
--------------------------------------------------------------
$molecule
0  1
O -4.9647089256 -0.1546755459 1.881950557
C -5.1540882764 0.2816188387 0.726815209
C -4.7055967619 -0.3719717912 -0.6313918008
C -3.2804661016 0.0967370644 -1.1329290127
C -2.5823510682 1.121912619 -0.1732504964
O -1.2125273968 1.1678229814 -0.5529641247
C -0.4285172833 2.1142369153 0.2715298826
C 1.0070914907 2.1398427098 -0.3733071351
O 1.9565886308 1.286373914 0.3743414253
C 1.8094215397 -0.0872366644 -0.0264250144
C 2.8904565552 -0.9538245369 0.7195916748
C 4.3326975612 -0.9093570974 0.0671503565
C 4.4004749197 -0.0253998304 -1.2231289811
O 3.4486326127 0.5366912349 -1.8105096598
O -5.929699778 1.4494031507 0.4181872219
O 5.7593456836 0.0453293718 -1.658328033
O 0.9035826111 -0.5175659052 -0.7730215855
C 5.8577307913 0.8797045195 -2.879132318
C 3.2118393717 -0.3909961843 2.170668108
C 3.9719340189 -1.5095128631 2.9879944014
C 5.4028603532 -1.4457601354 2.3357208902
C 5.1943223826 -0.3084621051 1.2602657015
O 4.2582128694 0.6282636776 1.9201052368
H 2.5099794193 -1.9898540634 0.7564953781
H 4.6844531039 -1.9238048504 -0.196415562
H 2.3452224602 0.0641157867 2.6875643101
H 4.0030017619 -1.2492225199 4.0579375489
H 3.4970748283 -2.4977157237 2.8792751562
H 6.1691537123 -1.146622539 3.0685327727
H 5.7053251097 -2.4005546667 1.8766625503
H 6.1138509579 0.2152459891 0.9342667511
O -3.0899589866 1.7829623333 0.760123128
C -6.308508138 2.1393189286 1.6707868475
C -4.4533311674 -1.9312399375 -0.4650974964
C -4.4065749271 -2.5841758737 -1.9027212884
C -2.988666912 -2.1182332816 -2.4033804936
C -2.4866221457 -1.2815432666 -1.162400455
O -3.048344365 -2.0089354441 -0.0011857412
H -5.4791408344 -0.155832274 -1.3891605658
H -3.3347627357 0.5494261668 -2.1401598889
H -5.4111651382 2.4817037016 2.2257510866
H -5.1257043171 -2.4265170621 0.2617685023
H -4.4696669454 -3.6816023855 -1.8301897773
H -5.2246259215 -2.2252250945 -2.547332865
H -2.3209654685 -2.9753803205 -2.5853968191
H -3.0388388872 -1.5097418905 -3.3205073933
H -1.3865559707 -1.1631474635 -1.0695745875
H -6.9066704037 1.4834877955 2.3364672654
H -6.9149889583 3.0134178621 1.3701318313
H 6.9296488195 0.8996475974 -3.1486505072
H 5.5005079565 1.9134512476 -2.6953377187
H 5.2718613901 0.4477166185 -3.7160643079
H 0.9290047771 1.8220440465 -1.4349798499
H 1.4288488311 3.1636091661 -0.3184622296
H -0.3724651692 1.7769888984 1.3302332795
H -0.8918397443 3.1252198856 0.2543631122
$end

$rem
JOBTYPE                   OPT
METHOD                    B3LYP
DFT_D                     d3_op
BASIS                     STO-3G
GEOM_OPT_MAX_CYCLES       100
GEOM_OPT_TOL_GRADIENT     300
GEOM_OPT_TOL_DISPLACEMENT 1200
GEOM_OPT_TOL_ENERGY       100
SYMMETRY                  False
THRESH                    12
SCF_CONVERGENCE           8
MAX_SUB_FILE_NUM          128
MEM_STATIC                400
MEM_TOTAL                 4000
$end
--------------------------------------------------------------

   16   -1510.2860515614      5.09E-09 Convergence criterion met
 Total energy in the final basis set = -1510.28605156
   14   -1510.2872845853      1.71E-09 Convergence criterion met
 Total energy in the final basis set = -1510.28728459
   14   -1510.2884852791      2.62E-09 Convergence criterion met
 Total energy in the final basis set = -1510.28848528
   14   -1510.2892076510      3.72E-09 Convergence criterion met
 Total energy in the final basis set = -1510.28920765
   14   -1510.2904326406      1.55E-09 Convergence criterion met
 Total energy in the final basis set = -1510.29043264
   13   -1510.2917224765      4.81E-09 Convergence criterion met
 Total energy in the final basis set = -1510.29172248
   13   -1510.2930391144      9.64E-09 Convergence criterion met
 Total energy in the final basis set = -1510.29303911
   15   -1510.2790385657      9.95E-09 Convergence criterion met
   13   -1510.3063234147      3.09E-09 Convergence criterion met
 Total energy in the final basis set = -1510.30632341
   12   -1510.3064367035      5.08E-09 Convergence criterion met
 Total energy in the final basis set = -1510.30643670
   12   -1510.3064571549      2.96E-09 Convergence criterion met
 Total energy in the final basis set = -1510.30645715
   10   -1510.3064586553      7.94E-09 Convergence criterion met
 Total energy in the final basis set = -1510.30645866
   10   -1510.3064564814      5.33E-09 Convergence criterion met
 Total energy in the final basis set = -1510.30645648
    9   -1510.3064583038      7.30E-09 Convergence criterion met
 Total energy in the final basis set = -1510.30645830

             Standard Nuclear Orientation (Angstroms)
    I     Atom           X                Y                Z
 ----------------------------------------------------------------
    1      O       1.9095489690    -1.7135246993     1.8851095878
    2      C       2.7595198576    -1.1246523287     1.1808365979
    3      C       2.9837321949     0.4276777878     1.0723511523
    4      C       2.4679044560     1.0708735810    -0.2801772954
    5      C       1.8719542372     0.0218778308    -1.2774978291
    6      O       1.7354329623     0.6473341343    -2.5560504480
    7      C       1.0640601662    -0.2498654339    -3.5306247973
    8      C      -0.4876044795     0.0262064816    -3.5848465459
    9      O      -1.1309016748    -0.4843965682    -2.3558117842
   10      C      -1.1288713195     0.5302810407    -1.3391585618
   11      C      -1.3313506814    -0.1209049615     0.0769094658
   12      C      -2.7131177475     0.2289760981     0.7561378806
   13      C      -3.6933905260     0.8941053650    -0.2617471115
   14      O      -3.5245413641     0.9871921792    -1.5004300130
   15      O       3.7961876328    -1.7857043597     0.4464741758
   16      O      -4.8536555101     1.3626303818     0.4254345467
   17      O      -0.8114348793     1.7249247605    -1.5712448936
   18      C      -5.8088177045     1.9590320312    -0.5380613948
   19      C      -1.3908628156    -1.7063799752     0.0532275972
   20      C      -1.0326345944    -2.2324875293     1.4919292688
   21      C      -2.3121251945    -1.7916055485     2.2939848558
   22      C      -3.2267744621    -1.2284421776     1.1304659149
   23      O      -2.8392731555    -2.0136623786    -0.0616074128
   24      H      -0.4869404493     0.2533430817     0.7068525558
   25      H      -2.6059787486     0.8745533971     1.6460894832
   26      H      -0.8235270005    -2.1624731024    -0.7794815249
   27      H      -0.9414506910    -3.3303414210     1.4728142337
   28      H      -0.0815763225    -1.8105180792     1.8666614979
   29      H      -2.7974645710    -2.6443554576     2.7949518109
   30      H      -2.0959886748    -1.0166621701     3.0468119728
   31      H      -4.3181418377    -1.2939280838     1.3084233676
   32      O       1.5501308436    -1.1620827294    -1.0240342301
   33      C       3.5671158668    -3.2481890336     0.4691936620
   34      C       2.0848561159     1.1859740677     2.1319667394
   35      C       2.5948368212     2.6728009726     2.2612501054
   36      C       2.0606733798     3.3018514567     0.9184930735
   37      C       1.3428531609     2.0642817771     0.2603327383
   38      O       0.7895171577     1.3354802353     1.4274023684
   39      H       4.0598418731     0.6326048852     1.2154009829
   40      H       3.2657089382     1.6301990984    -0.8000146398
   41      H       2.6153361989    -3.5090279509    -0.0374926833
   42      H       1.9454553413     0.6362063298     3.0829806122
   43      H       2.1466193481     3.1593615887     3.1422003721
   44      H       3.6918859179     2.7258728454     2.3484468118
   45      H       1.3364264833     4.1091052167     1.1114798517
   46      H       2.8689613186     3.6959495431     0.2827440716
   47      H       0.5201723690     2.2586578612    -0.4722983870
   48      H       3.5364814687    -3.6420976263     1.5055853784
   49      H       4.4152713746    -3.7010268722    -0.0764618693
   50      H      -6.6581335279     2.3296312883     0.0648313022
   51      H      -6.1722405539     1.2081766022    -1.2693629165
   52      H      -5.3514818600     2.8015998745    -1.0956664542
   53      H      -0.6719475638     1.1161921090    -3.6949112235
   54      H      -0.9309685929    -0.5278051710    -4.4370261760
   55      H       1.2420199228    -1.3106276114    -3.2523776028
   56      H       1.5172428875    -0.0327680593    -4.5196328948
 ----------------------------------------------------------------

    8   -1510.3064583923      9.86E-09 Convergence criterion met
 Total energy in the final basis set = -1510.30645839
 Final energy is   -1510.30645839228
 **  OPTIMIZATION CONVERGED  **

                    Orbital Energies (a.u.)
 --------------------------------------------------------------

 Alpha MOs
 -- Occupied --
-18.940 -18.936 -18.927 -18.922 -18.896 -18.885 -18.876 -18.868
-18.867 -18.857 -10.107 -10.097 -10.096 -10.090 -10.073 -10.067
-10.063 -10.062 -10.058 -10.047 -10.045 -10.039 -10.037 -10.033
-10.025 -10.021 -10.018 -10.005 -10.001  -9.988  -1.021  -1.011
 -1.005  -0.997  -0.975  -0.952  -0.944  -0.935  -0.930  -0.924
 -0.764  -0.745  -0.725  -0.714  -0.703  -0.700  -0.684  -0.658
 -0.657  -0.614  -0.590  -0.572  -0.545  -0.538  -0.529  -0.517
 -0.511  -0.500  -0.485  -0.470  -0.462  -0.454  -0.449  -0.438
 -0.430  -0.426  -0.417  -0.414  -0.408  -0.406  -0.401  -0.395
 -0.391  -0.378  -0.368  -0.366  -0.358  -0.355  -0.351  -0.345
 -0.343  -0.340  -0.332  -0.328  -0.324  -0.316  -0.313  -0.306
 -0.305  -0.302  -0.293  -0.287  -0.283  -0.276  -0.273  -0.271
 -0.260  -0.254  -0.250  -0.247  -0.235  -0.233  -0.213  -0.191
 -0.177  -0.170  -0.164  -0.154  -0.152  -0.150  -0.148  -0.141
 -0.126

          Ground-State Mulliken Net Atomic Charges

     Atom                 Charge (a.u.)
  ----------------------------------------
      1 O                    -0.219189
      2 C                     0.219148
      3 C                    -0.082170
      4 C                    -0.080263
      5 C                     0.211545
      6 O                    -0.168918
      7 C                    -0.053783
      8 C                    -0.051931
      9 O                    -0.169003
     10 C                     0.217345
     11 C                    -0.098916
     12 C                    -0.078345
     13 C                     0.214340
     14 O                    -0.207288
     15 O                    -0.172973
     16 O                    -0.167975
     17 O                    -0.234105
     18 C                    -0.128111
     19 C                     0.022213
     20 C                    -0.152245
     21 C                    -0.144686
     22 C                     0.024202
     23 O                    -0.196117
     24 H                     0.112620
     25 H                     0.086756
     26 H                     0.091162
     27 H                     0.069917
     28 H                     0.096015
     29 H                     0.072591
     30 H                     0.071387
     31 H                     0.079071
     32 O                    -0.211597
     33 C                    -0.128239
     34 C                     0.026178
     35 C                    -0.143873
     36 C                    -0.143982
     37 C                     0.009456
     38 O                    -0.192835
     39 H                     0.085430
     40 H                     0.088023
     41 H                     0.093741
     42 H                     0.088301
     43 H                     0.078130
     44 H                     0.073626
     45 H                     0.079424
     46 H                     0.074266
     47 H                     0.114897
     48 H                     0.088079
     49 H                     0.087601
     50 H                     0.090832
     51 H                     0.090167
     52 H                     0.090775
     53 H                     0.102013
     54 H                     0.089988
     55 H                     0.098093
     56 H                     0.089214
  ----------------------------------------
  Sum of atomic charges =    -0.000000

                    Cartesian Multipole Moments
 -----------------------------------------------------------------
    Charge (ESU x 10^10)
                -0.0000
    Dipole Moment (Debye)
         X       1.8901      Y       1.2448      Z      -0.0925
       Tot       2.2651
    Quadrupole Moments (Debye-Ang)
        XX    -146.6410     XY      -4.8222     YY    -158.0466
        XZ      -1.0045     YZ       3.3298     ZZ    -152.3649

 Total job time:  144.05s(wall), 6856.94s(cpu)
        *  Thank you very much for using Q-Chem.  Have a nice day.  *
