 Q-Chem 5.0, Q-Chem, Inc., Pleasanton, CA (2017)
 Q-Chem 5.0.1 for Intel X86 EM64T Linux

User input:
--------------------------------------------------------------
$molecule
0  1
O -4.9130843683 1.4420693994 1.1277704671
C -5.1096990626 0.6479180074 0.1838094125
C -4.607908914 -0.8372731952 0.0578774883
C -3.2030965081 -0.9843864671 -0.6553108475
C -2.5680913009 0.3850170092 -1.0780416109
O -1.1959708055 0.1326538478 -1.3588985775
C -0.4853437259 1.3574244924 -1.783090093
C 0.9920954648 0.9331672901 -2.1213567354
O 1.9430048731 1.1315741841 -1.004903831
C 1.7015781325 0.208682561 0.0685787607
C 2.8053456844 0.4208544486 1.1707147369
C 4.178936048 -0.307851505 0.8654706684
C 4.1726421303 -1.1343203572 -0.4639063154
O 3.2355974974 -1.2626397697 -1.2832547227
O -5.9385888564 0.9274260568 -0.9545988152
O 5.4547059047 -1.7472797485 -0.6171254331
O 0.7459547662 -0.5934494075 0.1356652479
C 5.4964237521 -2.5297083944 -1.8747154708
C 3.2909768425 1.9302738103 1.2605540084
C 4.0771394319 2.1247723281 2.6174364974
C 5.4423766786 1.4164729422 2.2845032744
C 5.1771902015 0.9297983766 0.8061513158
O 4.3514113873 2.0118645444 0.2279894673
H 2.3816777822 0.0676892634 2.1273734067
H 4.4585393778 -0.9934294078 1.6862796522
H 2.5005005435 2.6789690409 1.0615980754
H 4.2191855848 3.1962692395 2.8298372421
H 3.5536507791 1.6619133077 3.4694031653
H 6.2831929246 2.1280461756 2.3081551347
H 5.6684983704 0.5799665053 2.9649486534
H 6.0829654136 0.7530292007 0.1940821594
O -3.1188775559 1.5060182346 -1.1561463114
C -6.3666513625 2.3428222481 -0.9245117193
C -4.2769231398 -1.4540040696 1.4829599093
C -4.1754229533 -3.0242225557 1.3385942163
C -2.78123219 -3.1736608579 0.6229261144
C -2.3379497769 -1.6644312668 0.4947602208
O -2.8762171018 -1.0369090837 1.7233799033
H -5.3811992336 -1.4168200234 -0.4764241378
H -3.2651587138 -1.6305523848 -1.5502202987
H -5.494684067 3.0253113845 -0.9914374435
H -4.9323450734 -1.0915464871 2.2983007458
H -4.1740584142 -3.5031662483 2.3306759384
H -5.0058284579 -3.4411420503 0.7464679977
H -2.06538592 -3.7335517488 1.2455444525
H -2.8575631285 -3.6687939813 -0.3582388107
H -1.246769118 -1.4768952203 0.3992923049
H -6.9329774201 2.5819592668 -0.0009727112
H -7.0183468048 2.4864343282 -1.8060833489
H 6.5077580595 -2.9734526231 -1.9236751908
H 5.3298603683 -1.8846953054 -2.7616140779
H 4.7354233081 -3.3367497263 -1.8783678548
H 0.9911034093 -0.1274869852 -2.4566213605
H 1.3826790234 1.5739469781 -2.9371521883
H -0.4948598478 2.1284284803 -0.9807612427
H -0.970903902 1.7958797587 -2.6830752951
$end

$rem
JOBTYPE                   OPT
METHOD                    B3LYP
DFT_D                     d3_op
BASIS                     STO-3G
GEOM_OPT_MAX_CYCLES       100
GEOM_OPT_TOL_GRADIENT     300
GEOM_OPT_TOL_DISPLACEMENT 1200
GEOM_OPT_TOL_ENERGY       100
SYMMETRY                  False
THRESH                    12
SCF_CONVERGENCE           8
MAX_SUB_FILE_NUM          128
MEM_STATIC                400
MEM_TOTAL                 4000
$end
--------------------------------------------------------------

   16   -1510.2863062349      4.79E-09 Convergence criterion met
 Total energy in the final basis set = -1510.28630623
   14   -1510.2873136638      1.92E-09 Convergence criterion met
 Total energy in the final basis set = -1510.28731366
   14   -1510.2883467342      2.37E-09 Convergence criterion met
 Total energy in the final basis set = -1510.28834673
   14   -1510.2886402603      2.37E-09 Convergence criterion met
 Total energy in the final basis set = -1510.28864026
   14   -1510.2904653621      4.39E-09 Convergence criterion met
 Total energy in the final basis set = -1510.29046536
   13   -1510.2915901511      7.13E-09 Convergence criterion met
 Total energy in the final basis set = -1510.29159015
   13   -1510.2927177387      8.35E-09 Convergence criterion met
 Total energy in the final basis set = -1510.29271774
   14   -1510.2940651912      2.80E-09 Convergence criterion met
   13   -1510.3063117666      7.52E-09 Convergence criterion met
 Total energy in the final basis set = -1510.30631177
   13   -1510.3058640899      3.24E-09 Convergence criterion met
 Total energy in the final basis set = -1510.30586409
   13   -1510.3063937006      5.13E-09 Convergence criterion met
 Total energy in the final basis set = -1510.30639370
   11   -1510.3063796465      4.52E-09 Convergence criterion met
 Total energy in the final basis set = -1510.30637965
   11   -1510.3063914793      2.23E-09 Convergence criterion met
 Total energy in the final basis set = -1510.30639148
    9   -1510.3063961068      6.85E-09 Convergence criterion met
 Total energy in the final basis set = -1510.30639611

             Standard Nuclear Orientation (Angstroms)
    I     Atom           X                Y                Z
 ----------------------------------------------------------------
    1      O       1.8619433436    -1.6465856061     1.9813330027
    2      C       2.7269624818    -1.1106185102     1.2535341900
    3      C       2.9805901325     0.4301782315     1.0685273123
    4      C       2.4853024889     1.0140968959    -0.3177472329
    5      C       1.8748321689    -0.0731454754    -1.2642642601
    6      O       1.7604858619     0.4857994198    -2.5754219068
    7      C       1.0777449898    -0.4495424727    -3.5054584570
    8      C      -0.4672956429    -0.1452943443    -3.5880369089
    9      O      -1.1305842622    -0.5780551392    -2.3397524145
   10      C      -1.1138236496     0.4883375058    -1.3775324954
   11      C      -1.3415761998    -0.0812808415     0.0693130310
   12      C      -2.7174348865     0.3367801350     0.7195128096
   13      C      -3.6797088400     0.9604030100    -0.3414532983
   14      O      -3.4981199933     0.9874858250    -1.5814445106
   15      O       3.7550281272    -1.8269331497     0.5602125612
   16      O      -4.8410129158     1.4757430092     0.3092481463
   17      O      -0.7676577844     1.6617813431    -1.6695326751
   18      C      -5.7803234052     2.0325419577    -0.6927661473
   19      C      -1.4372901665    -1.6639699412     0.1332872302
   20      C      -1.0930464264    -2.1137110369     1.6009140990
   21      C      -2.3680013634    -1.6065121948     2.3711161395
   22      C      -3.2644787585    -1.0846196665     1.1748604299
   23      O      -2.8919250646    -1.9448355237     0.0303156624
   24      H      -0.4930702545     0.3065804416     0.6851584516
   25      H      -2.5990482849     1.0324306781     1.5692165086
   26      H      -0.8779113073    -2.1784831517    -0.6701593979
   27      H      -1.0198786090    -3.2121647151     1.6454981641
   28      H      -0.1363044136    -1.6865554922     1.9543592784
   29      H      -2.8746364433    -2.4245825675     2.9076156321
   30      H      -2.1422152870    -0.8020927591     3.0896597824
   31      H      -4.3575700129    -1.1146201811     1.3515361524
   32      O       1.5281297444    -1.2360483891    -0.9521470173
   33      C       3.5002270469    -3.2820150939     0.6571848340
   34      C       2.0877200156     1.2540286347     2.0830036233
   35      C       2.6198189768     2.7368880024     2.1480092398
   36      C       2.1110277584     3.3088561468     0.7698777855
   37      C       1.3760941996     2.0542384555     0.1649553905
   38      O       0.8006256054     1.3924102773     1.3607885616
   39      H       4.0592357441     0.6227673849     1.2094347539
   40      H       3.2970690534     1.5299907989    -0.8606676009
   41      H       2.5405397392    -3.5510198837     0.1702140401
   42      H       1.9307176757     0.7513063126     3.0569521346
   43      H       2.1673851078     3.2710752340     2.9986713163
   44      H       3.7163297373     2.7787994635     2.2474340367
   45      H       1.4001687179     4.1376622054     0.9153909259
   46      H       2.9331652480     3.6575763774     0.1252164696
   47      H       0.5629920789     2.2279849445    -0.5832991767
   48      H       3.4704438404    -3.6236617012     1.7120328795
   49      H       4.3365714490    -3.7763883207     0.1295944619
   50      H      -6.6416542888     2.4219523788    -0.1194960669
   51      H      -6.1277469816     1.2542769827    -1.4027676307
   52      H      -5.3158351671     2.8563168037    -1.2722299231
   53      H      -0.6279589335     0.9410639050    -3.7559263303
   54      H      -0.9152294875    -0.7340205068    -4.4140963981
   55      H       1.2310348779    -1.4966132925    -3.1669943772
   56      H       1.5436696171    -0.2973397386    -4.5006499179
 ----------------------------------------------------------------

    9   -1510.3063963059      4.84E-09 Convergence criterion met
 Total energy in the final basis set = -1510.30639631
 Final energy is   -1510.30639630587
 **  OPTIMIZATION CONVERGED  **

                    Orbital Energies (a.u.)
 --------------------------------------------------------------

 Alpha MOs
 -- Occupied --
-18.940 -18.936 -18.927 -18.922 -18.896 -18.885 -18.877 -18.868
-18.867 -18.857 -10.107 -10.097 -10.096 -10.090 -10.073 -10.066
-10.063 -10.062 -10.058 -10.047 -10.045 -10.039 -10.036 -10.033
-10.025 -10.021 -10.018 -10.005 -10.002  -9.988  -1.021  -1.011
 -1.004  -0.997  -0.975  -0.952  -0.944  -0.935  -0.930  -0.924
 -0.764  -0.745  -0.725  -0.714  -0.703  -0.700  -0.684  -0.658
 -0.658  -0.614  -0.590  -0.572  -0.545  -0.538  -0.529  -0.517
 -0.511  -0.500  -0.484  -0.470  -0.462  -0.454  -0.449  -0.438
 -0.430  -0.426  -0.417  -0.414  -0.408  -0.406  -0.401  -0.395
 -0.391  -0.378  -0.368  -0.366  -0.358  -0.355  -0.351  -0.345
 -0.343  -0.340  -0.333  -0.328  -0.324  -0.316  -0.313  -0.306
 -0.305  -0.302  -0.293  -0.287  -0.283  -0.277  -0.273  -0.271
 -0.260  -0.254  -0.250  -0.247  -0.234  -0.233  -0.213  -0.191
 -0.177  -0.170  -0.164  -0.154  -0.152  -0.150  -0.148  -0.141
 -0.126

          Ground-State Mulliken Net Atomic Charges

     Atom                 Charge (a.u.)
  ----------------------------------------
      1 O                    -0.219210
      2 C                     0.219124
      3 C                    -0.082229
      4 C                    -0.080174
      5 C                     0.211485
      6 O                    -0.168837
      7 C                    -0.053860
      8 C                    -0.051966
      9 O                    -0.169050
     10 C                     0.217196
     11 C                    -0.099062
     12 C                    -0.078392
     13 C                     0.214523
     14 O                    -0.207210
     15 O                    -0.172991
     16 O                    -0.167990
     17 O                    -0.234168
     18 C                    -0.128096
     19 C                     0.022146
     20 C                    -0.152066
     21 C                    -0.144669
     22 C                     0.024185
     23 O                    -0.196174
     24 H                     0.112741
     25 H                     0.086832
     26 H                     0.091041
     27 H                     0.069956
     28 H                     0.095840
     29 H                     0.072645
     30 H                     0.071403
     31 H                     0.079167
     32 O                    -0.211600
     33 C                    -0.128186
     34 C                     0.026143
     35 C                    -0.143860
     36 C                    -0.143986
     37 C                     0.009546
     38 O                    -0.192932
     39 H                     0.085432
     40 H                     0.088018
     41 H                     0.093849
     42 H                     0.088363
     43 H                     0.078183
     44 H                     0.073687
     45 H                     0.079406
     46 H                     0.074259
     47 H                     0.114895
     48 H                     0.087858
     49 H                     0.087619
     50 H                     0.090849
     51 H                     0.090491
     52 H                     0.090450
     53 H                     0.102081
     54 H                     0.089952
     55 H                     0.098177
     56 H                     0.089165
  ----------------------------------------
  Sum of atomic charges =    -0.000000

                    Cartesian Multipole Moments
 -----------------------------------------------------------------
    Charge (ESU x 10^10)
                -0.0000
    Dipole Moment (Debye)
         X       1.9055      Y       1.2024      Z      -0.1354
       Tot       2.2572
    Quadrupole Moments (Debye-Ang)
        XX    -146.8006     XY      -5.1181     YY    -157.4791
        XZ      -0.5965     YZ       3.6518     ZZ    -152.7360

 Total job time:  115.48s(wall), 5497.19s(cpu)
        *  Thank you very much for using Q-Chem.  Have a nice day.  *
