 Q-Chem 5.0, Q-Chem, Inc., Pleasanton, CA (2017)
 Q-Chem 5.0.1 for Intel X86 EM64T Linux

User input:
--------------------------------------------------------------
$molecule
0  1
O -3.94934 -3.66094 2.70899
C -3.26408 -4.56952 2.26188
C -3.36658 -6.02376 2.66595
C -2.47629 -6.49466 3.82763
C -1.71428 -5.42048 4.57165
O -1.25231 -5.91618 5.75752
C -0.50863 -4.95744 6.51714
C 0.02399 -5.59798 7.7947
O -0.87058 -5.33042 8.88605
C -2.06793 -5.96449 8.82744
C -2.9279 -5.71128 10.04276
C -2.59959 -6.58578 11.26166
C -1.26858 -7.30905 11.21673
O -0.4534 -7.23767 10.30847
O -2.2407 -4.26445 1.42119
O -0.96963 -8.06993 12.30266
O -2.29044 -6.91092 8.08455
C 0.19942 -8.78623 12.45152
C -2.75766 -4.30754 10.66965
C -4.01048 -3.94431 11.4655
C -3.88372 -4.89301 12.64054
C -2.50811 -5.5055 12.35161
O -1.80564 -4.48081 11.69099
H -3.98646 -5.80315 9.70916
H -3.38171 -7.35625 11.43891
H -2.53678 -3.51558 9.92079
H -3.86505 -2.90292 11.83303
H -4.97143 -4.00248 10.91057
H -3.86645 -4.29163 13.57641
H -4.6679 -5.67842 12.70393
H -2.04667 -5.88469 13.28994
O -1.56285 -4.25708 4.21931
C -1.95421 -2.99098 0.97588
C -4.76755 -6.33315 3.23833
C -5.06868 -7.82512 3.11527
C -4.14409 -8.38043 4.1723
C -3.57505 -7.08001 4.75042
O -4.62557 -6.1584 4.62267
H -3.2502 -6.62533 1.7365
H -1.74278 -7.278 3.53528
H -1.71802 -2.32833 1.83579
H -5.58013 -5.74781 2.75355
H -6.12054 -7.97827 3.44794
H -4.93977 -8.25226 2.09753
H -4.76103 -8.90685 4.93462
H -3.34361 -9.05565 3.79982
H -3.23267 -7.27408 5.78489
H -2.81818 -2.58014 0.41093
H -1.07324 -3.03055 0.30301
H 0.18088 -9.31418 13.42691
H 1.07333 -8.10042 12.43235
H 0.2937 -9.53811 11.63901
H 0.30168 -6.66918 7.67844
H 0.95399 -5.05029 8.05932
H -1.0714 -4.02155 6.73763
H 0.38467 -4.69407 5.90399
$end

$opt
CONSTRAINT
tors           1           2           3           4     -90.898
tors           3           4           5           6    +164.585
tors           4           5           6           7    +179.532
tors           5           6           7           8    -177.563
tors           6           7           8           9     -95.655
tors           7           8           9          10     +69.686
tors           8           9          10          11    +176.416
tors           9          10          11          12     -81.667
tors          11          12          13          14      +0.715
ENDCONSTRAINT
$end

$rem
JOBTYPE                   OPT
METHOD                    B3LYP
DFT_D                     d3_op
BASIS                     STO-3G
GEOM_OPT_MAX_CYCLES       100
GEOM_OPT_TOL_GRADIENT     300
GEOM_OPT_TOL_DISPLACEMENT 1200
GEOM_OPT_TOL_ENERGY       100
SYMMETRY                  False
THRESH                    12
SCF_CONVERGENCE           8
MAX_SUB_FILE_NUM          128
MEM_STATIC                400
MEM_TOTAL                 4000
$end
--------------------------------------------------------------

   15   -1510.1492372956      7.79E-09 Convergence criterion met
 Total energy in the final basis set = -1510.14923730
   13   -1510.2194230965      8.19E-09 Convergence criterion met
 Total energy in the final basis set = -1510.21942310
   13   -1510.2565398993      9.24E-09 Convergence criterion met
 Total energy in the final basis set = -1510.25653990
   14   -1510.2733225824      1.99E-09 Convergence criterion met
 Total energy in the final basis set = -1510.27332258
   13   -1510.2802476191      7.83E-09 Convergence criterion met
 Total energy in the final basis set = -1510.28024762
   13   -1510.2830726457      2.62E-09 Convergence criterion met
 Total energy in the final basis set = -1510.28307265
   13   -1510.2845442076      2.50E-09 Convergence criterion met
 Total energy in the final basis set = -1510.28454421
   13   -1510.2851139341      4.21E-09 Convergence criterion met
   12   -1510.2861730437      2.87E-09 Convergence criterion met
 Total energy in the final basis set = -1510.28617304
   11   -1510.2862373270      5.11E-09 Convergence criterion met
 Total energy in the final basis set = -1510.28623733
   11   -1510.2862796751      2.61E-09 Convergence criterion met
 Total energy in the final basis set = -1510.28627968
    9   -1510.2863128372      9.82E-09 Convergence criterion met
 Total energy in the final basis set = -1510.28631284
   11   -1510.2863316413      2.72E-09 Convergence criterion met
 Total energy in the final basis set = -1510.28633164
   11   -1510.2863369433      1.93E-09 Convergence criterion met
 Total energy in the final basis set = -1510.28633694

             Standard Nuclear Orientation (Angstroms)
    I     Atom           X                Y                Z
 ----------------------------------------------------------------
    1      O      -4.9130843683     1.4420693994     1.1277704671
    2      C      -5.1096990626     0.6479180074     0.1838094125
    3      C      -4.6079089140    -0.8372731952     0.0578774883
    4      C      -3.2030965081    -0.9843864671    -0.6553108475
    5      C      -2.5680913009     0.3850170092    -1.0780416109
    6      O      -1.1959708055     0.1326538478    -1.3588985775
    7      C      -0.4853437259     1.3574244924    -1.7830900930
    8      C       0.9920954648     0.9331672901    -2.1213567354
    9      O       1.9430048731     1.1315741841    -1.0049038310
   10      C       1.7015781325     0.2086825610     0.0685787607
   11      C       2.8053456844     0.4208544486     1.1707147369
   12      C       4.1789360480    -0.3078515050     0.8654706684
   13      C       4.1726421303    -1.1343203572    -0.4639063154
   14      O       3.2355974974    -1.2626397697    -1.2832547227
   15      O      -5.9385888564     0.9274260568    -0.9545988152
   16      O       5.4547059047    -1.7472797485    -0.6171254331
   17      O       0.7459547662    -0.5934494075     0.1356652479
   18      C       5.4964237521    -2.5297083944    -1.8747154708
   19      C       3.2909768425     1.9302738103     1.2605540084
   20      C       4.0771394319     2.1247723281     2.6174364974
   21      C       5.4423766786     1.4164729422     2.2845032744
   22      C       5.1771902015     0.9297983766     0.8061513158
   23      O       4.3514113873     2.0118645444     0.2279894673
   24      H       2.3816777822     0.0676892634     2.1273734067
   25      H       4.4585393778    -0.9934294078     1.6862796522
   26      H       2.5005005435     2.6789690409     1.0615980754
   27      H       4.2191855848     3.1962692395     2.8298372421
   28      H       3.5536507791     1.6619133077     3.4694031653
   29      H       6.2831929246     2.1280461756     2.3081551347
   30      H       5.6684983704     0.5799665053     2.9649486534
   31      H       6.0829654136     0.7530292007     0.1940821594
   32      O      -3.1188775559     1.5060182346    -1.1561463114
   33      C      -6.3666513625     2.3428222481    -0.9245117193
   34      C      -4.2769231398    -1.4540040696     1.4829599093
   35      C      -4.1754229533    -3.0242225557     1.3385942163
   36      C      -2.7812321900    -3.1736608579     0.6229261144
   37      C      -2.3379497769    -1.6644312668     0.4947602208
   38      O      -2.8762171018    -1.0369090837     1.7233799033
   39      H      -5.3811992336    -1.4168200234    -0.4764241378
   40      H      -3.2651587138    -1.6305523848    -1.5502202987
   41      H      -5.4946840670     3.0253113845    -0.9914374435
   42      H      -4.9323450734    -1.0915464871     2.2983007458
   43      H      -4.1740584142    -3.5031662483     2.3306759384
   44      H      -5.0058284579    -3.4411420503     0.7464679977
   45      H      -2.0653859200    -3.7335517488     1.2455444525
   46      H      -2.8575631285    -3.6687939813    -0.3582388107
   47      H      -1.2467691180    -1.4768952203     0.3992923049
   48      H      -6.9329774201     2.5819592668    -0.0009727112
   49      H      -7.0183468048     2.4864343282    -1.8060833489
   50      H       6.5077580595    -2.9734526231    -1.9236751908
   51      H       5.3298603683    -1.8846953054    -2.7616140779
   52      H       4.7354233081    -3.3367497263    -1.8783678548
   53      H       0.9911034093    -0.1274869852    -2.4566213605
   54      H       1.3826790234     1.5739469781    -2.9371521883
   55      H      -0.4948598478     2.1284284803    -0.9807612427
   56      H      -0.9709039020     1.7958797587    -2.6830752951
 ----------------------------------------------------------------

    9   -1510.2863372314      6.36E-09 Convergence criterion met
 Total energy in the final basis set = -1510.28633723
 Final energy is   -1510.28633723137
 **  OPTIMIZATION CONVERGED  **

                    Orbital Energies (a.u.)
 --------------------------------------------------------------

 Alpha MOs
 -- Occupied --
-18.943 -18.933 -18.924 -18.913 -18.888 -18.886 -18.873 -18.873
-18.867 -18.852 -10.107 -10.096 -10.095 -10.081 -10.072 -10.070
-10.070 -10.062 -10.059 -10.048 -10.047 -10.041 -10.041 -10.034
-10.028 -10.023 -10.021 -10.019 -10.010 -10.008  -1.020  -1.012
 -1.000  -0.990  -0.970  -0.957  -0.944  -0.935  -0.930  -0.916
 -0.764  -0.752  -0.725  -0.718  -0.710  -0.702  -0.687  -0.667
 -0.647  -0.612  -0.593  -0.575  -0.546  -0.538  -0.533  -0.526
 -0.513  -0.505  -0.484  -0.472  -0.461  -0.448  -0.443  -0.442
 -0.434  -0.421  -0.420  -0.417  -0.411  -0.405  -0.398  -0.394
 -0.391  -0.380  -0.377  -0.363  -0.356  -0.353  -0.350  -0.340
 -0.337  -0.335  -0.332  -0.327  -0.323  -0.322  -0.314  -0.310
 -0.306  -0.303  -0.300  -0.294  -0.290  -0.282  -0.277  -0.267
 -0.263  -0.261  -0.247  -0.242  -0.237  -0.235  -0.221  -0.186
 -0.177  -0.167  -0.161  -0.157  -0.152  -0.145  -0.139  -0.133
 -0.132

          Ground-State Mulliken Net Atomic Charges

     Atom                 Charge (a.u.)
  ----------------------------------------
      1 O                    -0.217858
      2 C                     0.213588
      3 C                    -0.082172
      4 C                    -0.078077
      5 C                     0.213769
      6 O                    -0.165095
      7 C                    -0.047315
      8 C                    -0.045993
      9 O                    -0.170089
     10 C                     0.216976
     11 C                    -0.081336
     12 C                    -0.078622
     13 C                     0.213664
     14 O                    -0.208800
     15 O                    -0.174427
     16 O                    -0.169593
     17 O                    -0.213051
     18 C                    -0.128156
     19 C                     0.026759
     20 C                    -0.144463
     21 C                    -0.143388
     22 C                     0.025489
     23 O                    -0.186988
     24 H                     0.084891
     25 H                     0.086949
     26 H                     0.085834
     27 H                     0.078163
     28 H                     0.074571
     29 H                     0.078168
     30 H                     0.073880
     31 H                     0.085873
     32 O                    -0.212741
     33 C                    -0.128176
     34 C                     0.025068
     35 C                    -0.144542
     36 C                    -0.144272
     37 C                     0.017421
     38 O                    -0.191143
     39 H                     0.082083
     40 H                     0.083750
     41 H                     0.092093
     42 H                     0.083642
     43 H                     0.075457
     44 H                     0.070966
     45 H                     0.076348
     46 H                     0.071033
     47 H                     0.108052
     48 H                     0.085110
     49 H                     0.084797
     50 H                     0.092075
     51 H                     0.090640
     52 H                     0.090666
     53 H                     0.100062
     54 H                     0.090359
     55 H                     0.091062
     56 H                     0.087040
  ----------------------------------------
  Sum of atomic charges =    -0.000000

                    Cartesian Multipole Moments
 -----------------------------------------------------------------
    Charge (ESU x 10^10)
                -0.0000
    Dipole Moment (Debye)
         X       2.6421      Y      -1.7012      Z      -1.1436
       Tot       3.3440
    Quadrupole Moments (Debye-Ang)
        XX    -146.8640     XY      -0.3168     YY    -154.5214
        XZ       6.5428     YZ       0.5931     ZZ    -153.9124

 Total job time:  49.84s(wall), 2372.35s(cpu)
        *  Thank you very much for using Q-Chem.  Have a nice day.  *
