 Q-Chem 5.0, Q-Chem, Inc., Pleasanton, CA (2017)
 Q-Chem 5.0.1 for Intel X86 EM64T Linux

User input:
--------------------------------------------------------------
$molecule
0  1
O -5.1091442654 -0.3606366301 1.7700519982
C -5.2282968529 0.2476230454 0.6854443864
C -4.7493218085 -0.2272730742 -0.7363462031
C -3.2412165615 0.1261557436 -1.0583373382
C -2.5513006691 1.0006150327 0.0424599077
O -1.1768889802 1.1218986296 -0.3113508507
C -0.4365971457 1.938968723 0.6792687368
C 1.0187354204 2.118268292 0.1133228559
O 1.9384273309 1.0876247038 0.6441327694
C 1.8822103401 -0.1007574133 -0.161835159
C 2.9883887224 -1.1033830914 0.3354377505
C 4.4461013262 -0.798043772 -0.202302717
C 4.5134021028 0.4476744836 -1.1484946939
O 3.5573895075 1.1308976037 -1.5789832378
O -5.9257050536 1.4920236313 0.5247775816
O 5.8826734924 0.7025311853 -1.4681525146
O 1.0338073226 -0.3186304286 -1.0531771829
C 5.984567054 1.8866779052 -2.3531681929
C 3.2297200537 -1.0070203267 1.9032648903
C 4.0182791682 -2.295135312 2.3683703841
C 5.4648594545 -1.9756055916 1.8370267474
C 5.2341736038 -0.5673214295 1.1593937589
O 4.2299942808 0.0783838536 2.0324057431
H 2.6676900638 -2.1164323267 0.0344836094
H 4.8616693016 -1.6638932259 -0.749732279
H 2.3231631463 -0.7698369594 2.4924182334
H 4.0006495881 -2.3817521777 3.4664046734
H 3.5982752314 -3.2169776814 1.9349824537
H 6.1890325738 -1.8899858113 2.6627696608
H 5.8324996228 -2.7265616648 1.1195106227
H 6.1365310803 0.0663720494 1.0576321297
O -3.0758296431 1.5286298411 1.0488877821
C -6.3262766937 2.0104435758 1.8512033756
C -4.6854543272 -1.81413723 -0.7929418571
C -4.5369858375 -2.2655311532 -2.3002691041
C -3.0248459242 -1.9263095506 -2.5745249328
C -2.593503752 -1.3191455357 -1.1829428739
O -3.360080984 -2.1221275963 -0.2038554953
H -5.4295605427 0.1945185829 -1.4967066324
H -3.1567855863 0.6718510632 -2.0163538518
H -5.4396273498 2.2126331261 2.4865687291
H -5.4857413706 -2.3227225074 -0.221426476
H -4.734151427 -3.3447493986 -2.3997150215
H -5.2236629484 -1.7184066432 -2.965921136
H -2.4403547104 -2.83374979 -2.7951429118
H -2.8900463503 -1.2101090914 -3.4005479795
H -1.5065131743 -1.3448232123 -0.9671268183
H -6.9894534529 1.300363053 2.3867943255
H -6.870384633 2.9541973004 1.6622863038
H 7.062198653 2.0201565274 -2.5605489386
H 5.5848084371 2.7971652835 -1.8617370047
H 5.4383131821 1.7320185394 -3.3060649232
H 0.9855444522 2.0948093409 -0.9967716674
H 1.4329550238 3.0879376196 0.4564898649
H -0.4034989476 1.4348312463 1.670327435
H -0.9299982087 2.9269379588 0.8116031392
$end

$rem
JOBTYPE                   OPT
METHOD                    B3LYP
DFT_D                     d3_op
BASIS                     STO-3G
GEOM_OPT_MAX_CYCLES       100
GEOM_OPT_TOL_GRADIENT     300
GEOM_OPT_TOL_DISPLACEMENT 1200
GEOM_OPT_TOL_ENERGY       100
SYMMETRY                  False
THRESH                    12
SCF_CONVERGENCE           8
MAX_SUB_FILE_NUM          128
MEM_STATIC                400
MEM_TOTAL                 4000
$end
--------------------------------------------------------------

   16   -1510.2857027654      4.63E-09 Convergence criterion met
 Total energy in the final basis set = -1510.28570277
   14   -1510.2868602323      5.76E-09 Convergence criterion met
 Total energy in the final basis set = -1510.28686023
   14   -1510.2883671228      5.80E-09 Convergence criterion met
 Total energy in the final basis set = -1510.28836712
   14   -1510.2880939268      8.48E-09 Convergence criterion met
 Total energy in the final basis set = -1510.28809393
   14   -1510.2893886374      2.57E-09 Convergence criterion met
 Total energy in the final basis set = -1510.28938864
   13   -1510.2905467615      6.69E-09 Convergence criterion met
 Total energy in the final basis set = -1510.29054676
   14   -1510.2920574976      3.27E-09 Convergence criterion met
 Total energy in the final basis set = -1510.29205750
   14   -1510.2936656786      2.17E-09 Convergence criterion met
   12   -1510.3049428366      5.60E-09 Convergence criterion met
 Total energy in the final basis set = -1510.30494284
   12   -1510.3050939515      2.96E-09 Convergence criterion met
 Total energy in the final basis set = -1510.30509395
   11   -1510.3050591922      7.27E-09 Convergence criterion met
 Total energy in the final basis set = -1510.30505919
   11   -1510.3050940471      8.44E-09 Convergence criterion met
 Total energy in the final basis set = -1510.30509405
   11   -1510.3050866841      5.30E-09 Convergence criterion met
 Total energy in the final basis set = -1510.30508668
   11   -1510.3050966953      3.48E-09 Convergence criterion met
 Total energy in the final basis set = -1510.30509670

             Standard Nuclear Orientation (Angstroms)
    I     Atom           X                Y                Z
 ----------------------------------------------------------------
    1      O      -2.0561014479     0.2256885007     2.5460122015
    2      C      -2.8674957711     0.3133380475     1.6004761181
    3      C      -3.1952287892    -0.7790840918     0.5148213603
    4      C      -2.6096460792    -0.4683640902    -0.9236827655
    5      C      -1.8083201898     0.8727820168    -0.9849836621
    6      O      -1.5833097963     1.2117037541    -2.3517831412
    7      C      -0.7230327588     2.4172845248    -2.4644677043
    8      C       0.7895710148     2.0139926129    -2.6315414712
    9      O       1.3116191277     1.4362866220    -1.3743029614
   10      C       1.2145777480     0.0036192773    -1.4130237889
   11      C       1.5224682990    -0.5899071410     0.0070851849
   12      C       3.0565555157    -0.7559674977     0.3465052935
   13      C       3.9746391376    -0.2546639892    -0.8153647020
   14      O       3.6087568248     0.0687555632    -1.9695285629
   15      O      -3.7722427506     1.4107464497     1.4055851263
   16      O       5.3300286435    -0.2198819186    -0.3693436900
   17      O       0.7721152560    -0.6349592355    -2.3997067727
   18      C       6.2096380582     0.2658595606    -1.4586598781
   19      C       1.0579089454     0.3773959957     1.1787789518
   20      C       0.9813095061    -0.4783462081     2.5010983629
   21      C       2.5071399408    -0.6431894588     2.8496814029
   22      C       3.1767380942     0.1429937365     1.6539038507
   23      O       2.2352223037     1.2524051783     1.3910997561
   24      H       0.9803229164    -1.5510416995     0.0689858447
   25      H       3.3153961252    -1.8087472917     0.5635921683
   26      H       0.1473219310     0.9678078830     0.9385921063
   27      H       0.4350612745     0.0724838209     3.2825902265
   28      H       0.4710850116    -1.4394853921     2.3297190221
   29      H       2.7584571990    -0.1648940398     3.8097332795
   30      H       2.8279110666    -1.6966126259     2.8844554002
   31      H       4.1984183487     0.5256135568     1.8438050605
   32      O      -1.4125133337     1.5612499680    -0.0129985526
   33      C      -3.4538656249     2.4922879026     2.3634814856
   34      C      -2.4725295168    -2.1504360027     0.8442883252
   35      C      -3.1458802766    -3.2915932108    -0.0145585186
   36      C      -2.5596173568    -2.9827907972    -1.4434509835
   37      C      -1.6539319253    -1.7269024473    -1.1428090988
   38      O      -1.1389028370    -1.9930404174     0.2194355290
   39      H      -4.2928171377    -0.8943076618     0.4669714321
   40      H      -3.4009929711    -0.4347581105    -1.6937511735
   41      H      -2.4311004068     2.8872359490     2.1942430290
   42      H      -2.3688738256    -2.3571869018     1.9271291936
   43      H      -2.8300007958    -4.2835030020     0.3463600767
   44      H      -4.2459797783    -3.2387852212     0.0150594056
   45      H      -1.9442524225    -3.8170347407    -1.8164182792
   46      H      -3.3417508043    -2.7628609426    -2.1873775092
   47      H      -0.8044191366    -1.5368524280    -1.8403626103
   48      H      -3.5290947301     2.1455052793     3.4144824309
   49      H      -4.1951950740     3.2922436178     2.1829226144
   50      H       7.2268163335     0.3171877650    -1.0287801683
   51      H       5.9018880068     1.2711436736    -1.8116675295
   52      H       6.2066567947    -0.4282143024    -2.3239671267
   53      H       0.8897562581     1.2785754094    -3.4581167157
   54      H       1.3881920655     2.9225431585    -2.8473947486
   55      H      -0.8454444650     3.0500209348    -1.5598038790
   56      H      -1.0662298618     2.9643557540    -3.3662713999
 ----------------------------------------------------------------

    9   -1510.3050973512      2.71E-09 Convergence criterion met
 Total energy in the final basis set = -1510.30509735
 Final energy is   -1510.30509735116
 **  OPTIMIZATION CONVERGED  **

                    Orbital Energies (a.u.)
 --------------------------------------------------------------

 Alpha MOs
 -- Occupied --
-18.944 -18.940 -18.922 -18.919 -18.887 -18.883 -18.881 -18.869
-18.861 -18.859 -10.108 -10.101 -10.090 -10.090 -10.072 -10.066
-10.065 -10.055 -10.053 -10.047 -10.046 -10.037 -10.031 -10.031
-10.030 -10.017 -10.017 -10.015 -10.004  -9.995  -1.023  -1.015
 -0.999  -0.997  -0.967  -0.953  -0.945  -0.939  -0.925  -0.924
 -0.760  -0.750  -0.723  -0.712  -0.705  -0.698  -0.687  -0.660
 -0.653  -0.613  -0.590  -0.573  -0.541  -0.535  -0.531  -0.518
 -0.508  -0.504  -0.485  -0.471  -0.457  -0.456  -0.448  -0.435
 -0.429  -0.424  -0.417  -0.414  -0.410  -0.404  -0.402  -0.397
 -0.392  -0.379  -0.370  -0.364  -0.359  -0.353  -0.349  -0.343
 -0.341  -0.337  -0.331  -0.327  -0.322  -0.319  -0.316  -0.305
 -0.300  -0.298  -0.298  -0.288  -0.280  -0.278  -0.275  -0.268
 -0.262  -0.255  -0.252  -0.243  -0.235  -0.230  -0.217  -0.190
 -0.181  -0.165  -0.164  -0.156  -0.154  -0.143  -0.142  -0.141
 -0.128

          Ground-State Mulliken Net Atomic Charges

     Atom                 Charge (a.u.)
  ----------------------------------------
      1 O                    -0.218228
      2 C                     0.214815
      3 C                    -0.081689
      4 C                    -0.079337
      5 C                     0.217128
      6 O                    -0.166310
      7 C                    -0.053412
      8 C                    -0.052064
      9 O                    -0.168053
     10 C                     0.217197
     11 C                    -0.087174
     12 C                    -0.079096
     13 C                     0.214871
     14 O                    -0.208606
     15 O                    -0.176371
     16 O                    -0.167651
     17 O                    -0.229425
     18 C                    -0.127791
     19 C                     0.018643
     20 C                    -0.143785
     21 C                    -0.144810
     22 C                     0.024540
     23 O                    -0.192750
     24 H                     0.098645
     25 H                     0.085628
     26 H                     0.101411
     27 H                     0.083254
     28 H                     0.078450
     29 H                     0.074477
     30 H                     0.069743
     31 H                     0.082869
     32 O                    -0.212046
     33 C                    -0.128768
     34 C                     0.024926
     35 C                    -0.144389
     36 C                    -0.144061
     37 C                     0.012155
     38 O                    -0.197647
     39 H                     0.083803
     40 H                     0.087724
     41 H                     0.092472
     42 H                     0.086328
     43 H                     0.076563
     44 H                     0.072510
     45 H                     0.078163
     46 H                     0.073255
     47 H                     0.106751
     48 H                     0.086313
     49 H                     0.086114
     50 H                     0.091747
     51 H                     0.091879
     52 H                     0.089489
     53 H                     0.102432
     54 H                     0.089112
     55 H                     0.100425
     56 H                     0.089633
  ----------------------------------------
  Sum of atomic charges =     0.000000

                    Cartesian Multipole Moments
 -----------------------------------------------------------------
    Charge (ESU x 10^10)
                 0.0000
    Dipole Moment (Debye)
         X      -0.4990      Y      -0.1864      Z      -0.9451
       Tot       1.0849
    Quadrupole Moments (Debye-Ang)
        XX    -141.2426     XY       0.1525     YY    -152.2429
        XZ      -1.9698     YZ      -5.8238     ZZ    -160.5113

 Total job time:  102.18s(wall), 4867.89s(cpu)
        *  Thank you very much for using Q-Chem.  Have a nice day.  *
