 Q-Chem 5.0, Q-Chem, Inc., Pleasanton, CA (2017)
 Q-Chem 5.0.1 for Intel X86 EM64T Linux

User input:
--------------------------------------------------------------
$molecule
0  1
O -3.94934 -3.66094 2.70899
C -3.26408 -4.56952 2.26188
C -3.36658 -6.02376 2.66595
C -2.56769 -6.46744 3.90239
C -1.89715 -5.37166 4.70096
O -1.33883 -5.89668 5.83148
C -0.68263 -4.9167 6.64284
C 0.02799 -5.59205 7.81119
O -0.82697 -5.6004 8.96525
C -1.68781 -6.64521 9.04565
C -2.44838 -6.68189 10.34981
C -1.67643 -7.28464 11.53263
C -0.17973 -7.42628 11.34155
O 0.42783 -7.19375 10.30648
O -2.27108 -4.2704 1.38399
O 0.51777 -7.87089 12.42023
O -1.95851 -7.38079 8.10555
C 1.88295 -8.06574 12.4366
C -2.83466 -5.30458 10.92015
C -4.03156 -5.45238 11.85808
C -3.38649 -6.16398 13.03096
C -1.92224 -6.17746 12.57643
O -1.79256 -4.99951 11.81474
H -3.37366 -7.27208 10.1569
H -2.06486 -8.2808 11.83942
H -3.04796 -4.54872 10.13294
H -4.32093 -4.42648 12.18075
H -4.91782 -5.96245 11.42305
H -3.51029 -5.52902 13.93628
H -3.76279 -7.19073 13.23044
H -1.24781 -6.26288 13.45664
O -1.83278 -4.18496 4.40417
C -1.99755 -2.99919 0.92453
C -4.7983 -6.37145 3.12877
C -5.04315 -7.87451 3.00238
C -4.19548 -8.39234 4.14279
C -3.70982 -7.07145 4.74764
O -4.77241 -6.18079 4.52025
H -3.14991 -6.63083 1.75803
H -1.78415 -7.21698 3.65266
H -1.72908 -2.33484 1.77364
H -5.58481 -5.8138 2.57364
H -6.11424 -8.05691 3.24708
H -4.81597 -8.30808 2.00476
H -4.85977 -8.92401 4.86018
H -3.35023 -9.05122 3.84797
H -3.43327 -7.22895 5.81181
H -2.88003 -2.58762 0.38951
H -1.14129 -3.04314 0.22072
H 2.18637 -8.43042 13.4393
H 2.4083 -7.10889 12.22958
H 2.17056 -8.82438 11.67756
H 0.50858 -6.56732 7.57189
H 0.85364 -4.90364 8.09379
H -1.35642 -4.09958 6.98747
H 0.12427 -4.46949 6.01572
$end

$opt
CONSTRAINT
tors           1           2           3           4     -85.820
tors           3           4           5           6    +174.175
tors           4           5           6           7    +179.999
tors           5           6           7           8    -174.575
tors           6           7           8           9     -93.972
tors           7           8           9          10     +86.237
tors           8           9          10          11    +173.593
tors           9          10          11          12     -80.680
tors          11          12          13          14      -5.581
ENDCONSTRAINT
$end

$rem
JOBTYPE                   OPT
METHOD                    B3LYP
DFT_D                     d3_op
BASIS                     STO-3G
GEOM_OPT_MAX_CYCLES       100
GEOM_OPT_TOL_GRADIENT     300
GEOM_OPT_TOL_DISPLACEMENT 1200
GEOM_OPT_TOL_ENERGY       100
SYMMETRY                  False
THRESH                    12
SCF_CONVERGENCE           8
MAX_SUB_FILE_NUM          128
MEM_STATIC                400
MEM_TOTAL                 4000
$end
--------------------------------------------------------------

   15   -1510.1549457997      5.94E-09 Convergence criterion met
 Total energy in the final basis set = -1510.15494580
   14   -1510.2242811858      6.14E-09 Convergence criterion met
 Total energy in the final basis set = -1510.22428119
   14   -1510.2605934491      6.76E-09 Convergence criterion met
 Total energy in the final basis set = -1510.26059345
   14   -1510.2757311670      5.96E-09 Convergence criterion met
 Total energy in the final basis set = -1510.27573117
   13   -1510.2813236811      5.95E-09 Convergence criterion met
 Total energy in the final basis set = -1510.28132368
   13   -1510.2833683114      2.27E-09 Convergence criterion met
 Total energy in the final basis set = -1510.28336831
   12   -1510.2844812729      7.49E-09 Convergence criterion met
 Total energy in the final basis set = -1510.28448127
   12   -1510.2848418050      4.41E-09 Convergence criterion met
   11   -1510.2856065764      7.57E-09 Convergence criterion met
 Total energy in the final basis set = -1510.28560658
   11   -1510.2856402876      3.98E-09 Convergence criterion met
 Total energy in the final basis set = -1510.28564029
   11   -1510.2856667357      4.57E-09 Convergence criterion met
 Total energy in the final basis set = -1510.28566674
   10   -1510.2856830981      5.89E-09 Convergence criterion met
 Total energy in the final basis set = -1510.28568310
   11   -1510.2856987822      2.44E-09 Convergence criterion met
 Total energy in the final basis set = -1510.28569878
    9   -1510.2857005815      9.50E-09 Convergence criterion met
 Total energy in the final basis set = -1510.28570058

             Standard Nuclear Orientation (Angstroms)
    I     Atom           X                Y                Z
 ----------------------------------------------------------------
    1      O      -5.1091442654    -0.3606366301     1.7700519982
    2      C      -5.2282968529     0.2476230454     0.6854443864
    3      C      -4.7493218085    -0.2272730742    -0.7363462031
    4      C      -3.2412165615     0.1261557436    -1.0583373382
    5      C      -2.5513006691     1.0006150327     0.0424599077
    6      O      -1.1768889802     1.1218986296    -0.3113508507
    7      C      -0.4365971457     1.9389687230     0.6792687368
    8      C       1.0187354204     2.1182682920     0.1133228559
    9      O       1.9384273309     1.0876247038     0.6441327694
   10      C       1.8822103401    -0.1007574133    -0.1618351590
   11      C       2.9883887224    -1.1033830914     0.3354377505
   12      C       4.4461013262    -0.7980437720    -0.2023027170
   13      C       4.5134021028     0.4476744836    -1.1484946939
   14      O       3.5573895075     1.1308976037    -1.5789832378
   15      O      -5.9257050536     1.4920236313     0.5247775816
   16      O       5.8826734924     0.7025311853    -1.4681525146
   17      O       1.0338073226    -0.3186304286    -1.0531771829
   18      C       5.9845670540     1.8866779052    -2.3531681929
   19      C       3.2297200537    -1.0070203267     1.9032648903
   20      C       4.0182791682    -2.2951353120     2.3683703841
   21      C       5.4648594545    -1.9756055916     1.8370267474
   22      C       5.2341736038    -0.5673214295     1.1593937589
   23      O       4.2299942808     0.0783838536     2.0324057431
   24      H       2.6676900638    -2.1164323267     0.0344836094
   25      H       4.8616693016    -1.6638932259    -0.7497322790
   26      H       2.3231631463    -0.7698369594     2.4924182334
   27      H       4.0006495881    -2.3817521777     3.4664046734
   28      H       3.5982752314    -3.2169776814     1.9349824537
   29      H       6.1890325738    -1.8899858113     2.6627696608
   30      H       5.8324996228    -2.7265616648     1.1195106227
   31      H       6.1365310803     0.0663720494     1.0576321297
   32      O      -3.0758296431     1.5286298411     1.0488877821
   33      C      -6.3262766937     2.0104435758     1.8512033756
   34      C      -4.6854543272    -1.8141372300    -0.7929418571
   35      C      -4.5369858375    -2.2655311532    -2.3002691041
   36      C      -3.0248459242    -1.9263095506    -2.5745249328
   37      C      -2.5935037520    -1.3191455357    -1.1829428739
   38      O      -3.3600809840    -2.1221275963    -0.2038554953
   39      H      -5.4295605427     0.1945185829    -1.4967066324
   40      H      -3.1567855863     0.6718510632    -2.0163538518
   41      H      -5.4396273498     2.2126331261     2.4865687291
   42      H      -5.4857413706    -2.3227225074    -0.2214264760
   43      H      -4.7341514270    -3.3447493986    -2.3997150215
   44      H      -5.2236629484    -1.7184066432    -2.9659211360
   45      H      -2.4403547104    -2.8337497900    -2.7951429118
   46      H      -2.8900463503    -1.2101090914    -3.4005479795
   47      H      -1.5065131743    -1.3448232123    -0.9671268183
   48      H      -6.9894534529     1.3003630530     2.3867943255
   49      H      -6.8703846330     2.9541973004     1.6622863038
   50      H       7.0621986530     2.0201565274    -2.5605489386
   51      H       5.5848084371     2.7971652835    -1.8617370047
   52      H       5.4383131821     1.7320185394    -3.3060649232
   53      H       0.9855444522     2.0948093409    -0.9967716674
   54      H       1.4329550238     3.0879376196     0.4564898649
   55      H      -0.4034989476     1.4348312463     1.6703274350
   56      H      -0.9299982087     2.9269379588     0.8116031392
 ----------------------------------------------------------------

    9   -1510.2857006195      3.65E-09 Convergence criterion met
 Total energy in the final basis set = -1510.28570062
 Final energy is   -1510.28570061948
 **  OPTIMIZATION CONVERGED  **

                    Orbital Energies (a.u.)
 --------------------------------------------------------------

 Alpha MOs
 -- Occupied --
-18.944 -18.933 -18.921 -18.914 -18.888 -18.886 -18.879 -18.876
-18.863 -18.853 -10.107 -10.098 -10.092 -10.082 -10.071 -10.071
-10.068 -10.061 -10.059 -10.051 -10.050 -10.049 -10.041 -10.034
-10.031 -10.026 -10.021 -10.019 -10.013 -10.012  -1.020  -1.013
 -0.999  -0.991  -0.970  -0.961  -0.944  -0.936  -0.927  -0.917
 -0.764  -0.755  -0.725  -0.719  -0.711  -0.702  -0.690  -0.668
 -0.649  -0.611  -0.594  -0.575  -0.546  -0.538  -0.537  -0.530
 -0.513  -0.508  -0.485  -0.472  -0.463  -0.450  -0.445  -0.442
 -0.434  -0.424  -0.419  -0.417  -0.412  -0.405  -0.399  -0.396
 -0.392  -0.380  -0.375  -0.363  -0.357  -0.353  -0.348  -0.341
 -0.338  -0.333  -0.331  -0.327  -0.325  -0.324  -0.317  -0.314
 -0.306  -0.306  -0.300  -0.298  -0.293  -0.281  -0.276  -0.268
 -0.266  -0.261  -0.249  -0.242  -0.238  -0.234  -0.226  -0.186
 -0.177  -0.165  -0.161  -0.158  -0.152  -0.145  -0.140  -0.136
 -0.133

          Ground-State Mulliken Net Atomic Charges

     Atom                 Charge (a.u.)
  ----------------------------------------
      1 O                    -0.217383
      2 C                     0.213870
      3 C                    -0.081919
      4 C                    -0.077821
      5 C                     0.212746
      6 O                    -0.167091
      7 C                    -0.048555
      8 C                    -0.046656
      9 O                    -0.172775
     10 C                     0.214376
     11 C                    -0.081496
     12 C                    -0.078482
     13 C                     0.214314
     14 O                    -0.209147
     15 O                    -0.174418
     16 O                    -0.169329
     17 O                    -0.214936
     18 C                    -0.128042
     19 C                     0.026783
     20 C                    -0.144365
     21 C                    -0.143553
     22 C                     0.025128
     23 O                    -0.187313
     24 H                     0.083503
     25 H                     0.086677
     26 H                     0.086015
     27 H                     0.078276
     28 H                     0.074144
     29 H                     0.078178
     30 H                     0.073463
     31 H                     0.086865
     32 O                    -0.211050
     33 C                    -0.128247
     34 C                     0.025634
     35 C                    -0.144901
     36 C                    -0.142849
     37 C                     0.023894
     38 O                    -0.189105
     39 H                     0.083027
     40 H                     0.085646
     41 H                     0.092236
     42 H                     0.084160
     43 H                     0.076328
     44 H                     0.072030
     45 H                     0.077378
     46 H                     0.073379
     47 H                     0.095291
     48 H                     0.085231
     49 H                     0.084972
     50 H                     0.092206
     51 H                     0.090888
     52 H                     0.090728
     53 H                     0.103805
     54 H                     0.089120
     55 H                     0.091128
     56 H                     0.088016
  ----------------------------------------
  Sum of atomic charges =    -0.000000

                    Cartesian Multipole Moments
 -----------------------------------------------------------------
    Charge (ESU x 10^10)
                 0.0000
    Dipole Moment (Debye)
         X       2.7572      Y       0.5449      Z      -2.0803
       Tot       3.4966
    Quadrupole Moments (Debye-Ang)
        XX    -144.0913     XY      -4.4551     YY    -152.2161
        XZ       2.8456     YZ      -0.1524     ZZ    -158.7427

 Total job time:  50.70s(wall), 2408.27s(cpu)
        *  Thank you very much for using Q-Chem.  Have a nice day.  *
