 Q-Chem 5.0, Q-Chem, Inc., Pleasanton, CA (2017)
 Q-Chem 5.0.1 for Intel X86 EM64T Linux

User input:
--------------------------------------------------------------
$molecule
0  1
O -3.94934 -3.66094 2.70899
C -3.26408 -4.56952 2.26188
C -3.36658 -6.02376 2.66595
C -2.28993 -6.56531 3.62063
C -1.33401 -5.54912 4.20514
O -0.80702 -6.02522 5.37178
C 0.11923 -5.12023 5.98196
C 0.85832 -5.8137 7.12169
O 0.15414 -5.61048 8.35689
C -0.89079 -6.4465 8.57676
C -1.53737 -6.23804 9.92551
C -0.88516 -7.0094 11.08219
C 0.49392 -7.57362 10.8056
O 1.05939 -7.56398 9.72176
O -2.29728 -4.27492 1.35229
O 1.11628 -8.16743 11.85836
O -1.12911 -7.43256 7.89019
C 2.36771 -8.74378 11.79747
C -1.42902 -4.79381 10.47086
C -2.54486 -4.53919 11.48316
C -2.08031 -5.40317 12.63701
C -0.7208 -5.86708 12.10135
O -0.28693 -4.80316 11.29039
H -2.62088 -6.46005 9.79697
H -1.51718 -7.84797 11.44801
H -1.45568 -4.01878 9.67365
H -2.4657 -3.47017 11.78591
H -3.57767 -4.74007 11.12579
H -1.95698 -4.75484 13.53279
H -2.73571 -6.26827 12.87747
H -0.04845 -6.13877 12.94464
O -1.13466 -4.41486 3.78855
C -2.04538 -3.008 0.86874
C -4.64611 -6.28011 3.49204
C -5.03904 -7.75304 3.40937
C -3.96236 -8.37243 4.26645
C -3.22592 -7.11299 4.73615
O -4.23261 -6.13972 4.82382
H -3.45204 -6.60638 1.72141
H -1.67723 -7.39083 3.19664
H -1.75965 -2.32996 1.70119
H -5.5083 -5.65046 3.17952
H -6.01674 -7.86627 3.93074
H -5.12213 -8.16163 2.37929
H -4.4512 -8.87794 5.12936
H -3.28583 -9.08346 3.74485
H -2.71086 -7.35151 5.68923
H -2.94467 -2.61006 0.35181
H -1.20758 -3.05555 0.1433
H 2.62999 -9.15019 12.79572
H 3.1252 -7.98344 11.51023
H 2.37108 -9.575 11.0603
H 1.15566 -6.86671 6.91756
H 1.80463 -5.24523 7.25136
H -0.34452 -4.15949 6.30047
H 0.9064 -4.89824 5.22271
$end

$opt
CONSTRAINT
tors           1           2           3           4    -102.960
tors           3           4           5           6    +156.474
tors           4           5           6           7    +179.532
tors           5           6           7           8    -169.359
tors           6           7           8           9     -91.387
tors           7           8           9          10     +81.978
tors           8           9          10          11    +176.553
tors           9          10          11          12     -85.901
tors          11          12          13          14      -6.807
ENDCONSTRAINT
$end

$rem
JOBTYPE                   OPT
METHOD                    B3LYP
DFT_D                     d3_op
BASIS                     STO-3G
GEOM_OPT_MAX_CYCLES       100
GEOM_OPT_TOL_GRADIENT     300
GEOM_OPT_TOL_DISPLACEMENT 1200
GEOM_OPT_TOL_ENERGY       100
SYMMETRY                  False
THRESH                    12
SCF_CONVERGENCE           8
MAX_SUB_FILE_NUM          128
MEM_STATIC                400
MEM_TOTAL                 4000
$end
--------------------------------------------------------------

   15   -1510.1526512425      8.63E-09 Convergence criterion met
 Total energy in the final basis set = -1510.15265124
   13   -1510.2222456723      7.06E-09 Convergence criterion met
 Total energy in the final basis set = -1510.22224567
   13   -1510.2595312056      7.66E-09 Convergence criterion met
 Total energy in the final basis set = -1510.25953121
   13   -1510.2760901066      9.47E-09 Convergence criterion met
 Total energy in the final basis set = -1510.27609011
   13   -1510.2820933305      9.77E-09 Convergence criterion met
 Total energy in the final basis set = -1510.28209333
   13   -1510.2845343708      3.70E-09 Convergence criterion met
 Total energy in the final basis set = -1510.28453437
   12   -1510.2856413083      7.03E-09 Convergence criterion met
 Total energy in the final basis set = -1510.28564131
   12   -1510.2859528528      5.05E-09 Convergence criterion met
   11   -1510.2864210652      5.85E-09 Convergence criterion met
 Total energy in the final basis set = -1510.28642107
   11   -1510.2864435750      4.84E-09 Convergence criterion met
 Total energy in the final basis set = -1510.28644357
   11   -1510.2864556349      3.57E-09 Convergence criterion met
 Total energy in the final basis set = -1510.28645563
   10   -1510.2864597033      9.49E-09 Convergence criterion met
 Total energy in the final basis set = -1510.28645970
    9   -1510.2864610688      8.36E-09 Convergence criterion met
 Total energy in the final basis set = -1510.28646107
    9   -1510.2864621035      6.04E-09 Convergence criterion met
 Total energy in the final basis set = -1510.28646210

             Standard Nuclear Orientation (Angstroms)
    I     Atom           X                Y                Z
 ----------------------------------------------------------------
    1      O      -5.1924152952    -0.1313031510     1.8035825712
    2      C      -5.1978015712     0.2639983262     0.6183265679
    3      C      -4.5993835459    -0.4652837733    -0.6388398048
    4      C      -3.2181734881     0.1232180160    -1.1386797765
    5      C      -2.6025573529     1.1565321865    -0.1275385957
    6      O      -1.2015754636     1.1915008732    -0.3647790351
    7      C      -0.5016271204     2.1437169254     0.5242110147
    8      C       0.9595854838     2.2688806835    -0.0416048926
    9      O       1.8768598020     1.2920015724     0.5866525337
   10      C       1.7591940088     0.0050351750    -0.0426506062
   11      C       2.8138542799    -0.9711282698     0.5992445736
   12      C       4.2532433308    -0.9082271229    -0.0588739317
   13      C       4.3718002111     0.1812417056    -1.1772347105
   14      O       3.4525044998     0.8824869096    -1.6566986915
   15      O      -5.9065825836     1.4231376627     0.1528378420
   16      O       5.7341874019     0.2543625566    -1.6002554882
   17      O       0.8960128865    -0.3041697372    -0.8926838936
   18      C       5.8820929911     1.2771615661    -2.6622931879
   19      C       3.1620831520    -0.6116378810     2.1067642485
   20      C       3.8403560037    -1.8742822871     2.7720061375
   21      C       5.2703141878    -1.8319702750     2.1162323634
   22      C       5.1493730778    -0.5484882731     1.2052685205
   23      O       4.2773830978     0.3565546378     1.9862132851
   24      H       2.3984020543    -1.9909229872     0.5135010607
   25      H       4.5467914700    -1.8823381251    -0.4911907446
   26      H       2.3243096334    -0.1681043711     2.6778753530
   27      H       3.8931985781    -1.7511661993     3.8654872210
   28      H       3.2948146355    -2.8046995643     2.5472544292
   29      H       6.0583337102    -1.6906791491     2.8728581198
   30      H       5.4998221450    -2.7372427522     1.5317702909
   31      H       6.1060012234    -0.0526665903     0.9499543933
   32      O      -3.1912404327     1.8141088398     0.7599065860
   33      C      -6.4319762387     2.1820100307     1.3084502504
   34      C      -4.1925813271    -1.9715059684    -0.3437296052
   35      C      -4.1309613953    -2.7347615973    -1.7234715987
   36      C      -2.8170629646    -2.1254393268    -2.3419596134
   37      C      -2.3233676633    -1.1902515934    -1.1681576609
   38      O      -2.7689601424    -1.8922838834     0.0592229157
   39      H      -5.3517201912    -0.4056779050    -1.4454975875
   40      H      -3.3031191937     0.5978590322    -2.1334778613
   41      H      -5.6063499448     2.5688997441     1.9402560451
   42      H      -4.7917859362    -2.4574051244     0.4505913961
   43      H      -4.0314843565    -3.8194005476    -1.5568275888
   44      H      -5.0216826016    -2.5530816825    -2.3462450368
   45      H      -2.0687188188    -2.9049582677    -2.5550013756
   46      H      -3.0083512745    -1.5579212546    -3.2667033764
   47      H      -1.2319982631    -0.9838321395    -1.1350221844
   48      H      -7.0987089170     1.5594052472     1.9398826594
   49      H      -7.0040224695     3.0290201943     0.8868688391
   50      H       6.9514653074     1.2726253230    -2.9424376877
   51      H       5.5966955587     2.2854450137    -2.2987458012
   52      H       5.2634998745     1.0346757165    -3.5504954519
   53      H       0.9350731025     2.1459284119    -1.1455347321
   54      H       1.3736012330     3.2648510382     0.2152585474
   55      H      -0.4802573474     1.7712578337     1.5724628112
   56      H      -1.0115348357     3.1322562541     0.5186411903
 ----------------------------------------------------------------

    9   -1510.2864631716      4.64E-09 Convergence criterion met
 Total energy in the final basis set = -1510.28646317
 Final energy is   -1510.28646317158
 **  OPTIMIZATION CONVERGED  **

                    Orbital Energies (a.u.)
 --------------------------------------------------------------

 Alpha MOs
 -- Occupied --
-18.944 -18.934 -18.923 -18.913 -18.888 -18.887 -18.875 -18.874
-18.865 -18.854 -10.108 -10.097 -10.094 -10.083 -10.072 -10.071
-10.070 -10.061 -10.058 -10.048 -10.047 -10.042 -10.041 -10.034
-10.029 -10.024 -10.021 -10.019 -10.011 -10.009  -1.021  -1.013
 -0.999  -0.991  -0.970  -0.958  -0.945  -0.936  -0.928  -0.917
 -0.763  -0.753  -0.725  -0.719  -0.710  -0.701  -0.687  -0.668
 -0.647  -0.612  -0.594  -0.575  -0.546  -0.537  -0.534  -0.527
 -0.513  -0.506  -0.485  -0.475  -0.463  -0.448  -0.444  -0.444
 -0.433  -0.421  -0.417  -0.417  -0.412  -0.406  -0.397  -0.394
 -0.392  -0.380  -0.375  -0.364  -0.357  -0.354  -0.349  -0.340
 -0.337  -0.334  -0.331  -0.327  -0.324  -0.323  -0.314  -0.312
 -0.306  -0.304  -0.300  -0.296  -0.291  -0.281  -0.276  -0.268
 -0.263  -0.262  -0.248  -0.243  -0.237  -0.234  -0.222  -0.187
 -0.176  -0.167  -0.161  -0.158  -0.152  -0.145  -0.139  -0.135
 -0.133

          Ground-State Mulliken Net Atomic Charges

     Atom                 Charge (a.u.)
  ----------------------------------------
      1 O                    -0.218997
      2 C                     0.213679
      3 C                    -0.082628
      4 C                    -0.076905
      5 C                     0.214494
      6 O                    -0.166544
      7 C                    -0.047841
      8 C                    -0.046296
      9 O                    -0.171742
     10 C                     0.217028
     11 C                    -0.081651
     12 C                    -0.078272
     13 C                     0.214801
     14 O                    -0.208377
     15 O                    -0.174461
     16 O                    -0.169014
     17 O                    -0.215122
     18 C                    -0.127991
     19 C                     0.026578
     20 C                    -0.144077
     21 C                    -0.143920
     22 C                     0.024846
     23 O                    -0.188353
     24 H                     0.084331
     25 H                     0.087023
     26 H                     0.086986
     27 H                     0.078157
     28 H                     0.074515
     29 H                     0.078223
     30 H                     0.073685
     31 H                     0.086829
     32 O                    -0.212566
     33 C                    -0.128042
     34 C                     0.023954
     35 C                    -0.143652
     36 C                    -0.144837
     37 C                     0.017656
     38 O                    -0.193714
     39 H                     0.082176
     40 H                     0.084635
     41 H                     0.091791
     42 H                     0.085606
     43 H                     0.075521
     44 H                     0.071158
     45 H                     0.076739
     46 H                     0.071436
     47 H                     0.106295
     48 H                     0.085454
     49 H                     0.084868
     50 H                     0.092372
     51 H                     0.091200
     52 H                     0.090836
     53 H                     0.102511
     54 H                     0.089655
     55 H                     0.090970
     56 H                     0.088992
  ----------------------------------------
  Sum of atomic charges =    -0.000000

                    Cartesian Multipole Moments
 -----------------------------------------------------------------
    Charge (ESU x 10^10)
                 0.0000
    Dipole Moment (Debye)
         X       2.7056      Y       0.1040      Z      -2.0729
       Tot       3.4100
    Quadrupole Moments (Debye-Ang)
        XX    -146.4711     XY      -3.9258     YY    -151.7374
        XZ       2.5683     YZ      -1.2511     ZZ    -157.9847

 Total job time:  51.31s(wall), 2441.17s(cpu)
        *  Thank you very much for using Q-Chem.  Have a nice day.  *
