 Q-Chem 5.0, Q-Chem, Inc., Pleasanton, CA (2017)
 Q-Chem 5.0.1 for Intel X86 EM64T Linux

User input:
--------------------------------------------------------------
$molecule
0  1
O -5.1924152952 -0.131303151 1.8035825712
C -5.1978015712 0.2639983262 0.6183265679
C -4.5993835459 -0.4652837733 -0.6388398048
C -3.2181734881 0.123218016 -1.1386797765
C -2.6025573529 1.1565321865 -0.1275385957
O -1.2015754636 1.1915008732 -0.3647790351
C -0.5016271204 2.1437169254 0.5242110147
C 0.9595854838 2.2688806835 -0.0416048926
O 1.876859802 1.2920015724 0.5866525337
C 1.7591940088 0.005035175 -0.0426506062
C 2.8138542799 -0.9711282698 0.5992445736
C 4.2532433308 -0.9082271229 -0.0588739317
C 4.3718002111 0.1812417056 -1.1772347105
O 3.4525044998 0.8824869096 -1.6566986915
O -5.9065825836 1.4231376627 0.152837842
O 5.7341874019 0.2543625566 -1.6002554882
O 0.8960128865 -0.3041697372 -0.8926838936
C 5.8820929911 1.2771615661 -2.6622931879
C 3.162083152 -0.611637881 2.1067642485
C 3.8403560037 -1.8742822871 2.7720061375
C 5.2703141878 -1.831970275 2.1162323634
C 5.1493730778 -0.5484882731 1.2052685205
O 4.2773830978 0.3565546378 1.9862132851
H 2.3984020543 -1.9909229872 0.5135010607
H 4.54679147 -1.8823381251 -0.4911907446
H 2.3243096334 -0.1681043711 2.677875353
H 3.8931985781 -1.7511661993 3.865487221
H 3.2948146355 -2.8046995643 2.5472544292
H 6.0583337102 -1.6906791491 2.8728581198
H 5.499822145 -2.7372427522 1.5317702909
H 6.1060012234 -0.0526665903 0.9499543933
O -3.1912404327 1.8141088398 0.759906586
C -6.4319762387 2.1820100307 1.3084502504
C -4.1925813271 -1.9715059684 -0.3437296052
C -4.1309613953 -2.7347615973 -1.7234715987
C -2.8170629646 -2.1254393268 -2.3419596134
C -2.3233676633 -1.1902515934 -1.1681576609
O -2.7689601424 -1.8922838834 0.0592229157
H -5.3517201912 -0.405677905 -1.4454975875
H -3.3031191937 0.5978590322 -2.1334778613
H -5.6063499448 2.5688997441 1.9402560451
H -4.7917859362 -2.4574051244 0.4505913961
H -4.0314843565 -3.8194005476 -1.5568275888
H -5.0216826016 -2.5530816825 -2.3462450368
H -2.0687188188 -2.9049582677 -2.5550013756
H -3.0083512745 -1.5579212546 -3.2667033764
H -1.2319982631 -0.9838321395 -1.1350221844
H -7.098708917 1.5594052472 1.9398826594
H -7.0040224695 3.0290201943 0.8868688391
H 6.9514653074 1.272625323 -2.9424376877
H 5.5966955587 2.2854450137 -2.2987458012
H 5.2634998745 1.0346757165 -3.5504954519
H 0.9350731025 2.1459284119 -1.1455347321
H 1.373601233 3.2648510382 0.2152585474
H -0.4802573474 1.7712578337 1.5724628112
H -1.0115348357 3.1322562541 0.5186411903
$end

$rem
JOBTYPE                   OPT
METHOD                    B3LYP
DFT_D                     d3_op
BASIS                     STO-3G
GEOM_OPT_MAX_CYCLES       100
GEOM_OPT_TOL_GRADIENT     300
GEOM_OPT_TOL_DISPLACEMENT 1200
GEOM_OPT_TOL_ENERGY       100
SYMMETRY                  False
THRESH                    12
SCF_CONVERGENCE           8
MAX_SUB_FILE_NUM          128
MEM_STATIC                400
MEM_TOTAL                 4000
$end
--------------------------------------------------------------

   16   -1510.2865168106      5.17E-09 Convergence criterion met
 Total energy in the final basis set = -1510.28651681
   14   -1510.2878286093      3.13E-09 Convergence criterion met
 Total energy in the final basis set = -1510.28782861
   14   -1510.2890818820      4.08E-09 Convergence criterion met
 Total energy in the final basis set = -1510.28908188
   14   -1510.2896956491      4.10E-09 Convergence criterion met
 Total energy in the final basis set = -1510.28969565
   14   -1510.2909195617      1.90E-09 Convergence criterion met
 Total energy in the final basis set = -1510.29091956
   14   -1510.2921245515      2.59E-09 Convergence criterion met
 Total energy in the final basis set = -1510.29212455
   13   -1510.2927707980      8.79E-09 Convergence criterion met
 Total energy in the final basis set = -1510.29277080
   13   -1510.2930299340      6.39E-09 Convergence criterion met
   12   -1510.3062509933      6.94E-09 Convergence criterion met
 Total energy in the final basis set = -1510.30625099
   12   -1510.3065350954      9.24E-09 Convergence criterion met
 Total energy in the final basis set = -1510.30653510
   12   -1510.3066323548      4.81E-09 Convergence criterion met
 Total energy in the final basis set = -1510.30663235
   12   -1510.3066789077      2.38E-09 Convergence criterion met
 Total energy in the final basis set = -1510.30667891
   11   -1510.3066886457      7.09E-09 Convergence criterion met
 Total energy in the final basis set = -1510.30668865
    9   -1510.3066808366      7.37E-09 Convergence criterion met
 Total energy in the final basis set = -1510.30668084

             Standard Nuclear Orientation (Angstroms)
    I     Atom           X                Y                Z
 ----------------------------------------------------------------
    1      O      -1.9575273354    -0.2067277696     2.5377786245
    2      C      -2.7869386115    -0.1355991894     1.6037436812
    3      C      -2.9556574372    -1.1442283498     0.4082202713
    4      C      -2.4361152770    -0.6035891999    -0.9873432668
    5      C      -1.8712480971     0.8549979495    -0.9096294792
    6      O      -1.7358436336     1.3533619543    -2.2420935603
    7      C      -1.1010577595     2.6958752803    -2.2571508617
    8      C       0.4573444851     2.5853652245    -2.4676590383
    9      O       1.0930543573     2.0584643133    -1.2414544050
   10      C       1.1362190444     0.6230911711    -1.2897788959
   11      C       1.3411837532     0.0337671662     0.1504867844
   12      C       2.7263284729    -0.6923919757     0.3630814200
   13      C       3.7289834654    -0.3388918289    -0.7828810968
   14      O       3.5446143548     0.5023489467    -1.6938737122
   15      O      -3.8550920484     0.8156958994     1.5426393608
   16      O       4.9256339193    -1.1013476600    -0.6298283759
   17      O       0.8463569636    -0.0330826533    -2.3229339080
   18      C       5.8931132270    -0.7423678426    -1.6937620294
   19      C       1.3799908821     1.1193004189     1.3094819874
   20      C       0.9802135453     0.4041094198     2.6520992898
   21      C       2.2431853647    -0.5044216673     2.8857596963
   22      C       3.1971771688    -0.0154940126     1.7202128793
   23      O       2.8251692015     1.4002944784     1.5037111480
   24      H       0.5049576179    -0.6923911902     0.3027096869
   25      H       2.6292524054    -1.7894821468     0.4499645403
   26      H       0.8259895430     2.0472303610     1.0735020877
   27      H       0.8835152886     1.1520759467     3.4552903711
   28      H       0.0229183187    -0.1435403869     2.5687610794
   29      H       2.7048465717    -0.3206547564     3.8687815587
   30      H       2.0167223816    -1.5793202244     2.7992902610
   31      H       4.2820925287    -0.1117685452     1.9216636293
   32      O      -1.5797559753     1.4954282588     0.1269513103
   33      C      -3.6900331801     1.8201307797     2.6172339651
   34      C      -2.0264582434    -2.4084084507     0.6115789313
   35      C      -2.5032957704    -3.5520666773    -0.3653016275
   36      C      -1.9767070775    -3.0140123158    -1.7502816076
   37      C      -1.2910450277    -1.6628389194    -1.3199725253
   38      O      -0.7368667312    -1.9816444056     0.0182087793
   39      H      -4.0227316936    -1.4220465423     0.3425016391
   40      H      -3.2285088498    -0.6258158483    -1.7566771532
   41      H      -2.7648912795     2.4137122705     2.4670439111
   42      H      -1.8850903491    -2.7016840827     1.6698626300
   43      H      -2.0290680022    -4.5097982947    -0.0985310565
   44      H      -3.5972494219    -3.6810731242    -0.3466544915
   45      H      -1.2335236026    -3.6976633059    -2.1907956141
   46      H      -2.7853914406    -2.8550864655    -2.4810712183
   47      H      -0.4734711861    -1.2591095142    -1.9675470059
   48      H      -3.6474366801     1.3450114258     3.6184761696
   49      H      -4.5718524021     2.4839578908     2.5562996139
   50      H       6.7797236278    -1.3815974626    -1.5282598408
   51      H       6.1874812987     0.3253036779    -1.6324122992
   52      H       5.4774891507    -0.9353905363    -2.7037788010
   53      H       0.6717936951     1.9187609981    -3.3301449183
   54      H       0.8783334040     3.5956489361    -2.6451285902
   55      H      -1.3108934760     3.2243273248    -1.3025170984
   56      H      -1.5561472170     3.2461214094    -3.1062459555
 ----------------------------------------------------------------

    9   -1510.3066891608      7.18E-09 Convergence criterion met
 Total energy in the final basis set = -1510.30668916
 Final energy is   -1510.30668916085
 **  OPTIMIZATION CONVERGED  **

                    Orbital Energies (a.u.)
 --------------------------------------------------------------

 Alpha MOs
 -- Occupied --
-18.941 -18.936 -18.928 -18.922 -18.897 -18.885 -18.876 -18.869
-18.866 -18.855 -10.107 -10.098 -10.096 -10.089 -10.073 -10.066
-10.063 -10.062 -10.058 -10.049 -10.045 -10.039 -10.037 -10.033
-10.024 -10.022 -10.019 -10.004 -10.001  -9.987  -1.021  -1.011
 -1.005  -0.997  -0.976  -0.951  -0.944  -0.935  -0.931  -0.923
 -0.765  -0.745  -0.725  -0.714  -0.703  -0.700  -0.683  -0.658
 -0.658  -0.615  -0.590  -0.572  -0.545  -0.539  -0.528  -0.516
 -0.511  -0.500  -0.485  -0.470  -0.463  -0.455  -0.449  -0.438
 -0.430  -0.427  -0.417  -0.414  -0.408  -0.406  -0.402  -0.395
 -0.391  -0.378  -0.368  -0.366  -0.358  -0.355  -0.351  -0.345
 -0.343  -0.340  -0.333  -0.328  -0.324  -0.316  -0.313  -0.306
 -0.305  -0.302  -0.293  -0.287  -0.282  -0.276  -0.273  -0.271
 -0.260  -0.255  -0.250  -0.248  -0.234  -0.233  -0.212  -0.191
 -0.177  -0.171  -0.164  -0.154  -0.152  -0.150  -0.149  -0.140
 -0.125

          Ground-State Mulliken Net Atomic Charges

     Atom                 Charge (a.u.)
  ----------------------------------------
      1 O                    -0.218707
      2 C                     0.219422
      3 C                    -0.082234
      4 C                    -0.079950
      5 C                     0.211825
      6 O                    -0.168631
      7 C                    -0.053544
      8 C                    -0.052182
      9 O                    -0.169373
     10 C                     0.216467
     11 C                    -0.099766
     12 C                    -0.078023
     13 C                     0.214769
     14 O                    -0.207311
     15 O                    -0.173079
     16 O                    -0.167898
     17 O                    -0.234967
     18 C                    -0.128084
     19 C                     0.021854
     20 C                    -0.152252
     21 C                    -0.144875
     22 C                     0.024000
     23 O                    -0.196784
     24 H                     0.112578
     25 H                     0.086544
     26 H                     0.090689
     27 H                     0.069766
     28 H                     0.095981
     29 H                     0.072509
     30 H                     0.071268
     31 H                     0.079267
     32 O                    -0.210990
     33 C                    -0.128333
     34 C                     0.025965
     35 C                    -0.143735
     36 C                    -0.143927
     37 C                     0.010924
     38 O                    -0.192487
     39 H                     0.085528
     40 H                     0.088183
     41 H                     0.093476
     42 H                     0.088587
     43 H                     0.078321
     44 H                     0.073805
     45 H                     0.079600
     46 H                     0.074467
     47 H                     0.114029
     48 H                     0.088594
     49 H                     0.087704
     50 H                     0.090811
     51 H                     0.090576
     52 H                     0.090519
     53 H                     0.102164
     54 H                     0.089766
     55 H                     0.097941
     56 H                     0.089232
  ----------------------------------------
  Sum of atomic charges =    -0.000000

                    Cartesian Multipole Moments
 -----------------------------------------------------------------
    Charge (ESU x 10^10)
                -0.0000
    Dipole Moment (Debye)
         X      -1.9535      Y      -0.8619      Z      -1.0397
       Tot       2.3749
    Quadrupole Moments (Debye-Ang)
        XX    -146.3013     XY      -3.7512     YY    -151.5703
        XZ      -2.8627     YZ      -2.9621     ZZ    -159.0788

 Total job time:  126.12s(wall), 6013.44s(cpu)
        *  Thank you very much for using Q-Chem.  Have a nice day.  *
