 Q-Chem 5.0, Q-Chem, Inc., Pleasanton, CA (2017)
 Q-Chem 5.0.1 for Intel X86 EM64T Linux

User input:
--------------------------------------------------------------
$molecule
0  1
O -3.94934 -3.66094 2.70899
C -3.26408 -4.56952 2.26188
C -3.36658 -6.02376 2.66595
C -2.23106 -6.59425 3.5314
C -1.21065 -5.60247 4.04444
O -0.4592 -6.17743 5.02941
C 0.56511 -5.31353 5.53309
C 1.62339 -6.12732 6.27061
O 1.28318 -6.22546 7.66255
C 0.58901 -7.33548 8.01631
C 0.39658 -7.4582 9.50915
C 1.62091 -7.97393 10.27941
C 2.93496 -7.94894 9.52486
O 3.06799 -7.66938 8.34218
O -2.32351 -4.28074 1.3232
O 4.03716 -8.30079 10.23843
O 0.00707 -8.05705 7.21601
C 5.31574 -8.34327 9.72326
C 0.12133 -6.13183 10.2403
C -0.6008 -6.40988 11.55754
C 0.51475 -7.04552 12.36351
C 1.68432 -6.89882 11.38291
O 1.39065 -5.71394 10.67978
H -0.46567 -8.14788 9.65937
H 1.48489 -9.00551 10.67263
H -0.45355 -5.40459 9.62613
H -0.84677 -5.42198 12.00905
H -1.52911 -7.01487 11.4733
H 0.68552 -6.42695 13.27254
H 0.35048 -8.10705 12.64949
H 2.65013 -6.90874 11.93429
O -1.1096 -4.42527 3.72194
C -2.08504 -3.01684 0.82521
C -4.57575 -6.26848 3.59599
C -4.99128 -7.73775 3.54448
C -3.8591 -8.37358 4.31669
C -3.06729 -7.12669 4.72193
O -4.05026 -6.13818 4.89058
H -3.53072 -6.59958 1.7277
H -1.66926 -7.41463 3.03255
H -1.77584 -2.33411 1.64535
H -5.45325 -5.62793 3.35767
H -5.92702 -7.8414 4.1395
H -5.15827 -8.14257 2.52314
H -4.28453 -8.86686 5.21924
H -3.23906 -9.09816 3.74579
H -2.46378 -7.36071 5.62506
H -2.99835 -2.62152 0.33138
H -1.26796 -3.06905 0.07683
H 6.01887 -8.65995 10.52062
H 5.61546 -7.33672 9.36069
H 5.36817 -9.07454 8.88847
H 1.88083 -7.09255 5.7776
H 2.55544 -5.52146 6.25637
H 0.1713 -4.4584 6.12608
H 1.11953 -4.90422 4.65454
$end

$opt
CONSTRAINT
tors           1           2           3           4    -107.601
tors           3           4           5           6    +166.045
tors           4           5           6           7    +177.834
tors           5           6           7           8    -161.729
tors           6           7           8           9     -90.833
tors           7           8           9          10     +94.134
tors           8           9          10          11    +173.540
tors           9          10          11          12     -78.493
tors          11          12          13          14      -6.807
ENDCONSTRAINT
$end

$rem
JOBTYPE                   OPT
METHOD                    B3LYP
DFT_D                     d3_op
BASIS                     STO-3G
GEOM_OPT_MAX_CYCLES       100
GEOM_OPT_TOL_GRADIENT     300
GEOM_OPT_TOL_DISPLACEMENT 1200
GEOM_OPT_TOL_ENERGY       100
SYMMETRY                  False
THRESH                    12
SCF_CONVERGENCE           8
MAX_SUB_FILE_NUM          128
MEM_STATIC                400
MEM_TOTAL                 4000
$end
--------------------------------------------------------------

   15   -1510.1533091769      8.99E-09 Convergence criterion met
 Total energy in the final basis set = -1510.15330918
   13   -1510.2226022286      7.97E-09 Convergence criterion met
 Total energy in the final basis set = -1510.22260223
   13   -1510.2587638274      9.26E-09 Convergence criterion met
 Total energy in the final basis set = -1510.25876383
   14   -1510.2746701050      4.98E-09 Convergence criterion met
 Total energy in the final basis set = -1510.27467011
   13   -1510.2809713932      9.39E-09 Convergence criterion met
 Total energy in the final basis set = -1510.28097139
    2   -1510.2809713933      8.67E-09 Convergence criterion met
 Total energy in the final basis set = -1510.28097139
   13   -1510.2833694468      2.50E-09 Convergence criterion met
 Total energy in the final basis set = -1510.28336945
   12   -1510.2843797440      9.99E-09 Convergence criterion met
   12   -1510.2851399199      2.34E-09 Convergence criterion met
 Total energy in the final basis set = -1510.28513992
   11   -1510.2851786206      6.36E-09 Convergence criterion met
 Total energy in the final basis set = -1510.28517862
   10   -1510.2851993043      9.19E-09 Convergence criterion met
 Total energy in the final basis set = -1510.28519930
    9   -1510.2852113023      8.66E-09 Convergence criterion met
 Total energy in the final basis set = -1510.28521130
   10   -1510.2852185631      8.44E-09 Convergence criterion met
 Total energy in the final basis set = -1510.28521856
    9   -1510.2852212605      5.18E-09 Convergence criterion met
 Total energy in the final basis set = -1510.28522126

             Standard Nuclear Orientation (Angstroms)
    I     Atom           X                Y                Z
 ----------------------------------------------------------------
    1      O      -5.6191188098     0.1175143028     1.7321896728
    2      C      -5.3639460912     0.5513396464     0.5888181646
    3      C      -4.8137272048    -0.2598224843    -0.6422655319
    4      C      -3.3037978030     0.0376861545    -1.0089145858
    5      C      -2.5792966953     0.8910312780     0.0911633861
    6      O      -1.1773371847     0.8328465282    -0.1516638384
    7      C      -0.4295983744     1.6634180313     0.8244888968
    8      C       0.9930758329     1.9170572134     0.2108812952
    9      O       1.9533314792     0.8727866854     0.6299710175
   10      C       2.0105629571    -0.1690934615    -0.3581678744
   11      C       3.1535855247    -1.1771744092     0.0284702121
   12      C       4.6151230973    -0.6796824598    -0.3258067706
   13      C       4.6476074783     0.7164284155    -1.0341943548
   14      O       3.6736511515     1.3901024238    -1.4384641474
   15      O      -5.6993138773     1.8697347206     0.1263128211
   16      O       6.0105807196     1.1247941367    -1.1689163741
   17      O       1.2215789973    -0.2762243777    -1.3215690852
   18      C       6.0808482333     2.4421720086    -1.8435401422
   19      C       3.2848015491    -1.3662949926     1.6011908913
   20      C       4.1484036535    -2.6589686135     1.8839863595
   21      C       5.5945988712    -2.1415557923     1.5404182334
   22      C       5.2895895581    -0.6521090883     1.1149554659
   23      O       4.1786636320    -0.2563731290     2.0078182892
   24      H       2.9334933711    -2.1315456356    -0.4813746572
   25      H       5.1334147862    -1.4026187764    -0.9824985222
   26      H       2.3257651029    -1.3114222289     2.1512999469
   27      H       4.0650066799    -2.9521846921     2.9425350510
   28      H       3.8397944326    -3.5104514761     1.2566690143
   29      H       6.2512424658    -2.1612343462     2.4246866431
   30      H       6.0735687713    -2.7159540356     0.7314868248
   31      H       6.1382374657     0.0536838121     1.2021426875
   32      O      -3.1068997402     1.5099737767     1.0434410873
   33      C      -6.1726129863     2.6879564724     1.2636824334
   34      C      -4.7558808906    -1.8225019449    -0.3685210978
   35      C      -4.7457697305    -2.5573171925    -1.7638071990
   36      C      -3.2915269484    -2.2198692481    -2.2652012406
   37      C      -2.7089861812    -1.4337292130    -1.0242074039
   38      O      -3.3828645849    -2.0517860696     0.1415786225
   39      H      -5.4636261831    -0.0306731283    -1.5057467399
   40      H      -3.1998258495     0.5443359931    -1.9856775609
   41      H      -5.3770469525     2.8090327634     2.0271607147
   42      H      -5.5035380813    -2.1821534902     0.3649480720
   43      H      -4.8828491749    -3.6421127510    -1.6282064361
   44      H      -5.5294962319    -2.1824925136    -2.4412577684
   45      H      -2.7040307077    -3.1321461663    -2.4551191830
   46      H      -3.2898056641    -1.6037304317    -3.1786902275
   47      H      -1.6073815767    -1.4686218725    -0.9127299297
   48      H      -7.0633890142     2.2396913721     1.7501257531
   49      H      -6.4376046006     3.6759809748     0.8442233492
   50      H       7.1547538830     2.6981969248    -1.9005046756
   51      H       5.5417602081     3.2232761433    -1.2696665207
   52      H       5.6543684452     2.3990852941    -2.8666048362
   53      H       0.9120520267     1.9593983388    -0.8958543830
   54      H       1.3964657140     2.8746829247     0.5992281489
   55      H      -0.3381588150     1.1360580874     1.7998723908
   56      H      -0.9619202923     2.6235287103     0.9993330565
 ----------------------------------------------------------------

    9   -1510.2852220366      4.00E-09 Convergence criterion met
 Total energy in the final basis set = -1510.28522204
 Final energy is   -1510.28522203663
 **  OPTIMIZATION CONVERGED  **

                    Orbital Energies (a.u.)
 --------------------------------------------------------------

 Alpha MOs
 -- Occupied --
-18.943 -18.935 -18.921 -18.913 -18.888 -18.886 -18.879 -18.878
-18.863 -18.854 -10.107 -10.100 -10.092 -10.084 -10.071 -10.071
-10.067 -10.061 -10.059 -10.052 -10.050 -10.049 -10.041 -10.035
-10.033 -10.026 -10.021 -10.020 -10.014 -10.013  -1.020  -1.014
 -1.000  -0.991  -0.970  -0.962  -0.944  -0.938  -0.926  -0.918
 -0.764  -0.756  -0.726  -0.720  -0.712  -0.703  -0.690  -0.668
 -0.648  -0.612  -0.595  -0.575  -0.546  -0.538  -0.537  -0.530
 -0.513  -0.507  -0.485  -0.476  -0.464  -0.450  -0.447  -0.443
 -0.434  -0.425  -0.417  -0.415  -0.414  -0.407  -0.398  -0.396
 -0.392  -0.380  -0.375  -0.364  -0.359  -0.354  -0.350  -0.341
 -0.339  -0.332  -0.330  -0.328  -0.326  -0.325  -0.318  -0.315
 -0.307  -0.306  -0.301  -0.300  -0.294  -0.282  -0.276  -0.269
 -0.266  -0.261  -0.250  -0.242  -0.238  -0.235  -0.227  -0.186
 -0.178  -0.166  -0.161  -0.158  -0.153  -0.145  -0.142  -0.138
 -0.135

          Ground-State Mulliken Net Atomic Charges

     Atom                 Charge (a.u.)
  ----------------------------------------
      1 O                    -0.219280
      2 C                     0.215139
      3 C                    -0.082395
      4 C                    -0.076302
      5 C                     0.215212
      6 O                    -0.168034
      7 C                    -0.049447
      8 C                    -0.047711
      9 O                    -0.172669
     10 C                     0.214760
     11 C                    -0.081370
     12 C                    -0.078388
     13 C                     0.214130
     14 O                    -0.209323
     15 O                    -0.176112
     16 O                    -0.169455
     17 O                    -0.215285
     18 C                    -0.128056
     19 C                     0.026758
     20 C                    -0.144400
     21 C                    -0.143564
     22 C                     0.025125
     23 O                    -0.186920
     24 H                     0.083539
     25 H                     0.086395
     26 H                     0.085891
     27 H                     0.078420
     28 H                     0.073986
     29 H                     0.078242
     30 H                     0.073465
     31 H                     0.087240
     32 O                    -0.209937
     33 C                    -0.128135
     34 C                     0.023871
     35 C                    -0.143498
     36 C                    -0.144249
     37 C                     0.023447
     38 O                    -0.192400
     39 H                     0.082536
     40 H                     0.087081
     41 H                     0.091569
     42 H                     0.087818
     43 H                     0.076602
     44 H                     0.072302
     45 H                     0.077410
     46 H                     0.073367
     47 H                     0.093104
     48 H                     0.085250
     49 H                     0.084695
     50 H                     0.092180
     51 H                     0.091151
     52 H                     0.090346
     53 H                     0.105118
     54 H                     0.088493
     55 H                     0.090871
     56 H                     0.091416
  ----------------------------------------
  Sum of atomic charges =    -0.000000

                    Cartesian Multipole Moments
 -----------------------------------------------------------------
    Charge (ESU x 10^10)
                 0.0000
    Dipole Moment (Debye)
         X       3.0257      Y       0.3726      Z      -2.1657
       Tot       3.7395
    Quadrupole Moments (Debye-Ang)
        XX    -145.3202     XY      -2.6565     YY    -148.9405
        XZ       5.2998     YZ       0.6717     ZZ    -162.6521

 Total job time:  49.37s(wall), 2345.13s(cpu)
        *  Thank you very much for using Q-Chem.  Have a nice day.  *
