 Q-Chem 5.0, Q-Chem, Inc., Pleasanton, CA (2017)
 Q-Chem 5.0.1 for Intel X86 EM64T Linux

User input:
--------------------------------------------------------------
$molecule
0  1
O -5.6191188098 0.1175143028 1.7321896728
C -5.3639460912 0.5513396464 0.5888181646
C -4.8137272048 -0.2598224843 -0.6422655319
C -3.303797803 0.0376861545 -1.0089145858
C -2.5792966953 0.891031278 0.0911633861
O -1.1773371847 0.8328465282 -0.1516638384
C -0.4295983744 1.6634180313 0.8244888968
C 0.9930758329 1.9170572134 0.2108812952
O 1.9533314792 0.8727866854 0.6299710175
C 2.0105629571 -0.1690934615 -0.3581678744
C 3.1535855247 -1.1771744092 0.0284702121
C 4.6151230973 -0.6796824598 -0.3258067706
C 4.6476074783 0.7164284155 -1.0341943548
O 3.6736511515 1.3901024238 -1.4384641474
O -5.6993138773 1.8697347206 0.1263128211
O 6.0105807196 1.1247941367 -1.1689163741
O 1.2215789973 -0.2762243777 -1.3215690852
C 6.0808482333 2.4421720086 -1.8435401422
C 3.2848015491 -1.3662949926 1.6011908913
C 4.1484036535 -2.6589686135 1.8839863595
C 5.5945988712 -2.1415557923 1.5404182334
C 5.2895895581 -0.6521090883 1.1149554659
O 4.178663632 -0.256373129 2.0078182892
H 2.9334933711 -2.1315456356 -0.4813746572
H 5.1334147862 -1.4026187764 -0.9824985222
H 2.3257651029 -1.3114222289 2.1512999469
H 4.0650066799 -2.9521846921 2.942535051
H 3.8397944326 -3.5104514761 1.2566690143
H 6.2512424658 -2.1612343462 2.4246866431
H 6.0735687713 -2.7159540356 0.7314868248
H 6.1382374657 0.0536838121 1.2021426875
O -3.1068997402 1.5099737767 1.0434410873
C -6.1726129863 2.6879564724 1.2636824334
C -4.7558808906 -1.8225019449 -0.3685210978
C -4.7457697305 -2.5573171925 -1.763807199
C -3.2915269484 -2.2198692481 -2.2652012406
C -2.7089861812 -1.433729213 -1.0242074039
O -3.3828645849 -2.0517860696 0.1415786225
H -5.4636261831 -0.0306731283 -1.5057467399
H -3.1998258495 0.5443359931 -1.9856775609
H -5.3770469525 2.8090327634 2.0271607147
H -5.5035380813 -2.1821534902 0.364948072
H -4.8828491749 -3.642112751 -1.6282064361
H -5.5294962319 -2.1824925136 -2.4412577684
H -2.7040307077 -3.1321461663 -2.455119183
H -3.2898056641 -1.6037304317 -3.1786902275
H -1.6073815767 -1.4686218725 -0.9127299297
H -7.0633890142 2.2396913721 1.7501257531
H -6.4376046006 3.6759809748 0.8442233492
H 7.154753883 2.6981969248 -1.9005046756
H 5.5417602081 3.2232761433 -1.2696665207
H 5.6543684452 2.3990852941 -2.8666048362
H 0.9120520267 1.9593983388 -0.895854383
H 1.396465714 2.8746829247 0.5992281489
H -0.338158815 1.1360580874 1.7998723908
H -0.9619202923 2.6235287103 0.9993330565
$end

$rem
JOBTYPE                   OPT
METHOD                    B3LYP
DFT_D                     d3_op
BASIS                     STO-3G
GEOM_OPT_MAX_CYCLES       100
GEOM_OPT_TOL_GRADIENT     300
GEOM_OPT_TOL_DISPLACEMENT 1200
GEOM_OPT_TOL_ENERGY       100
SYMMETRY                  False
THRESH                    12
SCF_CONVERGENCE           8
MAX_SUB_FILE_NUM          128
MEM_STATIC                400
MEM_TOTAL                 4000
$end
--------------------------------------------------------------

   16   -1510.2852205285      5.52E-09 Convergence criterion met
 Total energy in the final basis set = -1510.28522053
   13   -1510.2859429278      9.96E-09 Convergence criterion met
 Total energy in the final basis set = -1510.28594293
   14   -1510.2865948646      1.82E-09 Convergence criterion met
 Total energy in the final basis set = -1510.28659486
   14   -1510.2870338559      1.95E-09 Convergence criterion met
 Total energy in the final basis set = -1510.28703386
   14   -1510.2878949154      2.01E-09 Convergence criterion met
 Total energy in the final basis set = -1510.28789492
   14   -1510.2822651249      9.93E-09 Convergence criterion met
 Total energy in the final basis set = -1510.28226512
   14   -1510.2888113966      3.92E-09 Convergence criterion met
 Total energy in the final basis set = -1510.28881140
   14   -1510.2897480202      2.21E-09 Convergence criterion met
   13   -1510.3050574913      4.73E-09 Convergence criterion met
 Total energy in the final basis set = -1510.30505749
   13   -1510.3047641646      6.02E-09 Convergence criterion met
 Total energy in the final basis set = -1510.30476416
   12   -1510.3051011229      9.17E-09 Convergence criterion met
 Total energy in the final basis set = -1510.30510112
   11   -1510.3050884979      8.41E-09 Convergence criterion met
 Total energy in the final basis set = -1510.30508850
   11   -1510.3051118585      8.23E-09 Convergence criterion met
 Total energy in the final basis set = -1510.30511186
   11   -1510.3050889814      8.38E-09 Convergence criterion met
 Total energy in the final basis set = -1510.30508898

             Standard Nuclear Orientation (Angstroms)
    I     Atom           X                Y                Z
 ----------------------------------------------------------------
    1      O      -2.1241865543    -1.2562307806     2.1512329955
    2      C      -2.9166531280    -0.6904520534     1.3689130806
    3      C      -3.1682211210    -1.0266359657    -0.1485389779
    4      C      -2.5630908843     0.0281814981    -1.1638234923
    5      C      -1.8230691072     1.2088645740    -0.4549496157
    6      O      -1.5809533840     2.2422362647    -1.4074385914
    7      C      -0.7700088348     3.3333904282    -0.8092921777
    8      C       0.7626715176     3.1194559231    -1.0989954424
    9      O       1.2772260895     1.9634397296    -0.3334546717
   10      C       1.2528039456     0.7825395250    -1.1506663167
   11      C       1.5607671008    -0.4817083794    -0.2729101316
   12      C       3.0927349235    -0.7454834716     0.0116715207
   13      C       4.0060313841     0.3510504405    -0.6278992954
   14      O       3.6546714222     1.2214526899    -1.4582911844
   15      O      -3.8676936847     0.3114618734     1.7588019745
   16      O       5.3363868817     0.2160942806    -0.1287329001
   17      O       0.8626707605     0.7734519315    -2.3443611621
   18      C       6.2082348197     1.2572554761    -0.7219166198
   19      C       1.0000729038    -0.3401476980     1.2078122370
   20      C       0.9400289372    -1.7851123611     1.8351857305
   21      C       2.4628670063    -2.0581554371     2.1237457657
   22      C       3.1152203065    -0.7165500111     1.6026618087
   23      O       2.1111952399     0.3161199936     1.9365259407
   24      H       1.0855165572    -1.3388186816    -0.7829834754
   25      H       3.4148271765    -1.7313416529    -0.3720069585
   26      H       0.0625546892     0.2529977982     1.2780805497
   27      H       0.3384567940    -1.7757391856     2.7573829010
   28      H       0.4942663307    -2.5091640193     1.1352719941
   29      H       2.6564184141    -2.1844156269     3.2009829172
   30      H       2.8486783440    -2.9411590548     1.5897456188
   31      H       4.1034728862    -0.4648491532     2.0342317243
   32      O      -1.4782504084     1.2667136657     0.7507462302
   33      C      -3.6215768486     0.7115043584     3.1616156465
   34      C      -2.3939996308    -2.3403232310    -0.5816086060
   35      C      -2.9959337179    -2.8461880322    -1.9505618874
   36      C      -2.3819676207    -1.8022590468    -2.9574872470
   37      C      -1.5442560297    -0.8881616019    -1.9831004569
   38      O      -1.0536226169    -1.8372053097    -0.9592057098
   39      H      -4.2583930892    -1.1237684877    -0.2989536451
   40      H      -3.3358476416     0.4522844432    -1.8293851266
   41      H      -2.6178663063     1.1700241436     3.2761966420
   42      H      -2.3087611425    -3.0998698747     0.2197029780
   43      H      -2.6517563402    -3.8695655929    -2.1693664994
   44      H      -4.0975004866    -2.8375063241    -1.9468143759
   45      H      -1.7176813388    -2.2897047391    -3.6886769818
   46      H      -3.1511413326    -1.2339962802    -3.5042325923
   47      H      -0.6858463176    -0.3295385549    -2.4255241297
   48      H      -3.6968614846    -0.1516798139     3.8542507744
   49      H      -4.3998961445     1.4560142929     3.4109598924
   50      H       7.2018268198     1.1241790728    -0.2560342348
   51      H       5.8282684321     2.2765853172    -0.5062944169
   52      H       6.2942347146     1.1381228107    -1.8214402026
   53      H       0.9160260063     2.9524482323    -2.1865618132
   54      H       1.3262803909     4.0129830018    -0.7611248162
   55      H      -0.9423369274     3.3697409069     0.2874233704
   56      H      -1.1131198279     4.2751520595    -1.2842996440
 ----------------------------------------------------------------

   11   -1510.3051081567      4.77E-09 Convergence criterion met
 Total energy in the final basis set = -1510.30510816
 Final energy is   -1510.30510815668
 **  OPTIMIZATION CONVERGED  **

                    Orbital Energies (a.u.)
 --------------------------------------------------------------

 Alpha MOs
 -- Occupied --
-18.944 -18.940 -18.922 -18.919 -18.887 -18.883 -18.880 -18.869
-18.861 -18.859 -10.108 -10.101 -10.091 -10.090 -10.073 -10.066
-10.065 -10.055 -10.053 -10.047 -10.046 -10.037 -10.031 -10.031
-10.030 -10.017 -10.017 -10.015 -10.004  -9.995  -1.022  -1.015
 -0.999  -0.997  -0.967  -0.953  -0.945  -0.939  -0.925  -0.924
 -0.760  -0.750  -0.723  -0.712  -0.705  -0.698  -0.687  -0.660
 -0.653  -0.613  -0.590  -0.573  -0.541  -0.535  -0.531  -0.518
 -0.508  -0.504  -0.485  -0.471  -0.457  -0.456  -0.448  -0.435
 -0.429  -0.424  -0.417  -0.414  -0.410  -0.404  -0.401  -0.397
 -0.392  -0.379  -0.370  -0.364  -0.359  -0.353  -0.349  -0.343
 -0.341  -0.337  -0.332  -0.327  -0.321  -0.319  -0.316  -0.304
 -0.299  -0.298  -0.298  -0.288  -0.280  -0.278  -0.275  -0.267
 -0.262  -0.255  -0.252  -0.243  -0.235  -0.230  -0.217  -0.190
 -0.181  -0.165  -0.164  -0.156  -0.154  -0.143  -0.142  -0.141
 -0.127

          Ground-State Mulliken Net Atomic Charges

     Atom                 Charge (a.u.)
  ----------------------------------------
      1 O                    -0.218193
      2 C                     0.214841
      3 C                    -0.081617
      4 C                    -0.079462
      5 C                     0.217021
      6 O                    -0.166215
      7 C                    -0.053339
      8 C                    -0.052145
      9 O                    -0.168124
     10 C                     0.217266
     11 C                    -0.086480
     12 C                    -0.078974
     13 C                     0.214927
     14 O                    -0.208930
     15 O                    -0.176405
     16 O                    -0.167527
     17 O                    -0.229283
     18 C                    -0.127727
     19 C                     0.018844
     20 C                    -0.144022
     21 C                    -0.144813
     22 C                     0.024463
     23 O                    -0.192741
     24 H                     0.097625
     25 H                     0.085460
     26 H                     0.101512
     27 H                     0.083681
     28 H                     0.078430
     29 H                     0.074463
     30 H                     0.069638
     31 H                     0.083174
     32 O                    -0.211991
     33 C                    -0.128785
     34 C                     0.024908
     35 C                    -0.144481
     36 C                    -0.144084
     37 C                     0.012396
     38 O                    -0.197681
     39 H                     0.083689
     40 H                     0.087697
     41 H                     0.092430
     42 H                     0.086296
     43 H                     0.076463
     44 H                     0.072497
     45 H                     0.078214
     46 H                     0.073317
     47 H                     0.106345
     48 H                     0.086455
     49 H                     0.086089
     50 H                     0.091785
     51 H                     0.091858
     52 H                     0.089488
     53 H                     0.102529
     54 H                     0.089056
     55 H                     0.100518
     56 H                     0.089644
  ----------------------------------------
  Sum of atomic charges =    -0.000000

                    Cartesian Multipole Moments
 -----------------------------------------------------------------
    Charge (ESU x 10^10)
                 0.0000
    Dipole Moment (Debye)
         X      -0.4374      Y       0.3799      Z      -0.8971
       Tot       1.0679
    Quadrupole Moments (Debye-Ang)
        XX    -141.1633     XY       1.5425     YY    -149.1104
        XZ      -0.3872     YZ       1.4838     ZZ    -163.6431

 Total job time:  102.88s(wall), 4901.52s(cpu)
        *  Thank you very much for using Q-Chem.  Have a nice day.  *
