 Q-Chem 5.0, Q-Chem, Inc., Pleasanton, CA (2017)
 Q-Chem 5.0.1 for Intel X86 EM64T Linux

User input:
--------------------------------------------------------------
$molecule
0  1
O -3.94934 -3.66094 2.70899
C -3.26408 -4.56952 2.26188
C -3.36658 -6.02376 2.66595
C -2.39062 -6.52408 3.74347
C -1.54096 -5.47375 4.42389
O -0.88061 -6.02647 5.48401
C -0.04395 -5.09286 6.17511
C 0.97876 -5.83538 7.02884
O 0.47387 -6.00198 8.36309
C -0.31463 -7.08821 8.55678
C -0.74547 -7.25363 9.99472
C 0.24731 -8.01604 10.88432
C 1.64499 -8.18241 10.32262
O 1.99783 -7.86806 9.19512
O -2.24961 -4.26657 1.40953
O 2.55375 -8.76197 11.151
O -0.78476 -7.76257 7.64945
C 3.86953 -9.00246 10.81505
C -0.89566 -5.94 10.78853
C -1.84239 -6.15479 11.96835
C -0.98423 -7.02404 12.86515
C 0.3261 -7.03375 12.06941
O 0.34576 -5.77945 11.42974
H -1.73207 -7.77068 9.96999
H -0.11561 -9.0279 11.16988
H -1.24393 -5.08752 10.16516
H -1.97944 -5.16465 12.45955
H -2.8381 -6.57589 11.71132
H -0.85016 -6.49902 13.837
H -1.36594 -8.05382 13.03687
H 1.18319 -7.24676 12.74538
O -1.47432 -4.28648 4.12944
C -1.96784 -2.99422 0.958
C -4.71189 -6.30886 3.37455
C -5.05407 -7.7949 3.27858
C -4.04657 -8.3752 4.24415
C -3.39796 -7.09068 4.76919
O -4.43548 -6.14524 4.74127
H -3.35477 -6.62285 1.72791
H -1.69821 -7.30643 3.36116
H -1.72297 -2.32932 1.81374
H -5.55677 -5.70714 2.97241
H -6.07275 -7.92704 3.70913
H -5.03194 -8.22161 2.25279
H -4.59984 -8.89197 5.05991
H -3.29868 -9.06471 3.79609
H -2.95198 -7.2853 5.76828
H -2.83753 -2.58489 0.40084
H -1.0937 -3.03546 0.27639
H 4.38263 -9.48127 11.67408
H 4.38437 -8.04688 10.57792
H 3.92277 -9.68535 9.94029
H 1.39786 -6.75788 6.56741
H 1.83474 -5.13632 7.15127
H -0.61058 -4.3147 6.73322
H 0.58578 -4.58107 5.4079
$end

$opt
CONSTRAINT
tors           1           2           3           4     -96.081
tors           3           4           5           6    +170.829
tors           4           5           6           7    +179.532
tors           5           6           7           8    -161.856
tors           6           7           8           9     -93.244
tors           7           8           9          10     +85.507
tors           8           9          10          11    +176.553
tors           9          10          11          12     -85.901
tors          11          12          13          14      -6.766
ENDCONSTRAINT
$end

$rem
JOBTYPE                   OPT
METHOD                    B3LYP
DFT_D                     d3_op
BASIS                     STO-3G
GEOM_OPT_MAX_CYCLES       100
GEOM_OPT_TOL_GRADIENT     300
GEOM_OPT_TOL_DISPLACEMENT 1200
GEOM_OPT_TOL_ENERGY       100
SYMMETRY                  False
THRESH                    12
SCF_CONVERGENCE           8
MAX_SUB_FILE_NUM          128
MEM_STATIC                400
MEM_TOTAL                 4000
$end
--------------------------------------------------------------

   15   -1510.1557594811      6.53E-09 Convergence criterion met
 Total energy in the final basis set = -1510.15575948
   13   -1510.2250482094      8.58E-09 Convergence criterion met
 Total energy in the final basis set = -1510.22504821
   13   -1510.2618270311      7.71E-09 Convergence criterion met
 Total energy in the final basis set = -1510.26182703
   13   -1510.2775462871      8.95E-09 Convergence criterion met
 Total energy in the final basis set = -1510.27754629
   13   -1510.2825407770      7.99E-09 Convergence criterion met
 Total energy in the final basis set = -1510.28254078
    2   -1510.2825407771      8.52E-09 Convergence criterion met
 Total energy in the final basis set = -1510.28254078
   13   -1510.2842901804      3.49E-09 Convergence criterion met
 Total energy in the final basis set = -1510.28429018
   12   -1510.2850247921      8.58E-09 Convergence criterion met
   11   -1510.2856743521      6.67E-09 Convergence criterion met
 Total energy in the final basis set = -1510.28567435
   11   -1510.2857036186      3.76E-09 Convergence criterion met
 Total energy in the final basis set = -1510.28570362
   10   -1510.2857152780      7.56E-09 Convergence criterion met
 Total energy in the final basis set = -1510.28571528
   10   -1510.2857202285      6.91E-09 Convergence criterion met
 Total energy in the final basis set = -1510.28572023
    9   -1510.2857222950      5.78E-09 Convergence criterion met
 Total energy in the final basis set = -1510.28572230
    9   -1510.2857233956      7.05E-09 Convergence criterion met
 Total energy in the final basis set = -1510.28572340

             Standard Nuclear Orientation (Angstroms)
    I     Atom           X                Y                Z
 ----------------------------------------------------------------
    1      O      -5.4898933249    -0.0721398863     1.6901676810
    2      C      -5.3565292560     0.4350021945     0.5563507869
    3      C      -4.7965033849    -0.2581060314    -0.7410710584
    4      C      -3.2597995490     0.0072710881    -1.0129387786
    5      C      -2.5821612638     0.8886022259     0.0911954294
    6      O      -1.1765336871     0.8788976040    -0.1421474121
    7      C      -0.4643992146     1.7056258927     0.8623223137
    8      C       0.9614118227     2.0256461832     0.2828282040
    9      O       1.9707932245     1.0414668614     0.7299081025
   10      C       1.9746560044    -0.1048601484    -0.1364957242
   11      C       3.1201552366    -1.0821610864     0.3222772026
   12      C       4.5458278282    -0.7595512028    -0.2880992711
   13      C       4.5577870506     0.5300470868    -1.1770616364
   14      O       3.5748994180     1.2204254209    -1.5287769997
   15      O      -5.8261501662     1.7415016882     0.1890420000
   16      O       5.9068019636     0.8143824073    -1.5518772157
   17      O       1.1375401344    -0.3176940510    -1.0393279842
   18      C       5.9536603227     2.0358202526    -2.3896218612
   19      C       3.4341314958    -0.9841489307     1.8765164633
   20      C       4.2285808582    -2.2807038134     2.3044257130
   21      C       5.6451786651    -1.9863759210     1.6847840585
   22      C       5.4045425978    -0.5662278122     1.0355645385
   23      O       4.4535620694     0.0878238557     1.9610839342
   24      H       2.8045006104    -2.1020633310     0.0389240102
   25      H       4.9312818712    -1.6013855620    -0.8919679964
   26      H       2.5582293910    -0.7351656674     2.5056213009
   27      H       4.2762535781    -2.3576322881     3.4022950284
   28      H       3.7705447450    -3.1998774413     1.9054129472
   29      H       6.4234315261    -1.9273088313     2.4622136551
   30      H       5.9479271568    -2.7363824178     0.9367356061
   31      H       6.3112469195     0.0542006613     0.8967202622
   32      O      -3.1411765724     1.5039742405     1.0275019648
   33      C      -6.2946259897     2.4573395583     1.3956718741
   34      C      -4.7995823157    -1.8393103709    -0.5967936158
   35      C      -4.6544849140    -2.4708507578    -2.0368632140
   36      C      -3.1348623049    -2.1917287185    -2.3383224274
   37      C      -2.6853841050    -1.4738044650    -1.0052465018
   38      O      -3.4954396844    -2.1358507699     0.0420443318
   39      H      -5.4058643366     0.0778532575    -1.5984622368
   40      H      -3.0959970041     0.4942304702    -1.9917224098
   41      H      -5.4642158254     2.6146855757     2.1142122495
   42      H      -5.6277312383    -2.2382829207     0.0201289472
   43      H      -4.8682168911    -3.5511701757    -2.0069226041
   44      H      -5.3283637169    -1.9974844943    -2.7686362372
   45      H      -2.5712789429    -3.1274008424    -2.4815454477
   46      H      -2.9866236643    -1.5511015720    -3.2222495837
   47      H      -1.6034706261    -1.5324462964    -0.7740135410
   48      H      -7.1078374031     1.9062014492     1.9112642458
   49      H      -6.6734447114     3.4356679051     1.0467222572
   50      H       7.0188131638     2.1920938264    -2.6407519708
   51      H       5.5669311424     2.9196167619    -1.8422870079
   52      H       5.3654137909     1.9134011482    -3.3219966128
   53      H       0.9044935840     2.0670324640    -0.8259589424
   54      H       1.3082492913     3.0026245904     0.6765849295
   55      H      -0.3695322494     1.1559590627     1.8251873538
   56      H      -1.0300793917     2.6427415250     1.0567835697
 ----------------------------------------------------------------

    9   -1510.2857242163      3.89E-09 Convergence criterion met
 Total energy in the final basis set = -1510.28572422
 Final energy is   -1510.28572421634
 **  OPTIMIZATION CONVERGED  **

                    Orbital Energies (a.u.)
 --------------------------------------------------------------

 Alpha MOs
 -- Occupied --
-18.944 -18.935 -18.921 -18.913 -18.888 -18.887 -18.879 -18.878
-18.862 -18.853 -10.107 -10.099 -10.092 -10.083 -10.071 -10.071
-10.069 -10.061 -10.059 -10.052 -10.051 -10.049 -10.041 -10.034
-10.033 -10.026 -10.021 -10.019 -10.014 -10.013  -1.021  -1.014
 -0.999  -0.991  -0.970  -0.962  -0.944  -0.937  -0.926  -0.917
 -0.764  -0.756  -0.725  -0.719  -0.712  -0.702  -0.690  -0.668
 -0.649  -0.612  -0.594  -0.575  -0.546  -0.538  -0.537  -0.530
 -0.513  -0.507  -0.485  -0.474  -0.463  -0.451  -0.446  -0.444
 -0.434  -0.425  -0.417  -0.417  -0.412  -0.406  -0.399  -0.396
 -0.391  -0.380  -0.375  -0.364  -0.359  -0.354  -0.349  -0.340
 -0.339  -0.333  -0.331  -0.327  -0.325  -0.325  -0.318  -0.314
 -0.307  -0.306  -0.300  -0.299  -0.294  -0.281  -0.276  -0.269
 -0.266  -0.261  -0.249  -0.243  -0.238  -0.234  -0.227  -0.186
 -0.177  -0.166  -0.161  -0.158  -0.154  -0.145  -0.140  -0.137
 -0.134

          Ground-State Mulliken Net Atomic Charges

     Atom                 Charge (a.u.)
  ----------------------------------------
      1 O                    -0.218489
      2 C                     0.214558
      3 C                    -0.082174
      4 C                    -0.077109
      5 C                     0.213865
      6 O                    -0.166390
      7 C                    -0.049893
      8 C                    -0.047040
      9 O                    -0.173328
     10 C                     0.214269
     11 C                    -0.081763
     12 C                    -0.078173
     13 C                     0.214665
     14 O                    -0.208104
     15 O                    -0.175254
     16 O                    -0.169174
     17 O                    -0.215071
     18 C                    -0.128012
     19 C                     0.026490
     20 C                    -0.144193
     21 C                    -0.143842
     22 C                     0.024841
     23 O                    -0.188185
     24 H                     0.083108
     25 H                     0.086834
     26 H                     0.086578
     27 H                     0.078137
     28 H                     0.073963
     29 H                     0.078158
     30 H                     0.073438
     31 H                     0.086919
     32 O                    -0.210570
     33 C                    -0.128223
     34 C                     0.025013
     35 C                    -0.144326
     36 C                    -0.143438
     37 C                     0.024164
     38 O                    -0.190517
     39 H                     0.082845
     40 H                     0.086655
     41 H                     0.091762
     42 H                     0.086085
     43 H                     0.076480
     44 H                     0.072200
     45 H                     0.077397
     46 H                     0.073551
     47 H                     0.093361
     48 H                     0.085496
     49 H                     0.084762
     50 H                     0.092257
     51 H                     0.091237
     52 H                     0.090787
     53 H                     0.103036
     54 H                     0.089389
     55 H                     0.089269
     56 H                     0.091700
  ----------------------------------------
  Sum of atomic charges =    -0.000000

                    Cartesian Multipole Moments
 -----------------------------------------------------------------
    Charge (ESU x 10^10)
                 0.0000
    Dipole Moment (Debye)
         X       2.8890      Y       0.3617      Z      -2.1662
       Tot       3.6290
    Quadrupole Moments (Debye-Ang)
        XX    -146.8511     XY      -4.5938     YY    -151.2654
        XZ       4.0755     YZ       0.0568     ZZ    -159.4836

 Total job time:  49.47s(wall), 2353.10s(cpu)
        *  Thank you very much for using Q-Chem.  Have a nice day.  *
