 Q-Chem 5.0, Q-Chem, Inc., Pleasanton, CA (2017)
 Q-Chem 5.0.1 for Intel X86 EM64T Linux

User input:
--------------------------------------------------------------
$molecule
0  1
O -5.4898933249 -0.0721398863 1.690167681
C -5.356529256 0.4350021945 0.5563507869
C -4.7965033849 -0.2581060314 -0.7410710584
C -3.259799549 0.0072710881 -1.0129387786
C -2.5821612638 0.8886022259 0.0911954294
O -1.1765336871 0.878897604 -0.1421474121
C -0.4643992146 1.7056258927 0.8623223137
C 0.9614118227 2.0256461832 0.282828204
O 1.9707932245 1.0414668614 0.7299081025
C 1.9746560044 -0.1048601484 -0.1364957242
C 3.1201552366 -1.0821610864 0.3222772026
C 4.5458278282 -0.7595512028 -0.2880992711
C 4.5577870506 0.5300470868 -1.1770616364
O 3.574899418 1.2204254209 -1.5287769997
O -5.8261501662 1.7415016882 0.189042
O 5.9068019636 0.8143824073 -1.5518772157
O 1.1375401344 -0.317694051 -1.0393279842
C 5.9536603227 2.0358202526 -2.3896218612
C 3.4341314958 -0.9841489307 1.8765164633
C 4.2285808582 -2.2807038134 2.304425713
C 5.6451786651 -1.986375921 1.6847840585
C 5.4045425978 -0.5662278122 1.0355645385
O 4.4535620694 0.0878238557 1.9610839342
H 2.8045006104 -2.102063331 0.0389240102
H 4.9312818712 -1.601385562 -0.8919679964
H 2.558229391 -0.7351656674 2.5056213009
H 4.2762535781 -2.3576322881 3.4022950284
H 3.770544745 -3.1998774413 1.9054129472
H 6.4234315261 -1.9273088313 2.4622136551
H 5.9479271568 -2.7363824178 0.9367356061
H 6.3112469195 0.0542006613 0.8967202622
O -3.1411765724 1.5039742405 1.0275019648
C -6.2946259897 2.4573395583 1.3956718741
C -4.7995823157 -1.8393103709 -0.5967936158
C -4.654484914 -2.4708507578 -2.036863214
C -3.1348623049 -2.1917287185 -2.3383224274
C -2.685384105 -1.473804465 -1.0052465018
O -3.4954396844 -2.1358507699 0.0420443318
H -5.4058643366 0.0778532575 -1.5984622368
H -3.0959970041 0.4942304702 -1.9917224098
H -5.4642158254 2.6146855757 2.1142122495
H -5.6277312383 -2.2382829207 0.0201289472
H -4.8682168911 -3.5511701757 -2.0069226041
H -5.3283637169 -1.9974844943 -2.7686362372
H -2.5712789429 -3.1274008424 -2.4815454477
H -2.9866236643 -1.551101572 -3.2222495837
H -1.6034706261 -1.5324462964 -0.774013541
H -7.1078374031 1.9062014492 1.9112642458
H -6.6734447114 3.4356679051 1.0467222572
H 7.0188131638 2.1920938264 -2.6407519708
H 5.5669311424 2.9196167619 -1.8422870079
H 5.3654137909 1.9134011482 -3.3219966128
H 0.904493584 2.067032464 -0.8259589424
H 1.3082492913 3.0026245904 0.6765849295
H -0.3695322494 1.1559590627 1.8251873538
H -1.0300793917 2.642741525 1.0567835697
$end

$rem
JOBTYPE                   OPT
METHOD                    B3LYP
DFT_D                     d3_op
BASIS                     STO-3G
GEOM_OPT_MAX_CYCLES       100
GEOM_OPT_TOL_GRADIENT     300
GEOM_OPT_TOL_DISPLACEMENT 1200
GEOM_OPT_TOL_ENERGY       100
SYMMETRY                  False
THRESH                    12
SCF_CONVERGENCE           8
MAX_SUB_FILE_NUM          128
MEM_STATIC                400
MEM_TOTAL                 4000
$end
--------------------------------------------------------------

   16   -1510.2857186174      4.82E-09 Convergence criterion met
 Total energy in the final basis set = -1510.28571862
   14   -1510.2862460748      1.65E-09 Convergence criterion met
 Total energy in the final basis set = -1510.28624607
   14   -1510.2866972686      1.79E-09 Convergence criterion met
 Total energy in the final basis set = -1510.28669727
   13   -1510.2872463267      7.72E-09 Convergence criterion met
 Total energy in the final basis set = -1510.28724633
   14   -1510.2881138119      1.58E-09 Convergence criterion met
 Total energy in the final basis set = -1510.28811381
   14   -1510.2824961021      2.41E-09 Convergence criterion met
 Total energy in the final basis set = -1510.28249610
   14   -1510.2890824011      9.89E-09 Convergence criterion met
 Total energy in the final basis set = -1510.28908240
   14   -1510.2884376824      8.85E-09 Convergence criterion met
   12   -1510.3051188091      3.14E-09 Convergence criterion met
 Total energy in the final basis set = -1510.30511881
   11   -1510.3051397616      7.55E-09 Convergence criterion met
 Total energy in the final basis set = -1510.30513976
   11   -1510.3051451344      2.73E-09 Convergence criterion met
 Total energy in the final basis set = -1510.30514513
    9   -1510.3051473073      5.08E-09 Convergence criterion met
 Total energy in the final basis set = -1510.30514731
    9   -1510.3051490212      6.95E-09 Convergence criterion met
 Total energy in the final basis set = -1510.30514902
    9   -1510.3051514077      8.55E-09 Convergence criterion met
 Total energy in the final basis set = -1510.30515141

             Standard Nuclear Orientation (Angstroms)
    I     Atom           X                Y                Z
 ----------------------------------------------------------------
    1      O      -2.0613103174    -0.9217858239     2.3671250827
    2      C      -2.8809448659    -0.4719929229     1.5386829679
    3      C      -3.1680642195    -1.0111765922     0.0874500222
    4      C      -2.6002276191    -0.0965021882    -1.0745951324
    5      C      -1.8406565597     1.1671465670    -0.5510239482
    6      O      -1.6188771007     2.0527850527    -1.6468849564
    7      C      -0.7937501031     3.2161741842    -1.2326152102
    8      C       0.7302702633     2.9575564510    -1.5313726114
    9      O       1.2647830527     1.9274019138    -0.6153527816
   10      C       1.2031271724     0.6344671925    -1.2378945933
   11      C       1.5131867003    -0.4822307210    -0.1764351449
   12      C       3.0493510743    -0.7667041035     0.0550678733
   13      C       3.9605681713     0.1347863412    -0.8387914816
   14      O       3.5833150978     0.9420709096    -1.7199789677
   15      O      -3.8294769039     0.5687995851     1.8168350010
   16      O       5.3287528357    -0.0987738110    -0.5050412486
   17      O       0.7856355089     0.4490048149    -2.4077091164
   18      C       6.2065743612     0.7600056039    -1.3344644315
   19      C       1.0620144667    -0.0577225941     1.2845030043
   20      C       1.0185949324    -1.3593789702     2.1752584106
   21      C       2.5513196007    -1.6153678042     2.4241017934
   22      C       3.1906836387    -0.4256892997     1.6054590588
   23      O       2.2360338732     0.6861661432     1.8012120515
   24      H       0.9614271598    -1.3845566131    -0.4990452344
   25      H       3.3072820535    -1.8235995208    -0.1410158725
   26      H       0.1403205932     0.5625781366     1.3034608325
   27      H       0.4755630540    -1.1652206609     3.1133143270
   28      H       0.5214265192    -2.1902560197     1.6505431528
   29      H       2.8101803127    -1.5262825258     3.4913582216
   30      H       2.8878691379    -2.5994679728     2.0605458725
   31      H       4.2134359363    -0.1296554138     1.9105167118
   32      O      -1.4723187728     1.3947160319     0.6269393682
   33      C      -3.5467372931     1.1552112562     3.1453165035
   34      C      -2.3922224400    -2.3655468709    -0.1864187177
   35      C      -3.0270558280    -3.0618661102    -1.4531270164
   36      C      -2.4682705210    -2.1522837789    -2.6119098499
   37      C      -1.6056642748    -1.1105864951    -1.8006700695
   38      O      -1.0707061210    -1.9112732542    -0.6760946022
   39      H      -4.2606181071    -1.1349905614    -0.0203300942
   40      H      -3.3963143687     0.2403230990    -1.7623863883
   41      H      -2.5495953453     1.6413455467     3.1625331191
   42      H      -2.2727689303    -3.0059946536     0.7089501624
   43      H      -2.6653017950    -4.0984673774    -1.5443079387
   44      H      -4.1279775992    -3.0745395459    -1.4131090163
   45      H      -1.8270831676    -2.7253607284    -3.3005233066
   46      H      -3.2666473702    -1.6674392530    -3.1958723160
   47      H      -0.7641052399    -0.6159797714    -2.3412736286
   48      H      -3.5805158136     0.3899225840     3.9475932076
   49      H      -4.3319938884     1.9131652325     3.3215002290
   50      H       7.2428047240     0.5056997001    -1.0453247208
   51      H       6.0204434983     1.8364640912    -1.1421628877
   52      H       6.0627855901     0.5652289434    -2.4168339353
   53      H       0.8532825309     2.6295147777    -2.5856922969
   54      H       1.3032469697     3.8892067442    -1.3466865111
   55      H      -0.9349892263     3.4083704252    -0.1477024417
   56      H      -1.1509881752     4.0817711868    -1.8270550973
 ----------------------------------------------------------------

    9   -1510.3051518096      3.64E-09 Convergence criterion met
 Total energy in the final basis set = -1510.30515181
 Final energy is   -1510.30515180955
 **  OPTIMIZATION CONVERGED  **

                    Orbital Energies (a.u.)
 --------------------------------------------------------------

 Alpha MOs
 -- Occupied --
-18.943 -18.939 -18.922 -18.919 -18.887 -18.884 -18.881 -18.870
-18.861 -18.858 -10.108 -10.101 -10.090 -10.090 -10.072 -10.066
-10.065 -10.056 -10.054 -10.047 -10.046 -10.037 -10.031 -10.031
-10.030 -10.017 -10.016 -10.015 -10.005  -9.996  -1.022  -1.015
 -0.999  -0.996  -0.968  -0.953  -0.944  -0.939  -0.924  -0.924
 -0.760  -0.750  -0.723  -0.712  -0.705  -0.698  -0.687  -0.660
 -0.653  -0.613  -0.589  -0.573  -0.541  -0.535  -0.531  -0.518
 -0.507  -0.504  -0.485  -0.471  -0.457  -0.455  -0.448  -0.435
 -0.429  -0.424  -0.417  -0.414  -0.410  -0.403  -0.402  -0.397
 -0.392  -0.379  -0.370  -0.364  -0.359  -0.353  -0.349  -0.343
 -0.341  -0.337  -0.330  -0.326  -0.323  -0.318  -0.316  -0.305
 -0.300  -0.299  -0.298  -0.289  -0.280  -0.278  -0.274  -0.268
 -0.262  -0.255  -0.252  -0.243  -0.234  -0.230  -0.216  -0.190
 -0.181  -0.165  -0.164  -0.155  -0.154  -0.143  -0.142  -0.141
 -0.128

          Ground-State Mulliken Net Atomic Charges

     Atom                 Charge (a.u.)
  ----------------------------------------
      1 O                    -0.218380
      2 C                     0.214627
      3 C                    -0.081758
      4 C                    -0.079261
      5 C                     0.216871
      6 O                    -0.166656
      7 C                    -0.053466
      8 C                    -0.052009
      9 O                    -0.167792
     10 C                     0.217612
     11 C                    -0.088460
     12 C                    -0.079454
     13 C                     0.214629
     14 O                    -0.207921
     15 O                    -0.176251
     16 O                    -0.167891
     17 O                    -0.230242
     18 C                    -0.127952
     19 C                     0.018647
     20 C                    -0.143378
     21 C                    -0.144538
     22 C                     0.024895
     23 O                    -0.192416
     24 H                     0.101244
     25 H                     0.085888
     26 H                     0.101280
     27 H                     0.082405
     28 H                     0.078344
     29 H                     0.074481
     30 H                     0.070014
     31 H                     0.081907
     32 O                    -0.212351
     33 C                    -0.128753
     34 C                     0.025102
     35 C                    -0.144311
     36 C                    -0.144166
     37 C                     0.011775
     38 O                    -0.197917
     39 H                     0.083799
     40 H                     0.087701
     41 H                     0.092133
     42 H                     0.086271
     43 H                     0.076572
     44 H                     0.072493
     45 H                     0.078216
     46 H                     0.073197
     47 H                     0.108071
     48 H                     0.086663
     49 H                     0.086147
     50 H                     0.091673
     51 H                     0.090716
     52 H                     0.090636
     53 H                     0.102369
     54 H                     0.089194
     55 H                     0.100228
     56 H                     0.089520
  ----------------------------------------
  Sum of atomic charges =     0.000000

                    Cartesian Multipole Moments
 -----------------------------------------------------------------
    Charge (ESU x 10^10)
                 0.0000
    Dipole Moment (Debye)
         X      -0.5080      Y       0.1140      Z      -0.9445
       Tot       1.0785
    Quadrupole Moments (Debye-Ang)
        XX    -141.3757     XY       0.6511     YY    -149.7670
        XZ      -1.8268     YZ      -0.7471     ZZ    -162.8040

 Total job time:  125.27s(wall), 5971.23s(cpu)
        *  Thank you very much for using Q-Chem.  Have a nice day.  *
