 Q-Chem 5.0, Q-Chem, Inc., Pleasanton, CA (2017)
 Q-Chem 5.0.1 for Intel X86 EM64T Linux

User input:
--------------------------------------------------------------
$molecule
0  1
O -5.3050327087 -0.2506377518 1.7642230298
C -5.2259589693 0.2459435855 0.6204434211
C -4.6056195272 -0.4080006196 -0.6671262548
C -3.2292642006 0.2254115715 -1.1233963045
C -2.6063245503 1.1564491555 -0.0197235826
O -1.2027920847 1.1901804058 -0.2423339932
C -0.4964236347 2.0491801804 0.7323722666
C 0.9616985384 2.2306515698 0.17383378
O 1.8859228317 1.2017890419 0.7006584841
C 1.7626675927 -0.0217451792 -0.0434060185
C 2.8248924668 -1.0507454529 0.4962787694
C 4.2716872305 -0.8824184873 -0.1243955298
C 4.3714737045 0.2822173049 -1.1650029413
O 3.4515783585 1.0320307398 -1.5626833728
O -5.8625384707 1.470464253 0.2222409314
O 5.723430096 0.3684826679 -1.6190319002
O 0.8955306131 -0.2502528199 -0.9145074288
C 5.8602129574 1.4695475952 -2.6011918242
C 3.1419791439 -0.8498855213 2.0394152136
C 3.876173057 -2.143869893 2.5727905596
C 5.3144106707 -1.9528506733 1.9629049985
C 5.1328317145 -0.5921080318 1.1819485053
O 4.2080471915 0.1798068421 2.039732804
H 2.4311635114 -2.0613286654 0.2885875376
H 4.6117250642 -1.8117079749 -0.6164927184
H 2.2788336485 -0.5138334502 2.6450386864
H 3.9008665963 -2.145490132 3.6740796721
H 3.3869717903 -3.0691850864 2.228991503
H 6.076181052 -1.8429833026 2.7511258794
H 5.6108010662 -2.7790307599 1.2970361541
H 6.0643645961 -0.0240797785 0.992390475
O -3.1896950577 1.73455275 0.9248458417
C -6.4093710235 2.1564333155 1.4127451809
C -4.1870429167 -1.9260900658 -0.4658796177
C -4.1363351455 -2.6006585832 -1.8916742637
C -2.8401163665 -1.9346408432 -2.4881867908
C -2.3327679182 -1.0798405034 -1.2603901712
O -2.7590110466 -1.8636377213 -0.0760429703
H -5.3519628635 -0.308074291 -1.4756762884
H -3.3169895267 0.7865111759 -2.071704903
H -5.5983576114 2.4539728287 2.1085669583
H -4.7753448391 -2.4619381362 0.3041922706
H -4.0199697712 -3.6921208243 -1.7953861209
H -5.0385111647 -2.3920117462 -2.4889502298
H -2.0888039438 -2.6884002059 -2.7721437496
H -3.0554304882 -1.3045478198 -3.366068696
H -1.2416113086 -0.8732730617 -1.226967483
H -7.129494657 1.5155775029 1.9618469457
H -6.9260541282 3.059299324 1.0382921275
H 6.9212629218 1.4706342411 -2.9115323832
H 5.6030108189 2.4502273298 -2.1513767353
H 5.2133893485 1.3078664358 -3.4876556939
H 0.9311597844 2.2127450763 -0.9367067833
H 1.3755011516 3.1990535663 0.5208785034
H -0.4687710765 1.5740383823 1.7380533745
H -1.0059719554 3.0330564821 0.8284091148
$end

$rem
JOBTYPE                   OPT
METHOD                    B3LYP
DFT_D                     d3_op
BASIS                     STO-3G
GEOM_OPT_MAX_CYCLES       100
GEOM_OPT_TOL_GRADIENT     300
GEOM_OPT_TOL_DISPLACEMENT 1200
GEOM_OPT_TOL_ENERGY       100
SYMMETRY                  False
THRESH                    12
SCF_CONVERGENCE           8
MAX_SUB_FILE_NUM          128
MEM_STATIC                400
MEM_TOTAL                 4000
$end
--------------------------------------------------------------

   16   -1510.2859826816      5.32E-09 Convergence criterion met
 Total energy in the final basis set = -1510.28598268
   13   -1510.2871574885      9.27E-09 Convergence criterion met
 Total energy in the final basis set = -1510.28715749
   14   -1510.2883467035      2.88E-09 Convergence criterion met
 Total energy in the final basis set = -1510.28834670
   14   -1510.2895085761      3.04E-09 Convergence criterion met
 Total energy in the final basis set = -1510.28950858
   14   -1510.2902892348      3.85E-09 Convergence criterion met
 Total energy in the final basis set = -1510.29028923
   14   -1510.2917505232      3.18E-09 Convergence criterion met
 Total energy in the final basis set = -1510.29175052
   14   -1510.2934507614      3.23E-09 Convergence criterion met
 Total energy in the final basis set = -1510.29345076
   14   -1510.2915104281      4.78E-09 Convergence criterion met
   12   -1510.3064702027      6.98E-09 Convergence criterion met
 Total energy in the final basis set = -1510.30647020
   12   -1510.3065269957      3.74E-09 Convergence criterion met
 Total energy in the final basis set = -1510.30652700
   11   -1510.3065292933      4.61E-09 Convergence criterion met
 Total energy in the final basis set = -1510.30652929
   11   -1510.3065486176      3.13E-09 Convergence criterion met
 Total energy in the final basis set = -1510.30654862
   11   -1510.3065563052      4.34E-09 Convergence criterion met
 Total energy in the final basis set = -1510.30655631
   10   -1510.3065580419      8.58E-09 Convergence criterion met
 Total energy in the final basis set = -1510.30655804

             Standard Nuclear Orientation (Angstroms)
    I     Atom           X                Y                Z
 ----------------------------------------------------------------
    1      O      -1.9521835806    -0.3255964275     2.5223834167
    2      C      -2.7816203437    -0.2196095500     1.5917376351
    3      C      -2.9465822473    -1.1783534009     0.3549375312
    4      C      -2.4294062229    -0.5781876655    -1.0172065915
    5      C      -1.8704996958     0.8778454726    -0.8772346844
    6      O      -1.7362717198     1.4338911695    -2.1866552862
    7      C      -1.1113981500     2.7804626203    -2.1417758614
    8      C       0.4480009493     2.6902391187    -2.3537832297
    9      O       1.0854416513     2.1108314184    -1.1525491730
   10      C       1.1366221075     0.6791223318    -1.2655326581
   11      C       1.3473487588     0.0273149037     0.1471093914
   12      C       2.7375973219    -0.6983196906     0.3255844910
   13      C       3.7373122418    -0.2772592319    -0.8001125509
   14      O       3.5404840328     0.6028715272    -1.6710544033
   15      O      -3.8553070085     0.7272934475     1.5706812691
   16      O       4.9462820772    -1.0258581149    -0.6802951209
   17      O       0.8471190489     0.0676271232    -2.3258034167
   18      C       5.9095305377    -0.5995987195    -1.7230492105
   19      C       1.3809336389     1.0603910701     1.3524529875
   20      C       0.9824812358     0.2861364021     2.6620157496
   21      C       2.2467120147    -0.6308299945     2.8537310177
   22      C       3.2021420641    -0.0844478210     1.7148122371
   23      O       2.8246861662     1.3382477082     1.5618712724
   24      H       0.5159677369    -0.7098730875     0.2680854961
   25      H       2.6501146925    -1.7991531204     0.3571211179
   26      H       0.8244533590     1.9962977091     1.1564717745
   27      H       0.8866223637     0.9978815294     3.4975723997
   28      H       0.0253308765    -0.2579373494     2.5560707526
   29      H       2.7063946117    -0.4947133776     3.8454382128
   30      H       2.0220945322    -1.7007315356     2.7146424720
   31      H       4.2869402921    -0.1856476391     1.9144662981
   32      O      -1.5832731089     1.4747799321     0.1861858637
   33      C      -3.6964601682     1.6859493059     2.6872295439
   34      C      -2.0130706551    -2.4459607178     0.5048374974
   35      C      -2.4868112518    -3.5489695963    -0.5191358043
   36      C      -1.9597443221    -2.9532707327    -1.8799021477
   37      C      -1.2798136946    -1.6183811654    -1.3940145687
   38      O      -0.7246633626    -1.9901499029    -0.0698078792
   39      H      -4.0128344707    -1.4566901555     0.2786457181
   40      H      -3.2216431169    -0.5707192420    -1.7870482823
   41      H      -2.7731858509     2.2885434774     2.5646394614
   42      H      -1.8708389052    -2.7834746955     1.5497269551
   43      H      -2.0112663178    -4.5162083794    -0.2917945209
   44      H      -3.5805484942    -3.6804348249    -0.5071975805
   45      H      -1.2128734583    -3.6155683004    -2.3460287760
   46      H      -2.7672969146    -2.7683603920    -2.6058121354
   47      H      -0.4643575233    -1.1841862036    -2.0241790184
   48      H      -3.6544736996     1.1691098615     3.6676095942
   49      H      -4.5805567824     2.3486070420     2.6523490754
   50      H       6.8058845192    -1.2322504386    -1.5873608347
   51      H       6.1869760165     0.4681690757    -1.6079546209
   52      H       5.4984593662    -0.7485531464    -2.7423184698
   53      H       0.6686150449     2.0672493218    -3.2468414290
   54      H       0.8623273354     3.7107034682    -2.4822931728
   55      H      -1.3270202271     3.2642753789    -1.1651478308
   56      H      -1.5690840446     3.3641759484    -2.9666986903
 ----------------------------------------------------------------

   10   -1510.3065586731      5.44E-09 Convergence criterion met
 Total energy in the final basis set = -1510.30655867
 Final energy is   -1510.30655867307
 **  OPTIMIZATION CONVERGED  **

                    Orbital Energies (a.u.)
 --------------------------------------------------------------

 Alpha MOs
 -- Occupied --
-18.941 -18.936 -18.928 -18.921 -18.897 -18.885 -18.877 -18.869
-18.866 -18.855 -10.107 -10.098 -10.096 -10.089 -10.073 -10.066
-10.063 -10.062 -10.058 -10.049 -10.045 -10.039 -10.037 -10.032
-10.025 -10.022 -10.019 -10.004 -10.001  -9.987  -1.021  -1.011
 -1.005  -0.996  -0.976  -0.951  -0.944  -0.935  -0.931  -0.923
 -0.765  -0.745  -0.725  -0.714  -0.703  -0.700  -0.683  -0.658
 -0.658  -0.614  -0.590  -0.572  -0.545  -0.539  -0.528  -0.516
 -0.511  -0.500  -0.485  -0.470  -0.462  -0.455  -0.449  -0.438
 -0.430  -0.426  -0.417  -0.414  -0.408  -0.406  -0.402  -0.395
 -0.391  -0.378  -0.368  -0.366  -0.358  -0.355  -0.351  -0.345
 -0.343  -0.340  -0.333  -0.328  -0.324  -0.316  -0.313  -0.306
 -0.305  -0.302  -0.293  -0.287  -0.282  -0.276  -0.273  -0.271
 -0.260  -0.255  -0.250  -0.248  -0.234  -0.232  -0.212  -0.191
 -0.177  -0.171  -0.164  -0.154  -0.152  -0.150  -0.149  -0.140
 -0.125

          Ground-State Mulliken Net Atomic Charges

     Atom                 Charge (a.u.)
  ----------------------------------------
      1 O                    -0.218754
      2 C                     0.219507
      3 C                    -0.082217
      4 C                    -0.079925
      5 C                     0.211899
      6 O                    -0.168545
      7 C                    -0.053585
      8 C                    -0.052027
      9 O                    -0.169508
     10 C                     0.216435
     11 C                    -0.099735
     12 C                    -0.077927
     13 C                     0.214941
     14 O                    -0.207127
     15 O                    -0.173137
     16 O                    -0.167755
     17 O                    -0.235199
     18 C                    -0.128043
     19 C                     0.021832
     20 C                    -0.152286
     21 C                    -0.144879
     22 C                     0.023901
     23 O                    -0.196928
     24 H                     0.112481
     25 H                     0.086512
     26 H                     0.090688
     27 H                     0.069743
     28 H                     0.096109
     29 H                     0.072460
     30 H                     0.071235
     31 H                     0.079307
     32 O                    -0.210980
     33 C                    -0.128380
     34 C                     0.025934
     35 C                    -0.143759
     36 C                    -0.143936
     37 C                     0.010961
     38 O                    -0.192471
     39 H                     0.085527
     40 H                     0.088161
     41 H                     0.093480
     42 H                     0.088541
     43 H                     0.078283
     44 H                     0.073805
     45 H                     0.079587
     46 H                     0.074498
     47 H                     0.114051
     48 H                     0.088525
     49 H                     0.087688
     50 H                     0.090865
     51 H                     0.090637
     52 H                     0.090609
     53 H                     0.101978
     54 H                     0.089726
     55 H                     0.097968
     56 H                     0.089227
  ----------------------------------------
  Sum of atomic charges =    -0.000000

                    Cartesian Multipole Moments
 -----------------------------------------------------------------
    Charge (ESU x 10^10)
                -0.0000
    Dipole Moment (Debye)
         X      -1.9293      Y      -0.8150      Z      -1.0847
       Tot       2.3586
    Quadrupole Moments (Debye-Ang)
        XX    -146.1577     XY      -3.5051     YY    -151.3439
        XZ      -3.0524     YZ      -2.6793     ZZ    -159.3492

 Total job time:  151.59s(wall), 7219.71s(cpu)
        *  Thank you very much for using Q-Chem.  Have a nice day.  *
