 Q-Chem 5.0, Q-Chem, Inc., Pleasanton, CA (2017)
 Q-Chem 5.0.1 for Intel X86 EM64T Linux

User input:
--------------------------------------------------------------
$molecule
0  1
O -3.94934 -3.66094 2.70899
C -3.26408 -4.56952 2.26188
C -3.36658 -6.02376 2.66595
C -2.22317 -6.59851 3.51808
C -1.19393 -5.61034 4.02035
O -0.59963 -6.09378 5.15106
C 0.3982 -5.21551 5.68233
C 1.21666 -5.93437 6.7498
O 0.63211 -5.71702 8.04361
C -0.41622 -6.52009 8.35219
C -0.93318 -6.30018 9.75399
C -0.16893 -7.05482 10.85159
C 1.18138 -7.61432 10.45121
O 1.6758 -7.54252 9.33543
O -2.34116 -4.2837 1.30475
O 1.88337 -8.23426 11.43638
O -0.78517 -7.46109 7.66092
C 3.13526 -8.78783 11.26833
C -0.80519 -4.85262 10.2774
C -1.83089 -4.61718 11.38669
C -1.24068 -5.45855 12.50038
C 0.07125 -5.90354 11.84379
O 0.40747 -4.8366 10.98972
H -2.01717 -6.55494 9.73153
H -0.75983 -7.89915 11.26965
H -0.91991 -4.0861 9.47993
H -1.75727 -3.54412 11.67506
H -2.88535 -4.85151 11.12466
H -1.04293 -4.79644 13.37237
H -1.8539 -6.3312 12.81414
H 0.82482 -6.15923 12.62073
O -0.99482 -4.48323 3.58518
C -2.12281 -3.024 0.78719
C -4.57829 -6.26587 3.59081
C -5.00349 -7.73068 3.5255
C -3.87307 -8.37836 4.28718
C -3.07462 -7.13802 4.70398
O -4.05197 -6.14734 4.88439
H -3.53181 -6.59419 1.72453
H -1.67018 -7.43524 3.0377
H -1.80805 -2.32756 1.59348
H -5.45159 -5.61795 3.35688
H -5.93868 -7.83441 4.12139
H -5.17458 -8.12443 2.50043
H -4.29999 -8.87987 5.18461
H -3.25774 -9.10014 3.70775
H -2.48765 -7.39747 5.60817
H -3.04767 -2.64437 0.30244
H -1.31729 -3.078 0.0265
H 3.47194 -9.22481 12.2307
H 3.86048 -8.00548 10.95768
H 3.09892 -9.59206 10.50272
H 1.46207 -6.9951 6.51821
H 2.18719 -5.39438 6.79563
H -0.01062 -4.24347 6.0391
H 1.12477 -5.01179 4.85994
$end

$opt
CONSTRAINT
tors           1           2           3           4    -108.274
tors           3           4           5           6    +155.048
tors           4           5           6           7    +179.532
tors           5           6           7           8    -168.002
tors           6           7           8           9     -91.690
tors           7           8           9          10     +81.670
tors           8           9          10          11    +176.553
tors           9          10          11          12     -83.448
tors          11          12          13          14      -2.156
ENDCONSTRAINT
$end

$rem
JOBTYPE                   OPT
METHOD                    B3LYP
DFT_D                     d3_op
BASIS                     STO-3G
GEOM_OPT_MAX_CYCLES       100
GEOM_OPT_TOL_GRADIENT     300
GEOM_OPT_TOL_DISPLACEMENT 1200
GEOM_OPT_TOL_ENERGY       100
SYMMETRY                  False
THRESH                    12
SCF_CONVERGENCE           8
MAX_SUB_FILE_NUM          128
MEM_STATIC                400
MEM_TOTAL                 4000
$end
--------------------------------------------------------------

   16   -1510.1530220229      1.47E-09 Convergence criterion met
 Total energy in the final basis set = -1510.15302202
   13   -1510.2225792752      7.97E-09 Convergence criterion met
 Total energy in the final basis set = -1510.22257928
   14   -1510.2595144735      4.92E-09 Convergence criterion met
 Total energy in the final basis set = -1510.25951447
   14   -1510.2755668942      4.27E-09 Convergence criterion met
 Total energy in the final basis set = -1510.27556689
   14   -1510.2814665190      3.79E-09 Convergence criterion met
 Total energy in the final basis set = -1510.28146652
   13   -1510.2838549809      3.11E-09 Convergence criterion met
 Total energy in the final basis set = -1510.28385498
   12   -1510.2850015219      7.15E-09 Convergence criterion met
 Total energy in the final basis set = -1510.28500152
   12   -1510.2853650942      5.95E-09 Convergence criterion met
   11   -1510.2860385440      6.84E-09 Convergence criterion met
 Total energy in the final basis set = -1510.28603854
   11   -1510.2860724393      5.23E-09 Convergence criterion met
 Total energy in the final basis set = -1510.28607244
   11   -1510.2861058545      5.42E-09 Convergence criterion met
 Total energy in the final basis set = -1510.28610585
   10   -1510.2861243509      5.71E-09 Convergence criterion met
 Total energy in the final basis set = -1510.28612435
    9   -1510.2861355058      6.71E-09 Convergence criterion met
 Total energy in the final basis set = -1510.28613551
    9   -1510.2861383548      6.61E-09 Convergence criterion met
 Total energy in the final basis set = -1510.28613835

             Standard Nuclear Orientation (Angstroms)
    I     Atom           X                Y                Z
 ----------------------------------------------------------------
    1      O      -5.3050327087    -0.2506377518     1.7642230298
    2      C      -5.2259589693     0.2459435855     0.6204434211
    3      C      -4.6056195272    -0.4080006196    -0.6671262548
    4      C      -3.2292642006     0.2254115715    -1.1233963045
    5      C      -2.6063245503     1.1564491555    -0.0197235826
    6      O      -1.2027920847     1.1901804058    -0.2423339932
    7      C      -0.4964236347     2.0491801804     0.7323722666
    8      C       0.9616985384     2.2306515698     0.1738337800
    9      O       1.8859228317     1.2017890419     0.7006584841
   10      C       1.7626675927    -0.0217451792    -0.0434060185
   11      C       2.8248924668    -1.0507454529     0.4962787694
   12      C       4.2716872305    -0.8824184873    -0.1243955298
   13      C       4.3714737045     0.2822173049    -1.1650029413
   14      O       3.4515783585     1.0320307398    -1.5626833728
   15      O      -5.8625384707     1.4704642530     0.2222409314
   16      O       5.7234300960     0.3684826679    -1.6190319002
   17      O       0.8955306131    -0.2502528199    -0.9145074288
   18      C       5.8602129574     1.4695475952    -2.6011918242
   19      C       3.1419791439    -0.8498855213     2.0394152136
   20      C       3.8761730570    -2.1438698930     2.5727905596
   21      C       5.3144106707    -1.9528506733     1.9629049985
   22      C       5.1328317145    -0.5921080318     1.1819485053
   23      O       4.2080471915     0.1798068421     2.0397328040
   24      H       2.4311635114    -2.0613286654     0.2885875376
   25      H       4.6117250642    -1.8117079749    -0.6164927184
   26      H       2.2788336485    -0.5138334502     2.6450386864
   27      H       3.9008665963    -2.1454901320     3.6740796721
   28      H       3.3869717903    -3.0691850864     2.2289915030
   29      H       6.0761810520    -1.8429833026     2.7511258794
   30      H       5.6108010662    -2.7790307599     1.2970361541
   31      H       6.0643645961    -0.0240797785     0.9923904750
   32      O      -3.1896950577     1.7345527500     0.9248458417
   33      C      -6.4093710235     2.1564333155     1.4127451809
   34      C      -4.1870429167    -1.9260900658    -0.4658796177
   35      C      -4.1363351455    -2.6006585832    -1.8916742637
   36      C      -2.8401163665    -1.9346408432    -2.4881867908
   37      C      -2.3327679182    -1.0798405034    -1.2603901712
   38      O      -2.7590110466    -1.8636377213    -0.0760429703
   39      H      -5.3519628635    -0.3080742910    -1.4756762884
   40      H      -3.3169895267     0.7865111759    -2.0717049030
   41      H      -5.5983576114     2.4539728287     2.1085669583
   42      H      -4.7753448391    -2.4619381362     0.3041922706
   43      H      -4.0199697712    -3.6921208243    -1.7953861209
   44      H      -5.0385111647    -2.3920117462    -2.4889502298
   45      H      -2.0888039438    -2.6884002059    -2.7721437496
   46      H      -3.0554304882    -1.3045478198    -3.3660686960
   47      H      -1.2416113086    -0.8732730617    -1.2269674830
   48      H      -7.1294946570     1.5155775029     1.9618469457
   49      H      -6.9260541282     3.0592993240     1.0382921275
   50      H       6.9212629218     1.4706342411    -2.9115323832
   51      H       5.6030108189     2.4502273298    -2.1513767353
   52      H       5.2133893485     1.3078664358    -3.4876556939
   53      H       0.9311597844     2.2127450763    -0.9367067833
   54      H       1.3755011516     3.1990535663     0.5208785034
   55      H      -0.4687710765     1.5740383823     1.7380533745
   56      H      -1.0059719554     3.0330564821     0.8284091148
 ----------------------------------------------------------------

    9   -1510.2861391082      6.08E-09 Convergence criterion met
 Total energy in the final basis set = -1510.28613911
 Final energy is   -1510.28613910816
 **  OPTIMIZATION CONVERGED  **

                    Orbital Energies (a.u.)
 --------------------------------------------------------------

 Alpha MOs
 -- Occupied --
-18.944 -18.934 -18.923 -18.913 -18.888 -18.887 -18.875 -18.873
-18.865 -18.854 -10.108 -10.097 -10.094 -10.083 -10.072 -10.071
-10.069 -10.062 -10.059 -10.048 -10.047 -10.042 -10.041 -10.034
-10.029 -10.024 -10.021 -10.019 -10.011 -10.009  -1.021  -1.013
 -0.999  -0.991  -0.970  -0.958  -0.944  -0.936  -0.928  -0.918
 -0.764  -0.753  -0.725  -0.719  -0.710  -0.701  -0.687  -0.668
 -0.647  -0.612  -0.594  -0.575  -0.546  -0.537  -0.534  -0.527
 -0.513  -0.505  -0.485  -0.475  -0.463  -0.448  -0.445  -0.443
 -0.434  -0.421  -0.417  -0.416  -0.412  -0.406  -0.397  -0.394
 -0.392  -0.380  -0.375  -0.364  -0.357  -0.354  -0.349  -0.340
 -0.337  -0.335  -0.331  -0.327  -0.324  -0.323  -0.314  -0.312
 -0.306  -0.303  -0.300  -0.296  -0.291  -0.281  -0.277  -0.268
 -0.263  -0.261  -0.248  -0.243  -0.237  -0.234  -0.222  -0.187
 -0.176  -0.167  -0.161  -0.159  -0.152  -0.145  -0.140  -0.135
 -0.133

          Ground-State Mulliken Net Atomic Charges

     Atom                 Charge (a.u.)
  ----------------------------------------
      1 O                    -0.219116
      2 C                     0.213872
      3 C                    -0.082584
      4 C                    -0.076667
      5 C                     0.214670
      6 O                    -0.166550
      7 C                    -0.047943
      8 C                    -0.046247
      9 O                    -0.170916
     10 C                     0.217031
     11 C                    -0.081404
     12 C                    -0.078694
     13 C                     0.214196
     14 O                    -0.208490
     15 O                    -0.174618
     16 O                    -0.169264
     17 O                    -0.215006
     18 C                    -0.128115
     19 C                     0.026816
     20 C                    -0.144392
     21 C                    -0.143519
     22 C                     0.025300
     23 O                    -0.187398
     24 H                     0.084483
     25 H                     0.086994
     26 H                     0.086585
     27 H                     0.078269
     28 H                     0.074482
     29 H                     0.078158
     30 H                     0.073628
     31 H                     0.086107
     32 O                    -0.212637
     33 C                    -0.127973
     34 C                     0.023468
     35 C                    -0.143373
     36 C                    -0.145072
     37 C                     0.017480
     38 O                    -0.194352
     39 H                     0.082041
     40 H                     0.084813
     41 H                     0.091732
     42 H                     0.086268
     43 H                     0.075526
     44 H                     0.071102
     45 H                     0.076703
     46 H                     0.071356
     47 H                     0.106707
     48 H                     0.085464
     49 H                     0.084843
     50 H                     0.092260
     51 H                     0.090903
     52 H                     0.090857
     53 H                     0.102336
     54 H                     0.089732
     55 H                     0.090858
     56 H                     0.089291
  ----------------------------------------
  Sum of atomic charges =    -0.000000

                    Cartesian Multipole Moments
 -----------------------------------------------------------------
    Charge (ESU x 10^10)
                 0.0000
    Dipole Moment (Debye)
         X       2.7972      Y       0.2522      Z      -2.0702
       Tot       3.4891
    Quadrupole Moments (Debye-Ang)
        XX    -146.6849     XY      -4.2084     YY    -151.5265
        XZ       2.6913     YZ      -0.7753     ZZ    -158.2290

 Total job time:  49.22s(wall), 2343.33s(cpu)
        *  Thank you very much for using Q-Chem.  Have a nice day.  *
