 Q-Chem 5.0, Q-Chem, Inc., Pleasanton, CA (2017)
 Q-Chem 5.0.1 for Intel X86 EM64T Linux

User input:
--------------------------------------------------------------
$molecule
0  1
O -3.94934 -3.66094 2.70899
C -3.26408 -4.56952 2.26188
C -3.36658 -6.02376 2.66595
C -2.32608 -6.5495 3.66835
C -1.40879 -5.52013 4.2905
O -0.9274 -5.98651 5.48053
C -0.02583 -5.07609 6.11893
C 0.66235 -5.75735 7.29725
O 0.01796 -5.38124 8.52452
C -1.10654 -6.07535 8.82922
C -1.70535 -5.67246 10.15578
C -1.12665 -6.40357 11.37597
C 0.17603 -7.14325 11.14658
O 0.77427 -7.21194 10.08264
O -2.27988 -4.27155 1.37245
O 0.70854 -7.75968 12.23475
O -1.49587 -7.05486 8.20534
C 1.89116 -8.46906 12.22501
C -1.4394 -4.20697 10.57319
C -2.51413 -3.75212 11.56103
C -2.1284 -4.55453 12.78701
C -0.83112 -5.20468 12.29272
O -0.29659 -4.26636 11.39081
H -2.80798 -5.78889 10.05222
H -1.84606 -7.13782 11.80029
H -1.39345 -3.50572 9.71127
H -2.32689 -2.67416 11.76889
H -3.56542 -3.87925 11.22348
H -1.92625 -3.84569 13.62039
H -2.86809 -5.32043 13.10673
H -0.18117 -5.47526 13.15372
O -1.19996 -4.38721 3.87467
C -2.01621 -3.00226 0.90157
C -4.67673 -6.28934 3.44006
C -5.05303 -7.7658 3.34571
C -4.00511 -8.3736 4.24574
C -3.30187 -7.10602 4.74449
O -4.3206 -6.14248 4.78776
H -3.41098 -6.61122 1.72156
H -1.68536 -7.36824 3.27366
H -1.7442 -2.33012 1.74337
H -5.53068 -5.66786 3.09053
H -6.04921 -7.88552 3.82931
H -5.09325 -8.17838 2.31464
H -4.5229 -8.88617 5.08727
H -3.29956 -9.0758 3.75126
H -2.82393 -7.33814 5.71907
H -2.90493 -2.59887 0.37078
H -1.16528 -3.04729 0.19143
H 2.08731 -8.86321 13.24317
H 2.73243 -7.8061 11.92974
H 1.81946 -9.32306 11.51798
H 0.8566 -6.84631 7.17384
H 1.66331 -5.27927 7.37268
H -0.48781 -4.10148 6.39549
H 0.79129 -4.87579 5.38517
$end

$opt
CONSTRAINT
tors           1           2           3           4    -100.366
tors           3           4           5           6    +156.474
tors           4           5           6           7    +178.758
tors           5           6           7           8    -169.700
tors           6           7           8           9     -99.628
tors           7           8           9          10     +81.978
tors           8           9          10          11    +177.686
tors           9          10          11          12     -86.259
tors          11          12          13          14      -0.986
ENDCONSTRAINT
$end

$rem
JOBTYPE                   OPT
METHOD                    B3LYP
DFT_D                     d3_op
BASIS                     STO-3G
GEOM_OPT_MAX_CYCLES       100
GEOM_OPT_TOL_GRADIENT     300
GEOM_OPT_TOL_DISPLACEMENT 1200
GEOM_OPT_TOL_ENERGY       100
SYMMETRY                  False
THRESH                    12
SCF_CONVERGENCE           8
MAX_SUB_FILE_NUM          128
MEM_STATIC                400
MEM_TOTAL                 4000
$end
--------------------------------------------------------------

   14   -1510.1518350249      9.96E-09 Convergence criterion met
 Total energy in the final basis set = -1510.15183502
   13   -1510.2213318460      6.90E-09 Convergence criterion met
 Total energy in the final basis set = -1510.22133185
   13   -1510.2585310430      8.46E-09 Convergence criterion met
 Total energy in the final basis set = -1510.25853104
   14   -1510.2749337232      5.21E-09 Convergence criterion met
 Total energy in the final basis set = -1510.27493372
   14   -1510.2808960853      4.00E-09 Convergence criterion met
 Total energy in the final basis set = -1510.28089609
   13   -1510.2833879933      3.54E-09 Convergence criterion met
 Total energy in the final basis set = -1510.28338799
   12   -1510.2845916982      8.18E-09 Convergence criterion met
 Total energy in the final basis set = -1510.28459170
   12   -1510.2850220012      5.44E-09 Convergence criterion met
   11   -1510.2855330061      9.92E-09 Convergence criterion met
 Total energy in the final basis set = -1510.28553301
   11   -1510.2855591769      2.43E-09 Convergence criterion met
 Total energy in the final basis set = -1510.28555918
   10   -1510.2855834564      9.76E-09 Convergence criterion met
 Total energy in the final basis set = -1510.28558346
   11   -1510.2855953535      2.72E-09 Convergence criterion met
 Total energy in the final basis set = -1510.28559535
   11   -1510.2856012442      2.31E-09 Convergence criterion met
 Total energy in the final basis set = -1510.28560124
    9   -1510.2856031338      7.60E-09 Convergence criterion met
 Total energy in the final basis set = -1510.28560313

             Standard Nuclear Orientation (Angstroms)
    I     Atom           X                Y                Z
 ----------------------------------------------------------------
    1      O      -5.1013044802     1.6460434974     0.9412935374
    2      C      -5.1986108573     0.7620919882     0.0638805071
    3      C      -4.6950296048    -0.7253174125     0.1343325401
    4      C      -3.3258176278    -0.9875193787    -0.6153394515
    5      C      -2.6311206294     0.3375420972    -1.0937073984
    6      O      -1.2421801713     0.0635586886    -1.2314823542
    7      C      -0.4862384688     1.2427792574    -1.7096699215
    8      C       0.9547452262     0.7199621243    -2.0660877476
    9      O       1.9254562678     1.0030155142    -0.9868786558
   10      C       1.8261639311     0.0020583237     0.0414858439
   11      C       2.9097636833     0.2962813083     1.1443349050
   12      C       4.3345471755    -0.3286593177     0.8449541436
   13      C       4.3971410693    -1.0972966033    -0.5169575908
   14      O       3.4680627544    -1.2685826476    -1.3381100377
   15      O      -5.9331995538     0.9106410574    -1.1609445619
   16      O       5.7228328289    -1.5986661671    -0.6962208315
   17      O       0.9503080756    -0.8890744101     0.0832617222
   18      C       5.8180578014    -2.3345223182    -1.9791098034
   19      C       3.2788791045     1.8376242486     1.2441636921
   20      C       4.0142830973     2.0871123425     2.6193615409
   21      C       5.4288116153     1.4632324650     2.3247734585
   22      C       5.2427663583     0.9777209380     0.8334377741
   23      O       4.3562011198     2.0019228189     0.2396235731
   24      H       2.5118921037    -0.0899669820     2.0994478598
   25      H       4.6507034339    -1.0227791054     1.6449697454
   26      H       2.4389313400     2.5239658598     1.0244280421
   27      H       4.0844855913     3.1664374496     2.8278680666
   28      H       3.4986745250     1.5968426853     3.4607001120
   29      H       6.2259707357     2.2214414031     2.3841999071
   30      H       5.6800143218     0.6331394042     3.0043080284
   31      H       6.1765370836     0.8752141879     0.2469281895
   32      O      -3.1600795626     1.4528038110    -1.3007579101
   33      C      -6.3653317154     2.3162870146    -1.3175685747
   34      C      -4.3213143221    -1.1792636945     1.6085177171
   35      C      -4.3464936406    -2.7573107913     1.6506287850
   36      C      -3.0395087800    -3.0986520137     0.8417547480
   37      C      -2.4700393761    -1.6545870368     0.5469637041
   38      O      -2.8798209139    -0.8622599850     1.7301997445
   39      H      -5.4881541867    -1.3653863528    -0.2912914650
   40      H      -3.4512006211    -1.6598407725    -1.4839485425
   41      H      -5.4923360310     2.9907829270    -1.4346035713
   42      H      -4.8974607709    -0.6665154770     2.4029428111
   43      H      -4.2815337176    -3.1140869416     2.6910002588
   44      H      -5.2558001728    -3.1744809861     1.1889118419
   45      H      -2.3259559023    -3.6781955909     1.4485594883
   46      H      -3.2486936989    -3.6561088637    -0.0853034514
   47      H      -1.3739111109    -1.5845360344     0.3880255034
   48      H      -6.9652792941     2.6608439688    -0.4505015951
   49      H      -6.9833687428     2.3490428567    -2.2337404524
   50      H       6.8619293333    -2.6918102653    -2.0482592486
   51      H       5.5912524842    -1.6777786390    -2.8436232538
   52      H       5.1257165948    -3.2007042081    -2.0033316888
   53      H       0.8995082469    -0.3680822083    -2.2839873006
   54      H       1.3405457926     1.2597795732    -2.9541872720
   55      H      -0.4287883955     2.0272787727    -0.9227044874
   56      H      -0.9797391042     1.6860428321    -2.6022749496
 ----------------------------------------------------------------

    9   -1510.2856038173      5.16E-09 Convergence criterion met
 Total energy in the final basis set = -1510.28560382
 Final energy is   -1510.28560381727
 **  OPTIMIZATION CONVERGED  **

                    Orbital Energies (a.u.)
 --------------------------------------------------------------

 Alpha MOs
 -- Occupied --
-18.944 -18.934 -18.922 -18.914 -18.888 -18.887 -18.875 -18.875
-18.863 -18.855 -10.107 -10.097 -10.092 -10.083 -10.071 -10.071
-10.068 -10.062 -10.058 -10.048 -10.048 -10.045 -10.041 -10.034
-10.030 -10.024 -10.021 -10.019 -10.011 -10.010  -1.020  -1.013
 -0.999  -0.991  -0.970  -0.959  -0.944  -0.936  -0.927  -0.918
 -0.763  -0.753  -0.725  -0.719  -0.711  -0.701  -0.687  -0.668
 -0.648  -0.611  -0.593  -0.575  -0.546  -0.537  -0.535  -0.528
 -0.513  -0.506  -0.485  -0.474  -0.462  -0.449  -0.445  -0.443
 -0.434  -0.422  -0.419  -0.417  -0.411  -0.405  -0.398  -0.395
 -0.392  -0.379  -0.375  -0.363  -0.358  -0.355  -0.348  -0.340
 -0.338  -0.334  -0.331  -0.326  -0.325  -0.323  -0.314  -0.313
 -0.306  -0.304  -0.300  -0.297  -0.291  -0.281  -0.276  -0.268
 -0.264  -0.261  -0.248  -0.243  -0.238  -0.234  -0.223  -0.186
 -0.176  -0.166  -0.161  -0.159  -0.152  -0.145  -0.140  -0.135
 -0.134

          Ground-State Mulliken Net Atomic Charges

     Atom                 Charge (a.u.)
  ----------------------------------------
      1 O                    -0.218331
      2 C                     0.213708
      3 C                    -0.082372
      4 C                    -0.077218
      5 C                     0.214162
      6 O                    -0.166777
      7 C                    -0.047908
      8 C                    -0.046898
      9 O                    -0.171549
     10 C                     0.215417
     11 C                    -0.081652
     12 C                    -0.078410
     13 C                     0.214283
     14 O                    -0.207823
     15 O                    -0.174262
     16 O                    -0.169080
     17 O                    -0.216330
     18 C                    -0.128122
     19 C                     0.026732
     20 C                    -0.144315
     21 C                    -0.143614
     22 C                     0.025221
     23 O                    -0.187706
     24 H                     0.084631
     25 H                     0.087027
     26 H                     0.086789
     27 H                     0.078226
     28 H                     0.074532
     29 H                     0.078097
     30 H                     0.073726
     31 H                     0.085938
     32 O                    -0.212562
     33 C                    -0.128224
     34 C                     0.024179
     35 C                    -0.143660
     36 C                    -0.144787
     37 C                     0.019644
     38 O                    -0.192318
     39 H                     0.082358
     40 H                     0.084521
     41 H                     0.091667
     42 H                     0.085541
     43 H                     0.075912
     44 H                     0.071300
     45 H                     0.077238
     46 H                     0.071424
     47 H                     0.104675
     48 H                     0.085988
     49 H                     0.084963
     50 H                     0.092255
     51 H                     0.091141
     52 H                     0.090814
     53 H                     0.103207
     54 H                     0.089087
     55 H                     0.090922
     56 H                     0.088593
  ----------------------------------------
  Sum of atomic charges =    -0.000000

                    Cartesian Multipole Moments
 -----------------------------------------------------------------
    Charge (ESU x 10^10)
                 0.0000
    Dipole Moment (Debye)
         X       2.4885      Y      -1.8249      Z      -0.9199
       Tot       3.2201
    Quadrupole Moments (Debye-Ang)
        XX    -145.0074     XY       0.6505     YY    -156.4875
        XZ       5.8789     YZ       0.2045     ZZ    -153.1834

 Total job time:  48.94s(wall), 2327.83s(cpu)
        *  Thank you very much for using Q-Chem.  Have a nice day.  *
