 Q-Chem 5.0, Q-Chem, Inc., Pleasanton, CA (2017)
 Q-Chem 5.0.1 for Intel X86 EM64T Linux

User input:
--------------------------------------------------------------
$molecule
0  1
O -5.1013044802 1.6460434974 0.9412935374
C -5.1986108573 0.7620919882 0.0638805071
C -4.6950296048 -0.7253174125 0.1343325401
C -3.3258176278 -0.9875193787 -0.6153394515
C -2.6311206294 0.3375420972 -1.0937073984
O -1.2421801713 0.0635586886 -1.2314823542
C -0.4862384688 1.2427792574 -1.7096699215
C 0.9547452262 0.7199621243 -2.0660877476
O 1.9254562678 1.0030155142 -0.9868786558
C 1.8261639311 0.0020583237 0.0414858439
C 2.9097636833 0.2962813083 1.144334905
C 4.3345471755 -0.3286593177 0.8449541436
C 4.3971410693 -1.0972966033 -0.5169575908
O 3.4680627544 -1.2685826476 -1.3381100377
O -5.9331995538 0.9106410574 -1.1609445619
O 5.7228328289 -1.5986661671 -0.6962208315
O 0.9503080756 -0.8890744101 0.0832617222
C 5.8180578014 -2.3345223182 -1.9791098034
C 3.2788791045 1.8376242486 1.2441636921
C 4.0142830973 2.0871123425 2.6193615409
C 5.4288116153 1.463232465 2.3247734585
C 5.2427663583 0.977720938 0.8334377741
O 4.3562011198 2.0019228189 0.2396235731
H 2.5118921037 -0.089966982 2.0994478598
H 4.6507034339 -1.0227791054 1.6449697454
H 2.43893134 2.5239658598 1.0244280421
H 4.0844855913 3.1664374496 2.8278680666
H 3.498674525 1.5968426853 3.460700112
H 6.2259707357 2.2214414031 2.3841999071
H 5.6800143218 0.6331394042 3.0043080284
H 6.1765370836 0.8752141879 0.2469281895
O -3.1600795626 1.452803811 -1.3007579101
C -6.3653317154 2.3162870146 -1.3175685747
C -4.3213143221 -1.1792636945 1.6085177171
C -4.3464936406 -2.7573107913 1.650628785
C -3.03950878 -3.0986520137 0.841754748
C -2.4700393761 -1.6545870368 0.5469637041
O -2.8798209139 -0.862259985 1.7301997445
H -5.4881541867 -1.3653863528 -0.291291465
H -3.4512006211 -1.6598407725 -1.4839485425
H -5.492336031 2.990782927 -1.4346035713
H -4.8974607709 -0.666515477 2.4029428111
H -4.2815337176 -3.1140869416 2.6910002588
H -5.2558001728 -3.1744809861 1.1889118419
H -2.3259559023 -3.6781955909 1.4485594883
H -3.2486936989 -3.6561088637 -0.0853034514
H -1.3739111109 -1.5845360344 0.3880255034
H -6.9652792941 2.6608439688 -0.4505015951
H -6.9833687428 2.3490428567 -2.2337404524
H 6.8619293333 -2.6918102653 -2.0482592486
H 5.5912524842 -1.677778639 -2.8436232538
H 5.1257165948 -3.2007042081 -2.0033316888
H 0.8995082469 -0.3680822083 -2.2839873006
H 1.3405457926 1.2597795732 -2.954187272
H -0.4287883955 2.0272787727 -0.9227044874
H -0.9797391042 1.6860428321 -2.6022749496
$end

$rem
JOBTYPE                   OPT
METHOD                    B3LYP
DFT_D                     d3_op
BASIS                     STO-3G
GEOM_OPT_MAX_CYCLES       100
GEOM_OPT_TOL_GRADIENT     300
GEOM_OPT_TOL_DISPLACEMENT 1200
GEOM_OPT_TOL_ENERGY       100
SYMMETRY                  False
THRESH                    12
SCF_CONVERGENCE           8
MAX_SUB_FILE_NUM          128
MEM_STATIC                400
MEM_TOTAL                 4000
$end
--------------------------------------------------------------

   16   -1510.2855277088      5.19E-09 Convergence criterion met
 Total energy in the final basis set = -1510.28552771
   13   -1510.2867869062      9.00E-09 Convergence criterion met
 Total energy in the final basis set = -1510.28678691
   14   -1510.2877482361      4.09E-09 Convergence criterion met
 Total energy in the final basis set = -1510.28774824
   13   -1510.2887059842      9.61E-09 Convergence criterion met
 Total energy in the final basis set = -1510.28870598
   14   -1510.2894136246      3.95E-09 Convergence criterion met
 Total energy in the final basis set = -1510.28941362
   14   -1510.2908934909      4.78E-09 Convergence criterion met
 Total energy in the final basis set = -1510.29089349
   13   -1510.2921961111      6.49E-09 Convergence criterion met
 Total energy in the final basis set = -1510.29219611
   14   -1510.2936372733      3.08E-09 Convergence criterion met
   13   -1510.3062303612      2.72E-09 Convergence criterion met
 Total energy in the final basis set = -1510.30623036
   12   -1510.3063709149      7.82E-09 Convergence criterion met
 Total energy in the final basis set = -1510.30637091
   12   -1510.3063688321      3.62E-09 Convergence criterion met
 Total energy in the final basis set = -1510.30636883
   11   -1510.3063862115      9.01E-09 Convergence criterion met
 Total energy in the final basis set = -1510.30638621
   11   -1510.3063865720      2.97E-09 Convergence criterion met
 Total energy in the final basis set = -1510.30638657
    9   -1510.3063893308      6.26E-09 Convergence criterion met
 Total energy in the final basis set = -1510.30638933

             Standard Nuclear Orientation (Angstroms)
    I     Atom           X                Y                Z
 ----------------------------------------------------------------
    1      O       1.9169386990    -1.6106610315     1.9827461203
    2      C       2.7665369075    -1.0545872361     1.2518514500
    3      C       2.9835938536     0.4913413697     1.0653579137
    4      C       2.4719099050     1.0627762341    -0.3201185813
    5      C       1.8816606642    -0.0382426559    -1.2634471563
    6      O       1.7486906663     0.5179570323    -2.5739838981
    7      C       1.0837168925    -0.4326266824    -3.5013548469
    8      C      -0.4680749824    -0.1629042339    -3.5785590841
    9      O      -1.1171415609    -0.6079847189    -2.3271303117
   10      C      -1.1191946874     0.4596815862    -1.3659774474
   11      C      -1.3284868235    -0.1135713292     0.0821629071
   12      C      -2.7100734922     0.2758685095     0.7384356445
   13      C      -3.6906498078     0.8748416465    -0.3200031284
   14      O      -3.5137125822     0.9044125686    -1.5606548123
   15      O       3.8090792609    -1.7468675827     0.5558164823
   16      O      -4.8615626510     1.3642979258     0.3335303590
   17      O      -0.7992313199     1.6399366417    -1.6604178909
   18      C      -5.8160317683     1.8983619767    -0.6665502341
   19      C      -1.3907168378    -1.6979733890     0.1477592089
   20      C      -1.0277326184    -2.1390078644     1.6134973105
   21      C      -2.3071562627    -1.6555339349     2.3914401298
   22      C      -3.2229496971    -1.1560078574     1.2003924373
   23      O      -2.8396399544    -2.0097770506     0.0545449240
   24      H      -0.4855997646     0.2923739685     0.6941075391
   25      H      -2.6031177412     0.9764994661     1.5855680935
   26      H      -0.8259321733    -2.2014144559    -0.6589357226
   27      H      -0.9332944485    -3.2358216058     1.6588342992
   28      H      -0.0770670438    -1.6932260870     1.9602092084
   29      H      -2.7930938712    -2.4819930970     2.9341495069
   30      H      -2.0924682979    -0.8443216215     3.1057350574
   31      H      -4.3139419521    -1.2095161091     1.3845309812
   32      O       1.5623580628    -1.2084244081    -0.9493878208
   33      C       3.5903290076    -3.2075516511     0.6565995760
   34      C       2.0753762338     1.2964033156     2.0816203559
   35      C       2.5772333393     2.7898753093     2.1442338193
   36      C       2.0539671813     3.3498377788     0.7665141654
   37      C       1.3425620309     2.0802622411     0.1647895690
   38      O       0.7839835799     1.4077862873     1.3624685286
   39      H       4.0579304219     0.7088723538     1.2029601107
   40      H       3.2709192173     1.5953538474    -0.8657780972
   41      H       2.6350510484    -3.5009426684     0.1751206116
   42      H       1.9310337995     0.7910238219     3.0561467410
   43      H       2.1160789895     3.3157926848     2.9953913333
   44      H       3.6729042457     2.8536517816     2.2410820875
   45      H       1.3274856963     4.1648491382     0.9126736124
   46      H       2.8675602574     3.7132949234     0.1192563964
   47      H       0.5238382564     2.2367247721    -0.5811968069
   48      H       3.5742754919    -3.5477772199     1.7122170433
   49      H       4.4358041626    -3.6823980087     0.1256435611
   50      H      -6.6806632727     2.2766992374    -0.0908177227
   51      H      -6.1541626860     1.1093954125    -1.3691937515
   52      H      -5.3689322793     2.7258337118    -1.2542675391
   53      H      -0.6533955981     0.9193211161    -3.7477410524
   54      H      -0.9057869986    -0.7629370467    -4.4019552967
   55      H       1.2616263442    -1.4759454910    -3.1634562254
   56      H       1.5423937603    -0.2700928040    -4.4982786153
 ----------------------------------------------------------------

    9   -1510.3063896558      7.29E-09 Convergence criterion met
 Total energy in the final basis set = -1510.30638966
 Final energy is   -1510.30638965583
 **  OPTIMIZATION CONVERGED  **

                    Orbital Energies (a.u.)
 --------------------------------------------------------------

 Alpha MOs
 -- Occupied --
-18.940 -18.936 -18.927 -18.922 -18.896 -18.885 -18.877 -18.868
-18.867 -18.857 -10.107 -10.097 -10.096 -10.090 -10.073 -10.066
-10.063 -10.062 -10.058 -10.047 -10.045 -10.039 -10.037 -10.033
-10.025 -10.021 -10.018 -10.005 -10.001  -9.988  -1.021  -1.011
 -1.005  -0.997  -0.975  -0.951  -0.944  -0.935  -0.930  -0.924
 -0.764  -0.745  -0.725  -0.714  -0.703  -0.700  -0.684  -0.658
 -0.658  -0.614  -0.590  -0.572  -0.545  -0.538  -0.529  -0.517
 -0.511  -0.500  -0.484  -0.470  -0.462  -0.454  -0.449  -0.438
 -0.430  -0.426  -0.417  -0.414  -0.408  -0.406  -0.401  -0.395
 -0.391  -0.378  -0.368  -0.366  -0.358  -0.355  -0.351  -0.345
 -0.343  -0.340  -0.332  -0.328  -0.324  -0.316  -0.313  -0.306
 -0.305  -0.302  -0.293  -0.287  -0.283  -0.277  -0.273  -0.271
 -0.260  -0.254  -0.250  -0.247  -0.234  -0.233  -0.213  -0.191
 -0.177  -0.170  -0.164  -0.154  -0.152  -0.150  -0.148  -0.141
 -0.126

          Ground-State Mulliken Net Atomic Charges

     Atom                 Charge (a.u.)
  ----------------------------------------
      1 O                    -0.219188
      2 C                     0.219164
      3 C                    -0.082256
      4 C                    -0.080171
      5 C                     0.211492
      6 O                    -0.168838
      7 C                    -0.053851
      8 C                    -0.051949
      9 O                    -0.169105
     10 C                     0.217177
     11 C                    -0.099185
     12 C                    -0.078358
     13 C                     0.214540
     14 O                    -0.207170
     15 O                    -0.172974
     16 O                    -0.167966
     17 O                    -0.234232
     18 C                    -0.128096
     19 C                     0.022133
     20 C                    -0.152143
     21 C                    -0.144698
     22 C                     0.024180
     23 O                    -0.196230
     24 H                     0.112789
     25 H                     0.086796
     26 H                     0.090997
     27 H                     0.069906
     28 H                     0.095884
     29 H                     0.072618
     30 H                     0.071396
     31 H                     0.079164
     32 O                    -0.211543
     33 C                    -0.128175
     34 C                     0.026133
     35 C                    -0.143834
     36 C                    -0.144006
     37 C                     0.009609
     38 O                    -0.192867
     39 H                     0.085449
     40 H                     0.088022
     41 H                     0.093867
     42 H                     0.088387
     43 H                     0.078194
     44 H                     0.073698
     45 H                     0.079420
     46 H                     0.074272
     47 H                     0.114972
     48 H                     0.087844
     49 H                     0.087637
     50 H                     0.090848
     51 H                     0.090409
     52 H                     0.090567
     53 H                     0.102018
     54 H                     0.089937
     55 H                     0.098161
     56 H                     0.089149
  ----------------------------------------
  Sum of atomic charges =    -0.000000

                    Cartesian Multipole Moments
 -----------------------------------------------------------------
    Charge (ESU x 10^10)
                -0.0000
    Dipole Moment (Debye)
         X       1.8888      Y       1.2481      Z      -0.1422
       Tot       2.2684
    Quadrupole Moments (Debye-Ang)
        XX    -146.5425     XY      -4.8780     YY    -157.7157
        XZ      -0.6585     YZ       3.6830     ZZ    -152.7190

 Total job time:  150.57s(wall), 7175.12s(cpu)
        *  Thank you very much for using Q-Chem.  Have a nice day.  *
