 Q-Chem 5.0, Q-Chem, Inc., Pleasanton, CA (2017)
 Q-Chem 5.0.1 for Intel X86 EM64T Linux

User input:
--------------------------------------------------------------
$molecule
0  1
O -5.4280127637 0.0827524489 1.6882686462
C -5.309121857 0.3775350781 0.4800736965
C -4.6600468045 -0.4904453839 -0.6594573093
C -3.2060284209 -0.036356842 -1.0845193497
C -2.6053770552 1.0406850218 -0.1120889687
O -1.1935581245 1.0258870484 -0.2811196903
C -0.5187719759 2.0177594831 0.5854743122
C 0.9311963861 2.2118792244 0.0097430815
O 1.9113915494 1.2931153601 0.6301422547
C 1.8367967384 -0.0128523011 0.0342951515
C 2.9554971897 -0.9236991522 0.6652086133
C 4.344703897 -0.8722994527 -0.0946742639
C 4.3771560045 0.202285294 -1.2342100123
O 3.4131441621 0.8619384318 -1.6841548997
O -5.8955613259 1.5347544974 -0.1354883344
O 5.7150853556 0.3136880301 -1.7213412665
O 0.9592000646 -0.3838323541 -0.7745967257
C 5.7783027642 1.3210166575 -2.8062167097
C 3.3966323896 -0.4820965645 2.1249244317
C 4.1170610207 -1.7081282497 2.8126421074
C 5.4926409798 -1.717989773 2.0489541487
C 5.3216276263 -0.4720729614 1.0945531916
O 4.5035691923 0.4740287497 1.8864620795
H 2.5607800256 -1.9555239949 0.6625399139
H 4.6149245328 -1.8521906077 -0.5291416487
H 2.5952973123 -0.0065302732 2.7217972959
H 4.2555124485 -1.5164467115 3.8886596168
H 3.5522958569 -2.6463040527 2.6905057908
H 6.3391123727 -1.5614571251 2.7362117299
H 5.6623124226 -2.6500790177 1.4865054971
H 6.2628963628 0.0050642952 0.7591365102
O -3.2197161269 1.7758396362 0.6936304671
C -6.471816969 2.4136036963 0.9049706211
C -4.3830329371 -1.9867716791 -0.2060832285
C -4.2702688848 -2.8715144354 -1.5075280299
C -2.8731073116 -2.4035544709 -2.063588008
C -2.4070045349 -1.400532491 -0.9350655235
O -2.9921052178 -1.9631852448 0.3051508534
H -5.3378844661 -0.4559917814 -1.5308241295
H -3.1778667857 0.3565331403 -2.117514379
H -5.6878532289 2.7820503831 1.5979941921
H -5.0732679135 -2.3603877874 0.5750383467
H -4.2606037412 -3.9415664255 -1.2453660289
H -5.0959229715 -2.6874983165 -2.2132073814
H -2.1658836013 -3.2439419532 -2.1457767158
H -2.9504363384 -1.9114464756 -3.0464413794
H -1.3105264743 -1.2603537588 -0.8362415814
H -7.2510106042 1.8920359886 1.4981901596
H -6.9249384318 3.2687479717 0.3703213505
H 6.8342216648 1.35133277 -3.1322199535
H 5.4701054197 2.3245357859 -2.4481346455
H 5.1322911135 1.038419375 -3.6624308353
H 0.9051172725 2.0858890167 -1.0940196559
H 1.2923296656 3.2301737151 0.2594038974
H -0.4696819337 1.6552521844 1.6363261687
H -1.0748589826 2.9807143366 0.5783959833
$end

$rem
JOBTYPE                   OPT
METHOD                    B3LYP
DFT_D                     d3_op
BASIS                     STO-3G
GEOM_OPT_MAX_CYCLES       100
GEOM_OPT_TOL_GRADIENT     300
GEOM_OPT_TOL_DISPLACEMENT 1200
GEOM_OPT_TOL_ENERGY       100
SYMMETRY                  False
THRESH                    12
SCF_CONVERGENCE           8
MAX_SUB_FILE_NUM          128
MEM_STATIC                400
MEM_TOTAL                 4000
$end
--------------------------------------------------------------

   16   -1510.2857933956      5.05E-09 Convergence criterion met
 Total energy in the final basis set = -1510.28579340
   14   -1510.2868209170      2.41E-09 Convergence criterion met
 Total energy in the final basis set = -1510.28682092
   14   -1510.2880389624      5.36E-09 Convergence criterion met
 Total energy in the final basis set = -1510.28803896
   14   -1510.2887682818      2.47E-09 Convergence criterion met
 Total energy in the final basis set = -1510.28876828
   14   -1510.2896423212      2.13E-09 Convergence criterion met
 Total energy in the final basis set = -1510.28964232
   14   -1510.2909387192      2.67E-09 Convergence criterion met
 Total energy in the final basis set = -1510.29093872
   15   -1510.2098845924      6.13E-09 Convergence criterion met
 Total energy in the final basis set = -1510.20988459
   15   -1510.2889564039      6.43E-09 Convergence criterion met
   12   -1510.3053023371      4.20E-09 Convergence criterion met
 Total energy in the final basis set = -1510.30530234
   11   -1510.3053329667      9.95E-09 Convergence criterion met
 Total energy in the final basis set = -1510.30533297
    9   -1510.3053330216      5.49E-09 Convergence criterion met
 Total energy in the final basis set = -1510.30533302
    9   -1510.3053335313      4.56E-09 Convergence criterion met
 Total energy in the final basis set = -1510.30533353
    9   -1510.3053330447      7.73E-09 Convergence criterion met
 Total energy in the final basis set = -1510.30533304
   10   -1510.3053354422      6.53E-09 Convergence criterion met
 Total energy in the final basis set = -1510.30533544

             Standard Nuclear Orientation (Angstroms)
    I     Atom           X                Y                Z
 ----------------------------------------------------------------
    1      O      -2.0375032855    -0.7026041755     2.4890213300
    2      C      -2.8581089438    -0.3140864395     1.6308036366
    3      C      -3.1763097825    -0.9864843099     0.2422643615
    4      C      -2.6229999697    -0.1968635241    -1.0141705496
    5      C      -1.8408415706     1.1004573522    -0.6242739939
    6      O      -1.6456853841     1.8909593969    -1.7945948886
    7      C      -0.8007851467     3.0763074371    -1.4988645045
    8      C       0.7161369627     2.7754484600    -1.7932808871
    9      O       1.2525056234     1.8118794298    -0.8084538843
   10      C       1.1892698730     0.4784374297    -1.3386747686
   11      C       1.5397064136    -0.5580551435    -0.2131660434
   12      C       3.0837983918    -0.7720943035     0.0422558071
   13      C       3.9669592062     0.1210247122    -0.8887571058
   14      O       3.5726414724     0.8066807694    -1.8606473411
   15      O      -3.7814144017     0.7683458142     1.8203871450
   16      O       5.3295391594     0.0408235769    -0.4707452955
   17      O       0.7469830903     0.2069817552    -2.4819293284
   18      C       6.1768198013     0.8901986026    -1.3405765889
   19      C       1.0624400728    -0.0672260644     1.2201211778
   20      C       1.0425291183    -1.3230680064     2.1738249692
   21      C       2.5797437559    -1.5300604275     2.4419003185
   22      C       3.1973927893    -0.3611207140     1.5762595558
   23      O       2.2110777272     0.7317246999     1.7099372364
   24      H       1.0317520265    -1.5005374636    -0.4843940541
   25      H       3.3812574078    -1.8264110412    -0.1073623575
   26      H       0.1280167872     0.5340209060     1.2002457567
   27      H       0.4882814531    -1.0941312972     3.0974423982
   28      H       0.5677256157    -2.1893218748     1.6869263265
   29      H       2.8293550459    -1.3892338003     3.5057860949
   30      H       2.9426558294    -2.5203859975     2.1229193815
   31      H       4.2082536159    -0.0234883031     1.8776418353
   32      O      -1.4343306474     1.4198143229     0.5196677426
   33      C      -3.4710127433     1.4689690979     3.0858032062
   34      C      -2.4135564592    -2.3671594041     0.0921075868
   35      C      -3.0768533916    -3.1833328183    -1.0851791177
   36      C      -2.5384153629    -2.3974986962    -2.3400321168
   37      C      -1.6506368483    -1.2874568432    -1.6541868186
   38      O      -1.0988566155    -1.9748876927    -0.4647533472
   39      H      -4.2713860049    -1.1112690824     0.1667340418
   40      H      -3.4280939700     0.0804574447    -1.7175803337
   41      H      -2.4607040846     1.9260472230     3.0521555624
   42      H      -2.2806894889    -2.9140101602     1.0457131717
   43      H      -2.7216416644    -4.2262130331    -1.0791897670
   44      H      -4.1767495746    -3.1840757977    -1.0227271170
   45      H      -1.9171329309    -3.0410312015    -2.9833266130
   46      H      -3.3469002048    -1.9651392736    -2.9506826840
   47      H      -0.8201798880    -0.8583338346    -2.2623990249
   48      H      -3.5196811562     0.7841174675     3.9569880131
   49      H      -4.2335411899     2.2620826340     3.1940186884
   50      H       7.1986557956     0.8303960865    -0.9229724651
   51      H       5.8331678612     1.9445953824    -1.3385354885
   52      H       6.1815106355     0.5228211194    -2.3873472680
   53      H       0.8230038581     2.3673010438    -2.8210851241
   54      H       1.3005002661     3.7122677019    -1.6866615522
   55      H      -0.9246273939     3.3696771750    -0.4346991583
   56      H      -1.1569943074     3.8882789518    -2.1653112413
 ----------------------------------------------------------------

    9   -1510.3053356909      7.42E-09 Convergence criterion met
 Total energy in the final basis set = -1510.30533569
 Final energy is   -1510.30533569086
 **  OPTIMIZATION CONVERGED  **

                    Orbital Energies (a.u.)
 --------------------------------------------------------------

 Alpha MOs
 -- Occupied --
-18.944 -18.939 -18.922 -18.919 -18.887 -18.883 -18.880 -18.869
-18.860 -18.859 -10.108 -10.101 -10.090 -10.090 -10.073 -10.066
-10.065 -10.055 -10.054 -10.047 -10.047 -10.037 -10.031 -10.031
-10.030 -10.017 -10.017 -10.015 -10.005  -9.996  -1.022  -1.015
 -0.999  -0.997  -0.967  -0.953  -0.945  -0.939  -0.925  -0.924
 -0.760  -0.750  -0.723  -0.712  -0.705  -0.698  -0.687  -0.660
 -0.653  -0.613  -0.590  -0.573  -0.541  -0.535  -0.531  -0.518
 -0.507  -0.504  -0.485  -0.471  -0.457  -0.455  -0.448  -0.435
 -0.429  -0.424  -0.417  -0.414  -0.410  -0.403  -0.402  -0.397
 -0.392  -0.379  -0.370  -0.364  -0.359  -0.353  -0.349  -0.343
 -0.340  -0.337  -0.331  -0.327  -0.322  -0.319  -0.316  -0.304
 -0.299  -0.298  -0.298  -0.289  -0.280  -0.278  -0.275  -0.268
 -0.262  -0.255  -0.252  -0.243  -0.235  -0.230  -0.217  -0.190
 -0.181  -0.165  -0.164  -0.156  -0.153  -0.143  -0.142  -0.141
 -0.127

          Ground-State Mulliken Net Atomic Charges

     Atom                 Charge (a.u.)
  ----------------------------------------
      1 O                    -0.218500
      2 C                     0.214722
      3 C                    -0.081768
      4 C                    -0.079175
      5 C                     0.217220
      6 O                    -0.166163
      7 C                    -0.053137
      8 C                    -0.052015
      9 O                    -0.167933
     10 C                     0.217394
     11 C                    -0.086683
     12 C                    -0.079191
     13 C                     0.214741
     14 O                    -0.208879
     15 O                    -0.176345
     16 O                    -0.167815
     17 O                    -0.229518
     18 C                    -0.127812
     19 C                     0.018790
     20 C                    -0.143825
     21 C                    -0.144667
     22 C                     0.024692
     23 O                    -0.192558
     24 H                     0.098433
     25 H                     0.085553
     26 H                     0.101829
     27 H                     0.083247
     28 H                     0.077869
     29 H                     0.074506
     30 H                     0.069672
     31 H                     0.082747
     32 O                    -0.211750
     33 C                    -0.128735
     34 C                     0.024883
     35 C                    -0.144359
     36 C                    -0.144116
     37 C                     0.012383
     38 O                    -0.197765
     39 H                     0.083679
     40 H                     0.087770
     41 H                     0.092357
     42 H                     0.086552
     43 H                     0.076512
     44 H                     0.072446
     45 H                     0.078102
     46 H                     0.073152
     47 H                     0.106468
     48 H                     0.086594
     49 H                     0.086127
     50 H                     0.091690
     51 H                     0.091910
     52 H                     0.089299
     53 H                     0.102392
     54 H                     0.089060
     55 H                     0.100211
     56 H                     0.089711
  ----------------------------------------
  Sum of atomic charges =    -0.000000

                    Cartesian Multipole Moments
 -----------------------------------------------------------------
    Charge (ESU x 10^10)
                 0.0000
    Dipole Moment (Debye)
         X      -0.4817      Y       0.1413      Z      -0.9423
       Tot       1.0677
    Quadrupole Moments (Debye-Ang)
        XX    -141.2621     XY       1.0557     YY    -149.3472
        XZ      -1.9206     YZ      -1.8726     ZZ    -163.2537

 Total job time:  121.68s(wall), 5801.08s(cpu)
        *  Thank you very much for using Q-Chem.  Have a nice day.  *
