 Q-Chem 5.0, Q-Chem, Inc., Pleasanton, CA (2017)
 Q-Chem 5.0.1 for Intel X86 EM64T Linux

User input:
--------------------------------------------------------------
$molecule
0  1
O -3.94934 -3.66094 2.70899
C -3.26408 -4.56952 2.26188
C -3.36658 -6.02376 2.66595
C -2.28993 -6.56531 3.62063
C -1.33401 -5.54912 4.20514
O -0.75142 -6.05477 5.33223
C 0.17827 -5.1513 5.9394
C 1.07941 -5.90131 6.91488
O 0.50367 -5.87716 8.23049
C -0.47993 -6.78382 8.45328
C -0.98655 -6.7647 9.87583
C -0.23892 -7.69543 10.84178
C 1.09499 -8.22235 10.35216
O 1.53097 -8.10189 9.21639
O -2.29468 -4.27468 1.35518
O 1.81982 -8.93762 11.25305
O -0.76593 -7.68557 7.67473
C 3.04572 -9.51018 10.98592
C -0.79713 -5.41238 10.60605
C -1.80113 -5.29836 11.75224
C -1.23878 -6.31733 12.72039
C 0.05005 -6.70751 11.98789
O 0.42107 -5.54225 11.29421
H -2.08229 -6.95527 9.82533
H -0.84602 -8.57212 11.15678
H -0.89075 -4.53092 9.93437
H -1.6732 -4.28291 12.19185
H -2.86788 -5.44344 11.477
H -1.01218 -5.80141 13.67981
H -1.88296 -7.20425 12.90524
H 0.79792 -7.09763 12.71276
O -1.17676 -4.39545 3.82518
C -2.04093 -3.00752 0.87326
C -4.64318 -6.28031 3.49706
C -5.03407 -7.75449 3.42009
C -3.95559 -8.37022 4.27842
C -3.21874 -7.10898 4.74135
O -4.22613 -6.1359 4.82774
H -3.45473 -6.60747 1.72235
H -1.67665 -7.38694 3.1897
H -1.75713 -2.33021 1.70697
H -5.50712 -5.65274 3.18524
H -6.01098 -7.86766 3.94293
H -5.11778 -8.16639 2.39139
H -4.44248 -8.87152 5.14484
H -3.27999 -9.08358 3.75879
H -2.69662 -7.3391 5.6935
H -2.93867 -2.60881 0.35422
H -1.20122 -3.05489 0.15003
H 3.41009 -10.03049 11.8953
H 3.78041 -8.72601 10.70354
H 2.95148 -10.25085 10.16319
H 1.41034 -6.90599 6.5684
H 2.00017 -5.28545 7.00904
H -0.30361 -4.25325 6.38628
H 0.87978 -4.81086 5.14019
$end

$opt
CONSTRAINT
tors           1           2           3           4    -102.960
tors           3           4           5           6    +159.791
tors           4           5           6           7    +179.532
tors           5           6           7           8    -163.223
tors           6           7           8           9     -91.387
tors           7           8           9          10     +80.424
tors           8           9          10          11    +176.553
tors           9          10          11          12     -89.396
tors          11          12          13          14      -9.456
ENDCONSTRAINT
$end

$rem
JOBTYPE                   OPT
METHOD                    B3LYP
DFT_D                     d3_op
BASIS                     STO-3G
GEOM_OPT_MAX_CYCLES       100
GEOM_OPT_TOL_GRADIENT     300
GEOM_OPT_TOL_DISPLACEMENT 1200
GEOM_OPT_TOL_ENERGY       100
SYMMETRY                  False
THRESH                    12
SCF_CONVERGENCE           8
MAX_SUB_FILE_NUM          128
MEM_STATIC                400
MEM_TOTAL                 4000
$end
--------------------------------------------------------------

   14   -1510.1528190373      9.72E-09 Convergence criterion met
 Total energy in the final basis set = -1510.15281904
   13   -1510.2222950228      6.49E-09 Convergence criterion met
 Total energy in the final basis set = -1510.22229502
   13   -1510.2595038101      6.59E-09 Convergence criterion met
 Total energy in the final basis set = -1510.25950381
   13   -1510.2759531682      9.05E-09 Convergence criterion met
 Total energy in the final basis set = -1510.27595317
   13   -1510.2818411513      8.80E-09 Convergence criterion met
 Total energy in the final basis set = -1510.28184115
   13   -1510.2841741840      3.19E-09 Convergence criterion met
 Total energy in the final basis set = -1510.28417418
   12   -1510.2851003193      7.39E-09 Convergence criterion met
 Total energy in the final basis set = -1510.28510032
   12   -1510.2853595266      4.47E-09 Convergence criterion met
   12   -1510.2855926048      2.24E-09 Convergence criterion met
 Total energy in the final basis set = -1510.28559260
   12   -1510.2856642792      3.13E-09 Convergence criterion met
 Total energy in the final basis set = -1510.28566428
   11   -1510.2856844114      5.14E-09 Convergence criterion met
 Total energy in the final basis set = -1510.28568441
   10   -1510.2857044833      6.13E-09 Convergence criterion met
 Total energy in the final basis set = -1510.28570448
   10   -1510.2857126793      7.42E-09 Convergence criterion met
 Total energy in the final basis set = -1510.28571268
    9   -1510.2857147939      8.74E-09 Convergence criterion met
 Total energy in the final basis set = -1510.28571479

             Standard Nuclear Orientation (Angstroms)
    I     Atom           X                Y                Z
 ----------------------------------------------------------------
    1      O      -5.4280127637     0.0827524489     1.6882686462
    2      C      -5.3091218570     0.3775350781     0.4800736965
    3      C      -4.6600468045    -0.4904453839    -0.6594573093
    4      C      -3.2060284209    -0.0363568420    -1.0845193497
    5      C      -2.6053770552     1.0406850218    -0.1120889687
    6      O      -1.1935581245     1.0258870484    -0.2811196903
    7      C      -0.5187719759     2.0177594831     0.5854743122
    8      C       0.9311963861     2.2118792244     0.0097430815
    9      O       1.9113915494     1.2931153601     0.6301422547
   10      C       1.8367967384    -0.0128523011     0.0342951515
   11      C       2.9554971897    -0.9236991522     0.6652086133
   12      C       4.3447038970    -0.8722994527    -0.0946742639
   13      C       4.3771560045     0.2022852940    -1.2342100123
   14      O       3.4131441621     0.8619384318    -1.6841548997
   15      O      -5.8955613259     1.5347544974    -0.1354883344
   16      O       5.7150853556     0.3136880301    -1.7213412665
   17      O       0.9592000646    -0.3838323541    -0.7745967257
   18      C       5.7783027642     1.3210166575    -2.8062167097
   19      C       3.3966323896    -0.4820965645     2.1249244317
   20      C       4.1170610207    -1.7081282497     2.8126421074
   21      C       5.4926409798    -1.7179897730     2.0489541487
   22      C       5.3216276263    -0.4720729614     1.0945531916
   23      O       4.5035691923     0.4740287497     1.8864620795
   24      H       2.5607800256    -1.9555239949     0.6625399139
   25      H       4.6149245328    -1.8521906077    -0.5291416487
   26      H       2.5952973123    -0.0065302732     2.7217972959
   27      H       4.2555124485    -1.5164467115     3.8886596168
   28      H       3.5522958569    -2.6463040527     2.6905057908
   29      H       6.3391123727    -1.5614571251     2.7362117299
   30      H       5.6623124226    -2.6500790177     1.4865054971
   31      H       6.2628963628     0.0050642952     0.7591365102
   32      O      -3.2197161269     1.7758396362     0.6936304671
   33      C      -6.4718169690     2.4136036963     0.9049706211
   34      C      -4.3830329371    -1.9867716791    -0.2060832285
   35      C      -4.2702688848    -2.8715144354    -1.5075280299
   36      C      -2.8731073116    -2.4035544709    -2.0635880080
   37      C      -2.4070045349    -1.4005324910    -0.9350655235
   38      O      -2.9921052178    -1.9631852448     0.3051508534
   39      H      -5.3378844661    -0.4559917814    -1.5308241295
   40      H      -3.1778667857     0.3565331403    -2.1175143790
   41      H      -5.6878532289     2.7820503831     1.5979941921
   42      H      -5.0732679135    -2.3603877874     0.5750383467
   43      H      -4.2606037412    -3.9415664255    -1.2453660289
   44      H      -5.0959229715    -2.6874983165    -2.2132073814
   45      H      -2.1658836013    -3.2439419532    -2.1457767158
   46      H      -2.9504363384    -1.9114464756    -3.0464413794
   47      H      -1.3105264743    -1.2603537588    -0.8362415814
   48      H      -7.2510106042     1.8920359886     1.4981901596
   49      H      -6.9249384318     3.2687479717     0.3703213505
   50      H       6.8342216648     1.3513327700    -3.1322199535
   51      H       5.4701054197     2.3245357859    -2.4481346455
   52      H       5.1322911135     1.0384193750    -3.6624308353
   53      H       0.9051172725     2.0858890167    -1.0940196559
   54      H       1.2923296656     3.2301737151     0.2594038974
   55      H      -0.4696819337     1.6552521844     1.6363261687
   56      H      -1.0748589826     2.9807143366     0.5783959833
 ----------------------------------------------------------------

    9   -1510.2857145389      5.28E-09 Convergence criterion met
 Total energy in the final basis set = -1510.28571454
 Final energy is   -1510.28571453894
 **  OPTIMIZATION CONVERGED  **

                    Orbital Energies (a.u.)
 --------------------------------------------------------------

 Alpha MOs
 -- Occupied --
-18.944 -18.934 -18.922 -18.913 -18.887 -18.887 -18.876 -18.875
-18.863 -18.854 -10.108 -10.098 -10.093 -10.083 -10.072 -10.071
-10.070 -10.061 -10.058 -10.048 -10.048 -10.046 -10.041 -10.033
-10.030 -10.024 -10.021 -10.019 -10.012 -10.010  -1.021  -1.013
 -0.999  -0.991  -0.970  -0.959  -0.945  -0.937  -0.927  -0.917
 -0.763  -0.754  -0.725  -0.719  -0.711  -0.701  -0.688  -0.668
 -0.648  -0.612  -0.594  -0.575  -0.545  -0.537  -0.535  -0.528
 -0.513  -0.506  -0.485  -0.475  -0.463  -0.449  -0.445  -0.445
 -0.434  -0.422  -0.417  -0.416  -0.412  -0.405  -0.397  -0.395
 -0.391  -0.380  -0.376  -0.364  -0.358  -0.354  -0.349  -0.340
 -0.337  -0.334  -0.330  -0.327  -0.324  -0.324  -0.315  -0.314
 -0.306  -0.305  -0.300  -0.298  -0.292  -0.281  -0.276  -0.268
 -0.264  -0.262  -0.248  -0.243  -0.237  -0.234  -0.224  -0.187
 -0.176  -0.167  -0.161  -0.158  -0.153  -0.145  -0.138  -0.135
 -0.134

          Ground-State Mulliken Net Atomic Charges

     Atom                 Charge (a.u.)
  ----------------------------------------
      1 O                    -0.219058
      2 C                     0.214241
      3 C                    -0.082657
      4 C                    -0.076495
      5 C                     0.214846
      6 O                    -0.165452
      7 C                    -0.048654
      8 C                    -0.046480
      9 O                    -0.172974
     10 C                     0.215629
     11 C                    -0.081947
     12 C                    -0.077938
     13 C                     0.215153
     14 O                    -0.208095
     15 O                    -0.174906
     16 O                    -0.168923
     17 O                    -0.215122
     18 C                    -0.127897
     19 C                     0.026114
     20 C                    -0.143846
     21 C                    -0.144209
     22 C                     0.024502
     23 O                    -0.189026
     24 H                     0.083582
     25 H                     0.087055
     26 H                     0.087383
     27 H                     0.078053
     28 H                     0.074270
     29 H                     0.078131
     30 H                     0.073572
     31 H                     0.087229
     32 O                    -0.211968
     33 C                    -0.127966
     34 C                     0.024001
     35 C                    -0.143698
     36 C                    -0.144515
     37 C                     0.020145
     38 O                    -0.193183
     39 H                     0.082285
     40 H                     0.085386
     41 H                     0.091833
     42 H                     0.086180
     43 H                     0.075856
     44 H                     0.071524
     45 H                     0.076946
     46 H                     0.072125
     47 H                     0.102391
     48 H                     0.085034
     49 H                     0.084859
     50 H                     0.092387
     51 H                     0.091448
     52 H                     0.090809
     53 H                     0.101719
     54 H                     0.089580
     55 H                     0.089914
     56 H                     0.090829
  ----------------------------------------
  Sum of atomic charges =    -0.000000

                    Cartesian Multipole Moments
 -----------------------------------------------------------------
    Charge (ESU x 10^10)
                 0.0000
    Dipole Moment (Debye)
         X       2.7843      Y      -0.0358      Z      -2.1735
       Tot       3.5324
    Quadrupole Moments (Debye-Ang)
        XX    -148.1275     XY      -4.1362     YY    -151.6715
        XZ       3.5511     YZ      -1.3737     ZZ    -157.7802

 Total job time:  46.54s(wall), 2212.89s(cpu)
        *  Thank you very much for using Q-Chem.  Have a nice day.  *
