 Q-Chem 5.0, Q-Chem, Inc., Pleasanton, CA (2017)
 Q-Chem 5.0.1 for Intel X86 EM64T Linux

User input:
--------------------------------------------------------------
$molecule
0  1
O -5.270192828 1.0240553642 1.4146430316
C -5.231961745 0.5186913702 0.2726696744
C -4.5721889988 -0.8439132838 -0.1513486235
C -3.1794464994 -0.6921398852 -0.8868983625
C -2.6216982169 0.7758108027 -0.8325319989
O -1.2123976633 0.6907447827 -1.0006948247
C -0.5601212102 2.0167060826 -0.9798474323
C 0.9228720738 1.7847029988 -1.448438055
O 1.8379609296 1.5031338909 -0.3197799466
C 1.7371313081 0.1359364222 0.1098923336
C 2.8736455806 -0.1457981472 1.1634071228
C 4.2069621209 -0.7316614915 0.5398774615
C 4.2034917126 -0.7307784887 -1.0269654129
O 3.2556275325 -0.4278269791 -1.7862570119
O -5.9335435127 1.0364839204 -0.8683357223
O 5.4894840061 -1.1489236184 -1.4864269778
O 0.8471618483 -0.6693692844 -0.2389994273
C 5.5236203621 -1.1497711254 -2.9680873579
C 3.4247228827 1.1578753222 1.8826940411
C 4.1438786942 0.714819919 3.2162053996
C 5.4600777596 0.0654257091 2.6475183721
C 5.2751408374 0.3055123583 1.0969083848
O 4.5485665736 1.5931710295 1.0200061576
H 2.4570853704 -0.8599949682 1.8964204084
H 4.4126197096 -1.7591049567 0.8913196521
H 2.6812892381 1.9703353223 1.989529001
H 4.366917041 1.5937541196 3.8419847104
H 3.5370684336 0.007634229 3.8040599411
H 6.3596539851 0.5859720237 3.0122953279
H 5.5475561944 -1.0051240243 2.8931181826
H 6.2109125128 0.3448067088 0.5062163674
O -3.2534376446 1.8391740905 -0.6413366071
C -6.5115983566 2.3577581622 -0.5406751844
C -4.15651919 -1.7387975408 1.0924490476
C -4.0186315652 -3.2297068108 0.5932987992
C -2.6883306896 -3.1419155668 -0.2440248951
C -2.2629355999 -1.640035174 0.0003493488
O -2.7547407563 -1.3474382773 1.3682824754
H -5.2908351854 -1.3719566749 -0.8033042692
H -3.2283745571 -1.0197007577 -1.9416765743
H -5.713915051 3.1012379244 -0.3366639929
H -4.7842045273 -1.5872233218 1.9919760715
H -3.909642484 -3.9116279245 1.451864702
H -4.882900707 -3.5545006745 -0.0078027153
H -1.9189205153 -3.829219383 0.1418439287
H -2.8465696397 -3.3554585641 -1.3132541185
H -1.1774378566 -1.4164420913 -0.0872184254
H -7.1815899734 2.3060474808 0.3418725612
H -7.0907379623 2.6704394103 -1.4290109901
H 6.5461615918 -1.4622201717 -3.2489810314
H 5.3155718677 -0.1414006661 -3.380340425
H 4.7870984732 -1.8628728656 -3.3917109691
H 0.9437360732 0.9612762264 -2.1947476666
H 1.3141840028 2.7139964812 -1.9099454172
H -0.5786122699 2.4564594296 0.0421146096
H -1.0796489179 2.7196684734 -1.6677513407
$end

$rem
JOBTYPE                   OPT
METHOD                    B3LYP
DFT_D                     d3_op
BASIS                     STO-3G
GEOM_OPT_MAX_CYCLES       100
GEOM_OPT_TOL_GRADIENT     300
GEOM_OPT_TOL_DISPLACEMENT 1200
GEOM_OPT_TOL_ENERGY       100
SYMMETRY                  False
THRESH                    12
SCF_CONVERGENCE           8
MAX_SUB_FILE_NUM          128
MEM_STATIC                400
MEM_TOTAL                 4000
$end
--------------------------------------------------------------

   16   -1510.2859668770      5.04E-09 Convergence criterion met
 Total energy in the final basis set = -1510.28596688
   14   -1510.2872565496      5.87E-09 Convergence criterion met
 Total energy in the final basis set = -1510.28725655
   14   -1510.2886088790      5.05E-09 Convergence criterion met
 Total energy in the final basis set = -1510.28860888
   14   -1510.2893068865      3.85E-09 Convergence criterion met
 Total energy in the final basis set = -1510.28930689
   14   -1510.2905278854      2.60E-09 Convergence criterion met
 Total energy in the final basis set = -1510.29052789
   14   -1510.2917119096      3.49E-09 Convergence criterion met
 Total energy in the final basis set = -1510.29171191
   14   -1510.2928512148      2.18E-09 Convergence criterion met
 Total energy in the final basis set = -1510.29285121
   14   -1510.2940235698      2.25E-09 Convergence criterion met
   13   -1510.3048944389      3.31E-09 Convergence criterion met
 Total energy in the final basis set = -1510.30489444
   13   -1510.3051605432      2.77E-09 Convergence criterion met
 Total energy in the final basis set = -1510.30516054
   12   -1510.3052400587      9.66E-09 Convergence criterion met
 Total energy in the final basis set = -1510.30524006
   12   -1510.3052864903      5.17E-09 Convergence criterion met
 Total energy in the final basis set = -1510.30528649
   12   -1510.3053043508      3.90E-09 Convergence criterion met
 Total energy in the final basis set = -1510.30530435
   11   -1510.3053039197      5.14E-09 Convergence criterion met
 Total energy in the final basis set = -1510.30530392

             Standard Nuclear Orientation (Angstroms)
    I     Atom           X                Y                Z
 ----------------------------------------------------------------
    1      O      -1.9965954390     0.9321075892     2.4295399925
    2      C      -2.8359800422     0.6826128487     1.5389405119
    3      C      -3.1237646644    -0.7074677783     0.8579925293
    4      C      -2.5951107235    -0.8301070354    -0.6294832100
    5      C      -1.8714420813     0.4601798530    -1.1382216191
    6      O      -1.6835343554     0.3456334254    -2.5481253231
    7      C      -0.9029984214     1.4915351510    -3.0796608327
    8      C       0.6272327147     1.1321573361    -3.1792606527
    9      O       1.2168362065     1.0260086095    -1.8279110736
   10      C       1.1603782459    -0.3346529025    -1.3698519495
   11      C       1.4892143179    -0.3919722551     0.1655871523
   12      C       3.0259444345    -0.5177175500     0.5064293708
   13      C       3.9177006594    -0.5367966116    -0.7766236264
   14      O       3.5213180106    -0.5123541627    -1.9653355778
   15      O      -3.8084767272     1.6200145597     1.0530505802
   16      O       5.2926081888    -0.5847315777    -0.3959284759
   17      O       0.7310962325    -1.2824277124    -2.0732619672
   18      C       6.1524383536    -0.5886577123    -1.6030653119
   19      C       1.1253169262     0.9624584074     0.9076533548
   20      C       1.0767600242     0.6692526600     2.4574866351
   21      C       2.6086005952     0.5526611292     2.7967865176
   22      C       3.2510449746     0.7981197186     1.3751577043
   23      O       2.3483826224     1.7846966960     0.7440420972
   24      H       0.8919090386    -1.2267079995     0.5817666046
   25      H       3.2458202744    -1.4253182744     1.0980683668
   26      H       0.2268490115     1.4663437773     0.4927114012
   27      H       0.6016368443     1.5069742465     2.9913378666
   28      H       0.5119224837    -0.2500089144     2.6789323205
   29      H       2.9295485171     1.3348744969     3.5032367419
   30      H       2.8831452458    -0.4307889559     3.2105790823
   31      H       4.2967824426     1.1628083273     1.3791039311
   32      O      -1.5069558468     1.4461665843    -0.4534870475
   33      C      -3.5235906668     2.9618818708     1.6068619860
   34      C      -2.3164042298    -1.8740172215     1.5641799272
   35      C      -2.9510773446    -3.2532949621     1.1324652142
   36      C      -2.4300690825    -3.3774807052    -0.3495943692
   37      C      -1.5821689617    -2.0545359359    -0.4925157729
   38      O      -1.0135415232    -1.8657630578     0.8607990614
   39      H      -4.2134943734    -0.8850927459     0.8935995024
   40      H      -3.4068399691    -1.0716073786    -1.3384659784
   41      H      -2.5336855865     3.3312689688     1.2681792924
   42      H      -2.1693269043    -1.7284172361     2.6519988618
   43      H      -2.5673112874    -4.0693919014     1.7650516484
   44      H      -4.0507900581    -3.2422075297     1.1979341119
   45      H      -1.7851158592    -4.2614520441    -0.4775003050
   46      H      -3.2477301852    -3.4279748308    -1.0860432433
   47      H      -0.7593304581    -2.0525396777    -1.2474364121
   48      H      -3.5399565393     2.9612102743     2.7160524975
   49      H      -4.3185081991     3.6284582667     1.2247422079
   50      H       7.1943828958    -0.6152564105    -1.2346166523
   51      H       5.9968852884     0.3225680270    -2.2160155799
   52      H       5.9593105126    -1.4777081242    -2.2376671812
   53      H       0.7510326164     0.1744188926    -3.7285219671
   54      H       1.1614081190     1.9502994081    -3.7040951585
   55      H      -1.0374927006     2.3746335340    -2.4192554582
   56      H      -1.3046636551     1.7036561945    -4.0916962300
 ----------------------------------------------------------------

   11   -1510.3053041863      2.45E-09 Convergence criterion met
 Total energy in the final basis set = -1510.30530419
 Final energy is   -1510.30530418626
 **  OPTIMIZATION CONVERGED  **

                    Orbital Energies (a.u.)
 --------------------------------------------------------------

 Alpha MOs
 -- Occupied --
-18.942 -18.939 -18.921 -18.920 -18.886 -18.885 -18.881 -18.870
-18.861 -18.858 -10.108 -10.101 -10.090 -10.090 -10.072 -10.066
-10.065 -10.057 -10.054 -10.048 -10.046 -10.037 -10.032 -10.032
-10.030 -10.017 -10.015 -10.014 -10.005  -9.996  -1.022  -1.015
 -0.999  -0.996  -0.969  -0.954  -0.944  -0.939  -0.924  -0.924
 -0.760  -0.750  -0.723  -0.712  -0.705  -0.698  -0.687  -0.660
 -0.653  -0.613  -0.589  -0.573  -0.541  -0.535  -0.531  -0.518
 -0.508  -0.503  -0.485  -0.471  -0.458  -0.455  -0.448  -0.436
 -0.429  -0.424  -0.418  -0.414  -0.410  -0.403  -0.402  -0.397
 -0.392  -0.379  -0.370  -0.364  -0.359  -0.353  -0.350  -0.343
 -0.341  -0.337  -0.330  -0.326  -0.324  -0.318  -0.316  -0.305
 -0.300  -0.299  -0.298  -0.289  -0.281  -0.278  -0.275  -0.268
 -0.262  -0.255  -0.251  -0.243  -0.234  -0.231  -0.216  -0.190
 -0.181  -0.165  -0.164  -0.155  -0.154  -0.144  -0.142  -0.141
 -0.128

          Ground-State Mulliken Net Atomic Charges

     Atom                 Charge (a.u.)
  ----------------------------------------
      1 O                    -0.218265
      2 C                     0.214709
      3 C                    -0.081828
      4 C                    -0.079372
      5 C                     0.216286
      6 O                    -0.167051
      7 C                    -0.053608
      8 C                    -0.051701
      9 O                    -0.168214
     10 C                     0.217397
     11 C                    -0.091214
     12 C                    -0.079300
     13 C                     0.214582
     14 O                    -0.207335
     15 O                    -0.176095
     16 O                    -0.167820
     17 O                    -0.230464
     18 C                    -0.127942
     19 C                     0.019080
     20 C                    -0.143135
     21 C                    -0.144554
     22 C                     0.024861
     23 O                    -0.192688
     24 H                     0.104093
     25 H                     0.086038
     26 H                     0.100030
     27 H                     0.080821
     28 H                     0.080253
     29 H                     0.074298
     30 H                     0.070309
     31 H                     0.081667
     32 O                    -0.212742
     33 C                    -0.128619
     34 C                     0.025435
     35 C                    -0.144232
     36 C                    -0.144137
     37 C                     0.011711
     38 O                    -0.197923
     39 H                     0.083955
     40 H                     0.087793
     41 H                     0.092143
     42 H                     0.086431
     43 H                     0.076770
     44 H                     0.072664
     45 H                     0.078293
     46 H                     0.073254
     47 H                     0.109360
     48 H                     0.086408
     49 H                     0.086160
     50 H                     0.091653
     51 H                     0.091255
     52 H                     0.090193
     53 H                     0.101995
     54 H                     0.089348
     55 H                     0.099678
     56 H                     0.089315
  ----------------------------------------
  Sum of atomic charges =    -0.000000

                    Cartesian Multipole Moments
 -----------------------------------------------------------------
    Charge (ESU x 10^10)
                 0.0000
    Dipole Moment (Debye)
         X      -0.6381      Y      -0.6561      Z      -0.7118
       Tot       1.1595
    Quadrupole Moments (Debye-Ang)
        XX    -141.9629     XY      -1.5379     YY    -156.5775
        XZ      -1.9532     YZ      -6.1406     ZZ    -155.8485

 Total job time:  100.03s(wall), 4762.50s(cpu)
        *  Thank you very much for using Q-Chem.  Have a nice day.  *
