 Q-Chem 5.0, Q-Chem, Inc., Pleasanton, CA (2017)
 Q-Chem 5.0.1 for Intel X86 EM64T Linux

User input:
--------------------------------------------------------------
$molecule
0  1
O -3.94934 -3.66094 2.70899
C -3.26408 -4.56952 2.26188
C -3.36658 -6.02376 2.66595
C -2.28993 -6.56531 3.62063
C -1.33401 -5.54912 4.20514
O -0.80702 -6.02522 5.37178
C 0.11923 -5.12023 5.98196
C 0.85832 -5.8137 7.12169
O 0.14151 -5.63069 8.35278
C -0.92473 -6.4489 8.53388
C -1.51841 -6.34397 9.91851
C -0.97233 -7.35686 10.93543
C 0.30646 -8.06707 10.53918
O 0.86244 -7.97326 9.45445
O -2.29708 -4.27486 1.35251
O 0.84158 -8.8957 11.47472
O -1.22484 -7.35938 7.77193
C 1.99483 -9.63016 11.2943
C -1.19754 -5.02446 10.66512
C -2.25496 -4.76682 11.73793
C -1.90669 -5.84577 12.74128
C -0.63392 -6.41216 12.10214
O -0.06001 -5.31338 11.43856
H -2.62382 -6.38398 9.79247
H -1.71579 -8.14189 11.19526
H -1.12391 -4.14167 9.99285
H -2.0207 -3.77524 12.18814
H -3.30962 -4.76657 11.388
H -1.6818 -5.35885 13.71612
H -2.67666 -6.63614 12.8764
H 0.00132 -6.8969 12.87579
O -1.13477 -4.4148 3.78868
C -2.04506 -3.00791 0.86912
C -4.647 -6.28037 3.49025
C -5.04053 -7.75288 3.40489
C -3.96369 -8.37398 4.26029
C -3.22766 -7.11525 4.73294
O -4.23429 -6.14223 4.82232
H -3.45108 -6.60596 1.72104
H -1.67685 -7.39027 3.19609
H -1.75949 -2.32993 1.70168
H -5.50864 -5.64978 3.1781
H -6.01811 -7.86651 3.92643
H -5.12415 -8.15972 2.37416
H -4.45245 -8.88204 5.12176
H -3.28676 -9.08329 3.73687
H -2.71428 -7.3563 5.68409
H -2.94424 -2.6099 0.35203
H -1.20711 -3.05541 0.14385
H 2.2008 -10.21565 12.21366
H 2.8537 -8.95214 11.10179
H 1.87211 -10.33267 10.44237
H 1.15859 -6.86414 6.90947
H 1.79967 -5.23982 7.26257
H -0.34571 -4.16047 6.30161
H 0.90665 -4.89695 5.22347
$end

$opt
CONSTRAINT
tors           1           2           3           4    -102.960
tors           3           4           5           6    +156.474
tors           4           5           6           7    +179.532
tors           5           6           7           8    -169.359
tors           6           7           8           9     -90.361
tors           7           8           9          10     +79.588
tors           8           9          10          11    +171.999
tors           9          10          11          12     -92.922
tors          11          12          13          14      -5.981
ENDCONSTRAINT
$end

$rem
JOBTYPE                   OPT
METHOD                    B3LYP
DFT_D                     d3_op
BASIS                     STO-3G
GEOM_OPT_MAX_CYCLES       100
GEOM_OPT_TOL_GRADIENT     300
GEOM_OPT_TOL_DISPLACEMENT 1200
GEOM_OPT_TOL_ENERGY       100
SYMMETRY                  False
THRESH                    12
SCF_CONVERGENCE           8
MAX_SUB_FILE_NUM          128
MEM_STATIC                400
MEM_TOTAL                 4000
$end
--------------------------------------------------------------

   14   -1510.1534492363      9.32E-09 Convergence criterion met
 Total energy in the final basis set = -1510.15344924
   13   -1510.2230683941      7.26E-09 Convergence criterion met
 Total energy in the final basis set = -1510.22306839
   13   -1510.2603280535      7.59E-09 Convergence criterion met
 Total energy in the final basis set = -1510.26032805
   13   -1510.2767729737      9.58E-09 Convergence criterion met
 Total energy in the final basis set = -1510.27677297
    2   -1510.2767729737      9.52E-09 Convergence criterion met
 Total energy in the final basis set = -1510.27677297
   14   -1510.2824653040      3.85E-09 Convergence criterion met
 Total energy in the final basis set = -1510.28246530
    2   -1510.2824653040      1.30E-09 Convergence criterion met
 Total energy in the final basis set = -1510.28246530
   13   -1510.2846097365      3.49E-09 Convergence criterion met
   11   -1510.2859444314      7.54E-09 Convergence criterion met
 Total energy in the final basis set = -1510.28594443
   11   -1510.2859715456      4.95E-09 Convergence criterion met
 Total energy in the final basis set = -1510.28597155
   10   -1510.2859811375      7.72E-09 Convergence criterion met
 Total energy in the final basis set = -1510.28598114
   10   -1510.2859915211      7.56E-09 Convergence criterion met
 Total energy in the final basis set = -1510.28599152
   10   -1510.2859942113      7.65E-09 Convergence criterion met
 Total energy in the final basis set = -1510.28599421
    9   -1510.2859895921      6.16E-09 Convergence criterion met
 Total energy in the final basis set = -1510.28598959

             Standard Nuclear Orientation (Angstroms)
    I     Atom           X                Y                Z
 ----------------------------------------------------------------
    1      O      -5.2701928280     1.0240553642     1.4146430316
    2      C      -5.2319617450     0.5186913702     0.2726696744
    3      C      -4.5721889988    -0.8439132838    -0.1513486235
    4      C      -3.1794464994    -0.6921398852    -0.8868983625
    5      C      -2.6216982169     0.7758108027    -0.8325319989
    6      O      -1.2123976633     0.6907447827    -1.0006948247
    7      C      -0.5601212102     2.0167060826    -0.9798474323
    8      C       0.9228720738     1.7847029988    -1.4484380550
    9      O       1.8379609296     1.5031338909    -0.3197799466
   10      C       1.7371313081     0.1359364222     0.1098923336
   11      C       2.8736455806    -0.1457981472     1.1634071228
   12      C       4.2069621209    -0.7316614915     0.5398774615
   13      C       4.2034917126    -0.7307784887    -1.0269654129
   14      O       3.2556275325    -0.4278269791    -1.7862570119
   15      O      -5.9335435127     1.0364839204    -0.8683357223
   16      O       5.4894840061    -1.1489236184    -1.4864269778
   17      O       0.8471618483    -0.6693692844    -0.2389994273
   18      C       5.5236203621    -1.1497711254    -2.9680873579
   19      C       3.4247228827     1.1578753222     1.8826940411
   20      C       4.1438786942     0.7148199190     3.2162053996
   21      C       5.4600777596     0.0654257091     2.6475183721
   22      C       5.2751408374     0.3055123583     1.0969083848
   23      O       4.5485665736     1.5931710295     1.0200061576
   24      H       2.4570853704    -0.8599949682     1.8964204084
   25      H       4.4126197096    -1.7591049567     0.8913196521
   26      H       2.6812892381     1.9703353223     1.9895290010
   27      H       4.3669170410     1.5937541196     3.8419847104
   28      H       3.5370684336     0.0076342290     3.8040599411
   29      H       6.3596539851     0.5859720237     3.0122953279
   30      H       5.5475561944    -1.0051240243     2.8931181826
   31      H       6.2109125128     0.3448067088     0.5062163674
   32      O      -3.2534376446     1.8391740905    -0.6413366071
   33      C      -6.5115983566     2.3577581622    -0.5406751844
   34      C      -4.1565191900    -1.7387975408     1.0924490476
   35      C      -4.0186315652    -3.2297068108     0.5932987992
   36      C      -2.6883306896    -3.1419155668    -0.2440248951
   37      C      -2.2629355999    -1.6400351740     0.0003493488
   38      O      -2.7547407563    -1.3474382773     1.3682824754
   39      H      -5.2908351854    -1.3719566749    -0.8033042692
   40      H      -3.2283745571    -1.0197007577    -1.9416765743
   41      H      -5.7139150510     3.1012379244    -0.3366639929
   42      H      -4.7842045273    -1.5872233218     1.9919760715
   43      H      -3.9096424840    -3.9116279245     1.4518647020
   44      H      -4.8829007070    -3.5545006745    -0.0078027153
   45      H      -1.9189205153    -3.8292193830     0.1418439287
   46      H      -2.8465696397    -3.3554585641    -1.3132541185
   47      H      -1.1774378566    -1.4164420913    -0.0872184254
   48      H      -7.1815899734     2.3060474808     0.3418725612
   49      H      -7.0907379623     2.6704394103    -1.4290109901
   50      H       6.5461615918    -1.4622201717    -3.2489810314
   51      H       5.3155718677    -0.1414006661    -3.3803404250
   52      H       4.7870984732    -1.8628728656    -3.3917109691
   53      H       0.9437360732     0.9612762264    -2.1947476666
   54      H       1.3141840028     2.7139964812    -1.9099454172
   55      H      -0.5786122699     2.4564594296     0.0421146096
   56      H      -1.0796489179     2.7196684734    -1.6677513407
 ----------------------------------------------------------------

    9   -1510.2859903173      4.16E-09 Convergence criterion met
 Total energy in the final basis set = -1510.28599032
 Final energy is   -1510.28599031732
 **  OPTIMIZATION CONVERGED  **

                    Orbital Energies (a.u.)
 --------------------------------------------------------------

 Alpha MOs
 -- Occupied --
-18.945 -18.933 -18.924 -18.913 -18.887 -18.887 -18.874 -18.872
-18.866 -18.854 -10.108 -10.096 -10.095 -10.082 -10.072 -10.071
-10.071 -10.061 -10.058 -10.048 -10.046 -10.042 -10.040 -10.034
-10.028 -10.023 -10.021 -10.019 -10.010 -10.008  -1.022  -1.013
 -1.000  -0.990  -0.970  -0.956  -0.945  -0.936  -0.929  -0.917
 -0.763  -0.752  -0.725  -0.719  -0.710  -0.701  -0.687  -0.668
 -0.647  -0.612  -0.594  -0.575  -0.546  -0.537  -0.533  -0.526
 -0.513  -0.505  -0.485  -0.475  -0.463  -0.448  -0.445  -0.444
 -0.434  -0.420  -0.418  -0.416  -0.412  -0.405  -0.397  -0.394
 -0.392  -0.380  -0.376  -0.365  -0.358  -0.354  -0.349  -0.340
 -0.338  -0.335  -0.331  -0.326  -0.324  -0.322  -0.314  -0.310
 -0.307  -0.303  -0.300  -0.295  -0.290  -0.280  -0.278  -0.267
 -0.262  -0.262  -0.247  -0.243  -0.237  -0.234  -0.221  -0.187
 -0.176  -0.168  -0.162  -0.158  -0.153  -0.145  -0.139  -0.134
 -0.131

          Ground-State Mulliken Net Atomic Charges

     Atom                 Charge (a.u.)
  ----------------------------------------
      1 O                    -0.218859
      2 C                     0.213621
      3 C                    -0.082568
      4 C                    -0.077024
      5 C                     0.214337
      6 O                    -0.165668
      7 C                    -0.047755
      8 C                    -0.045832
      9 O                    -0.172758
     10 C                     0.218368
     11 C                    -0.081771
     12 C                    -0.077860
     13 C                     0.215144
     14 O                    -0.208896
     15 O                    -0.174384
     16 O                    -0.168853
     17 O                    -0.214012
     18 C                    -0.127988
     19 C                     0.025933
     20 C                    -0.143762
     21 C                    -0.144204
     22 C                     0.024515
     23 O                    -0.189464
     24 H                     0.084108
     25 H                     0.087548
     26 H                     0.088552
     27 H                     0.078023
     28 H                     0.074434
     29 H                     0.078191
     30 H                     0.073698
     31 H                     0.086626
     32 O                    -0.213069
     33 C                    -0.128156
     34 C                     0.023977
     35 C                    -0.143748
     36 C                    -0.144992
     37 C                     0.016108
     38 O                    -0.193876
     39 H                     0.081952
     40 H                     0.084132
     41 H                     0.091668
     42 H                     0.085318
     43 H                     0.075332
     44 H                     0.070883
     45 H                     0.076280
     46 H                     0.070946
     47 H                     0.108962
     48 H                     0.085749
     49 H                     0.084781
     50 H                     0.092478
     51 H                     0.091529
     52 H                     0.090731
     53 H                     0.102052
     54 H                     0.089941
     55 H                     0.090725
     56 H                     0.088859
  ----------------------------------------
  Sum of atomic charges =    -0.000000

                    Cartesian Multipole Moments
 -----------------------------------------------------------------
    Charge (ESU x 10^10)
                 0.0000
    Dipole Moment (Debye)
         X       2.7986      Y      -1.3547      Z      -1.7080
       Tot       3.5475
    Quadrupole Moments (Debye-Ang)
        XX    -148.9917     XY      -1.8023     YY    -155.1092
        XZ       5.2287     YZ      -1.9440     ZZ    -153.4579

 Total job time:  51.28s(wall), 2439.71s(cpu)
        *  Thank you very much for using Q-Chem.  Have a nice day.  *
