 Q-Chem 5.0, Q-Chem, Inc., Pleasanton, CA (2017)
 Q-Chem 5.0.1 for Intel X86 EM64T Linux

User input:
--------------------------------------------------------------
$molecule
0  1
O -5.1381241409 -0.0989912385 1.7907514851
C -5.1958889773 0.2574328523 0.5946422763
C -4.6037917744 -0.4848216561 -0.6576678832
C -3.2048734506 0.073991386 -1.1435948481
C -2.6054169933 1.1487096156 -0.1673027408
O -1.1987073642 1.1607861307 -0.3720021614
C -0.5102151965 2.140325032 0.4955270451
C 0.9582482754 2.256617702 -0.0542322486
O 1.8813294248 1.3070774445 0.6060920749
C 1.7528661737 -0.0117988132 0.0505713894
C 2.8432703052 -0.9402519054 0.7054964274
C 4.2559001369 -0.8954897929 -0.0098359541
C 4.3096938144 0.1049030634 -1.2129608759
O 3.3713990829 0.7903570666 -1.6780688218
O -5.9543422719 1.3799872811 0.118713915
O 5.6411129783 0.120755371 -1.7305766702
O 0.8686865195 -0.373240776 -0.7558115442
C 5.7303242439 1.0594531993 -2.8738517695
C 3.2419840066 -0.483092479 2.1730150861
C 3.9824355832 -1.6829504391 2.886277161
C 5.3854109314 -1.6412896444 2.1751215433
C 5.1899115662 -0.4241466747 1.1890910161
O 4.3229673098 0.5054338919 1.9463086148
H 2.4394206418 -1.9683010153 0.6959663706
H 4.5568005225 -1.8933778639 -0.3784426151
H 2.4156175231 -0.0271428035 2.7508747299
H 4.071823959 -1.4911547968 3.9673874088
H 3.4570953027 -2.6403432478 2.7400405013
H 6.1951750968 -1.4271701537 2.8906494396
H 5.6233437385 -2.5754334793 1.6418145724
H 6.1207034014 0.0797690974 0.8636341109
O -3.2113026869 1.8575271738 0.6674667865
C -6.472356194 2.1535149416 1.2681571952
C -4.2264914023 -1.9952256855 -0.3460397358
C -4.1307994179 -2.7675501513 -1.7195852551
C -2.7803169541 -2.1943764227 -2.2916941184
C -2.3206072896 -1.2467046991 -1.1145924106
O -2.8165088898 -1.929680746 0.10380595
H -5.3479361275 -0.4142440079 -1.4707245154
H -3.2664279888 0.5099960686 -2.1577906875
H -5.6430127733 2.6038018435 1.8514085141
H -4.8568224587 -2.4710608579 0.429968939
H -4.0648168729 -3.8533219141 -1.5444684518
H -4.993145911 -2.5675105609 -2.3756136348
H -2.038278206 -2.991669115 -2.4555573754
H -2.9189133786 -1.6425204548 -3.2352113779
H -1.2293558464 -1.0482070442 -1.0448901801
H -7.0802550915 1.5214404307 1.9475305677
H -7.1030676251 2.9552866965 0.8419290521
H 6.7819642275 1.0267432896 -3.2131751351
H 5.4680614845 2.0942550013 -2.5728924015
H 5.0618029253 0.7537371115 -3.7044774883
H 0.9475810895 2.1063506493 -1.1552334168
H 1.3626942663 3.2619133071 0.180547651
H -0.5011218706 1.7983605469 1.5543710371
H -1.0228025801 3.1266872436 0.4557900182
$end

$rem
JOBTYPE                   OPT
METHOD                    B3LYP
DFT_D                     d3_op
BASIS                     STO-3G
GEOM_OPT_MAX_CYCLES       100
GEOM_OPT_TOL_GRADIENT     300
GEOM_OPT_TOL_DISPLACEMENT 1200
GEOM_OPT_TOL_ENERGY       100
SYMMETRY                  False
THRESH                    12
SCF_CONVERGENCE           8
MAX_SUB_FILE_NUM          128
MEM_STATIC                400
MEM_TOTAL                 4000
$end
--------------------------------------------------------------

   16   -1510.2863717876      4.99E-09 Convergence criterion met
 Total energy in the final basis set = -1510.28637179
   14   -1510.2875688982      3.85E-09 Convergence criterion met
 Total energy in the final basis set = -1510.28756890
   14   -1510.2888085346      2.97E-09 Convergence criterion met
 Total energy in the final basis set = -1510.28880853
   14   -1510.2896543921      3.70E-09 Convergence criterion met
 Total energy in the final basis set = -1510.28965439
   14   -1510.2907871940      2.63E-09 Convergence criterion met
 Total energy in the final basis set = -1510.29078719
   14   -1510.2922701455      2.99E-09 Convergence criterion met
 Total energy in the final basis set = -1510.29227015
   14   -1510.2939258186      2.91E-09 Convergence criterion met
 Total energy in the final basis set = -1510.29392582
   14   -1510.2935647120      3.48E-09 Convergence criterion met
   12   -1510.3064254235      4.16E-09 Convergence criterion met
 Total energy in the final basis set = -1510.30642542
   11   -1510.3064234938      6.64E-09 Convergence criterion met
 Total energy in the final basis set = -1510.30642349
   11   -1510.3064321881      4.49E-09 Convergence criterion met
 Total energy in the final basis set = -1510.30643219
   11   -1510.3064340362      1.74E-09 Convergence criterion met
 Total energy in the final basis set = -1510.30643404
    9   -1510.3064360051      7.82E-09 Convergence criterion met
 Total energy in the final basis set = -1510.30643601
   10   -1510.3064379745      7.17E-09 Convergence criterion met
 Total energy in the final basis set = -1510.30643797

             Standard Nuclear Orientation (Angstroms)
    I     Atom           X                Y                Z
 ----------------------------------------------------------------
    1      O      -1.9283540254     1.0674239310     2.3388255461
    2      C      -2.7630549510     0.6875796725     1.4878724633
    3      C      -2.9621540562    -0.7757950702     0.9464061152
    4      C      -2.4621167230    -1.0035795652    -0.5386586422
    5      C      -1.8769664001     0.2914073210    -1.1955788667
    6      O      -1.7586776829     0.0619032693    -2.6013932244
    7      C      -1.1097024592     1.2079978921    -3.2868370098
    8      C       0.4454255304     0.9865395336    -3.4177145875
    9      O       1.0854691604     1.1315729570    -2.0931471827
   10      C       1.1256837185    -0.1405906005    -1.4258518294
   11      C       1.3527957175     0.0584888355     0.1155392245
   12      C       2.7643288452    -0.4267744276     0.6272265444
   13      C       3.7438613779    -0.6759401148    -0.5647856167
   14      O       3.5207729764    -0.4229320519    -1.7722066553
   15      O      -3.8097154706     1.5094717825     0.9588413005
   16      O       4.9707926901    -1.2155449669    -0.0749116710
   17      O       0.8204047802    -1.2192594390    -1.9953827440
   18      C       5.9180241823    -1.4195284057    -1.1963122629
   19      C       1.3585096021     1.5759391670     0.5824462784
   20      C       1.0065695638     1.6174852197     2.1149622480
   21      C       2.3057522737     0.9812962466     2.7317658185
   22      C       3.2255178229     0.8530958163     1.4486544383
   23      O       2.7930060253     1.9598450668     0.5670298136
   24      H       0.5372826732    -0.5196633704     0.6163415192
   25      H       2.7074372592    -1.3324260553     1.2573126624
   26      H       0.7612586675     2.2443469851    -0.0657111859
   27      H       0.8928947764     2.6647829151     2.4379622790
   28      H       0.0682944170     1.0805024605     2.3458927493
   29      H       2.7707088834     1.6416366349     3.4807829013
   30      H       2.1191215002    -0.0010316166     3.1947214409
   31      H       4.3157683362     0.9020471916     1.6377534958
   32      O      -1.5607504246     1.3555521387    -0.6153288833
   33      C      -3.6078136744     2.9112454105     1.3888626891
   34      C      -2.0443603714    -1.7954471875     1.7367691775
   35      C      -2.5556144520    -3.2606465561     1.4532060963
   36      C      -2.0455305688    -3.4854957571    -0.0210689631
   37      C      -1.3361581038    -2.1107476413    -0.3186203385
   38      O      -0.7605705184    -1.7421989264     0.9974008184
   39      H      -4.0329358410    -1.0315249186     1.0362186413
   40      H      -3.2674031687    -1.3866917791    -1.1900845440
   41      H      -2.6600228005     3.3186115472     0.9809489127
   42      H      -1.8875182266    -1.5336644635     2.8011243421
   43      H      -2.0924543152    -3.9730834452     2.1542025711
   44      H      -3.6509732865    -3.3398911222     1.5411347555
   45      H      -1.3177432264    -4.3110000367    -0.0736542877
   46      H      -2.8645758276    -3.6930979807    -0.7280525223
   47      H      -0.5251489082    -2.0939819326    -1.0884354706
   48      H      -3.5864621823     3.0017232719     2.4940484420
   49      H      -4.4631075316     3.4830594531     0.9844235636
   50      H       6.8385568752    -1.8344979415    -0.7463833071
   51      H       6.1521216982    -0.4649690772    -1.7104062851
   52      H       5.5151188603    -2.1326750714    -1.9442906530
   53      H       0.6457238297    -0.0238419337    -3.8336892458
   54      H       0.8752536656     1.7683477560    -4.0761375570
   55      H      -1.3065213278     2.1465502902    -2.7256973158
   56      H      -1.5663724365     1.2650774326    -4.2963662190
 ----------------------------------------------------------------

    9   -1510.3064379949      3.77E-09 Convergence criterion met
 Total energy in the final basis set = -1510.30643799
 Final energy is   -1510.30643799487
 **  OPTIMIZATION CONVERGED  **

                    Orbital Energies (a.u.)
 --------------------------------------------------------------

 Alpha MOs
 -- Occupied --
-18.940 -18.936 -18.927 -18.921 -18.897 -18.885 -18.877 -18.869
-18.866 -18.855 -10.107 -10.097 -10.096 -10.089 -10.073 -10.066
-10.063 -10.062 -10.058 -10.049 -10.045 -10.039 -10.037 -10.033
-10.025 -10.021 -10.019 -10.005 -10.001  -9.988  -1.021  -1.011
 -1.004  -0.996  -0.975  -0.951  -0.944  -0.935  -0.931  -0.923
 -0.765  -0.745  -0.725  -0.714  -0.703  -0.700  -0.684  -0.658
 -0.658  -0.614  -0.589  -0.572  -0.545  -0.538  -0.528  -0.517
 -0.511  -0.500  -0.484  -0.470  -0.462  -0.455  -0.449  -0.438
 -0.430  -0.426  -0.417  -0.414  -0.408  -0.406  -0.402  -0.395
 -0.391  -0.378  -0.368  -0.366  -0.358  -0.355  -0.351  -0.345
 -0.343  -0.340  -0.332  -0.328  -0.324  -0.316  -0.313  -0.306
 -0.305  -0.302  -0.293  -0.287  -0.282  -0.276  -0.273  -0.271
 -0.260  -0.254  -0.250  -0.247  -0.234  -0.232  -0.213  -0.191
 -0.177  -0.170  -0.164  -0.153  -0.152  -0.150  -0.148  -0.140
 -0.125

          Ground-State Mulliken Net Atomic Charges

     Atom                 Charge (a.u.)
  ----------------------------------------
      1 O                    -0.218562
      2 C                     0.219115
      3 C                    -0.082169
      4 C                    -0.080038
      5 C                     0.212169
      6 O                    -0.168845
      7 C                    -0.053368
      8 C                    -0.052304
      9 O                    -0.169453
     10 C                     0.216486
     11 C                    -0.099422
     12 C                    -0.078151
     13 C                     0.214953
     14 O                    -0.206981
     15 O                    -0.173218
     16 O                    -0.167856
     17 O                    -0.235265
     18 C                    -0.128015
     19 C                     0.021895
     20 C                    -0.151743
     21 C                    -0.144898
     22 C                     0.024052
     23 O                    -0.196569
     24 H                     0.112124
     25 H                     0.086422
     26 H                     0.091535
     27 H                     0.070173
     28 H                     0.095435
     29 H                     0.072613
     30 H                     0.071193
     31 H                     0.079426
     32 O                    -0.211222
     33 C                    -0.128254
     34 C                     0.025941
     35 C                    -0.143787
     36 C                    -0.143825
     37 C                     0.011395
     38 O                    -0.192790
     39 H                     0.085398
     40 H                     0.088303
     41 H                     0.093723
     42 H                     0.088513
     43 H                     0.078212
     44 H                     0.073701
     45 H                     0.079572
     46 H                     0.074349
     47 H                     0.113630
     48 H                     0.088152
     49 H                     0.087633
     50 H                     0.090957
     51 H                     0.090928
     52 H                     0.090243
     53 H                     0.102146
     54 H                     0.089608
     55 H                     0.097589
     56 H                     0.089153
  ----------------------------------------
  Sum of atomic charges =    -0.000000

                    Cartesian Multipole Moments
 -----------------------------------------------------------------
    Charge (ESU x 10^10)
                -0.0000
    Dipole Moment (Debye)
         X      -1.8395      Y      -1.2000      Z      -0.4693
       Tot       2.2459
    Quadrupole Moments (Debye-Ang)
        XX    -145.7825     XY      -4.3750     YY    -156.1155
        XZ      -0.8031     YZ      -4.6477     ZZ    -154.7644

 Total job time:  154.80s(wall), 7375.29s(cpu)
        *  Thank you very much for using Q-Chem.  Have a nice day.  *
