 Q-Chem 5.0, Q-Chem, Inc., Pleasanton, CA (2017)
 Q-Chem 5.0.1 for Intel X86 EM64T Linux

User input:
--------------------------------------------------------------
$molecule
0  1
O -3.94934 -3.66094 2.70899
C -3.26408 -4.56952 2.26188
C -3.36658 -6.02376 2.66595
C -2.35812 -6.53647 3.7071
C -1.47461 -5.49633 4.35947
O -1.03232 -5.95494 5.56756
C -0.18636 -5.02227 6.24854
C 0.49854 -5.69996 7.43082
O -0.29672 -5.53786 8.61579
C -1.34879 -6.38561 8.73246
C -2.07472 -6.24473 10.04921
C -1.48727 -7.06951 11.20373
C -0.09115 -7.61576 10.98203
O 0.55926 -7.50231 9.95312
O -2.2683 -4.2694 1.38634
O 0.45617 -8.29105 12.02719
O -1.52554 -7.35203 8.00105
C 1.71411 -8.85617 12.01425
C -2.00594 -4.82972 10.67317
C -3.18271 -4.62892 11.62702
C -2.7864 -5.55117 12.76148
C -1.39338 -5.98323 12.289
O -0.91649 -4.87832 11.56095
H -3.14774 -6.46225 9.84635
H -2.1354 -7.93054 11.47781
H -1.98739 -4.01496 9.91642
H -3.12586 -3.57692 11.9887
H -4.19131 -4.81117 11.19775
H -2.72414 -4.95068 13.69605
H -3.45015 -6.42981 12.91392
H -0.77196 -6.29779 13.15617
O -1.26488 -4.36155 3.94886
C -1.99972 -2.99926 0.92061
C -4.70168 -6.29785 3.3928
C -5.06227 -7.77767 3.28994
C -4.042 -8.37383 4.22856
C -3.3682 -7.09872 4.74805
O -4.39588 -6.14393 4.75181
H -3.37446 -6.61458 1.72262
H -1.69574 -7.35018 3.3387
H -1.73963 -2.3278 1.76668
H -5.54712 -5.68403 3.01043
H -6.07399 -7.90408 3.73831
H -5.06243 -8.19395 2.2596
H -4.5851 -8.88854 5.05269
H -3.31287 -9.07097 3.76197
H -2.92519 -7.32405 5.73922
H -2.88181 -2.59628 0.37853
H -1.1395 -3.04254 0.22164
H 1.90473 -9.34204 12.99306
H 2.48375 -8.07233 11.84783
H 1.78061 -9.6242 11.21421
H 0.84262 -6.74059 7.23708
H 1.4131 -5.10089 7.63138
H -0.70609 -4.08113 6.53738
H 0.64561 -4.76566 5.55027
$end

$opt
CONSTRAINT
tors           1           2           3           4     -98.189
tors           3           4           5           6    +156.474
tors           4           5           6           7    +179.988
tors           5           6           7           8    -168.168
tors           6           7           8           9     -91.387
tors           7           8           9          10     +79.792
tors           8           9          10          11    +175.151
tors           9          10          11          12     -85.841
tors          11          12          13          14      -3.514
ENDCONSTRAINT
$end

$rem
JOBTYPE                   OPT
METHOD                    B3LYP
DFT_D                     d3_op
BASIS                     STO-3G
GEOM_OPT_MAX_CYCLES       100
GEOM_OPT_TOL_GRADIENT     300
GEOM_OPT_TOL_DISPLACEMENT 1200
GEOM_OPT_TOL_ENERGY       100
SYMMETRY                  False
THRESH                    12
SCF_CONVERGENCE           8
MAX_SUB_FILE_NUM          128
MEM_STATIC                400
MEM_TOTAL                 4000
$end
--------------------------------------------------------------

   15   -1510.1516609626      6.78E-09 Convergence criterion met
 Total energy in the final basis set = -1510.15166096
   13   -1510.2213552659      6.78E-09 Convergence criterion met
 Total energy in the final basis set = -1510.22135527
   13   -1510.2587217140      7.72E-09 Convergence criterion met
 Total energy in the final basis set = -1510.25872171
   13   -1510.2754169238      9.71E-09 Convergence criterion met
 Total energy in the final basis set = -1510.27541692
   14   -1510.2815618788      3.67E-09 Convergence criterion met
 Total energy in the final basis set = -1510.28156188
   13   -1510.2841556438      3.93E-09 Convergence criterion met
 Total energy in the final basis set = -1510.28415564
   12   -1510.2853486604      7.30E-09 Convergence criterion met
 Total energy in the final basis set = -1510.28534866
   12   -1510.2856909700      6.00E-09 Convergence criterion met
   11   -1510.2863420265      6.40E-09 Convergence criterion met
 Total energy in the final basis set = -1510.28634203
   11   -1510.2863707928      5.04E-09 Convergence criterion met
 Total energy in the final basis set = -1510.28637079
   10   -1510.2863807092      8.55E-09 Convergence criterion met
 Total energy in the final basis set = -1510.28638071
   10   -1510.2863873677      8.94E-09 Convergence criterion met
 Total energy in the final basis set = -1510.28638737
    9   -1510.2863885556      6.43E-09 Convergence criterion met
 Total energy in the final basis set = -1510.28638856
    9   -1510.2863896714      5.46E-09 Convergence criterion met
 Total energy in the final basis set = -1510.28638967

             Standard Nuclear Orientation (Angstroms)
    I     Atom           X                Y                Z
 ----------------------------------------------------------------
    1      O      -5.1381241409    -0.0989912385     1.7907514851
    2      C      -5.1958889773     0.2574328523     0.5946422763
    3      C      -4.6037917744    -0.4848216561    -0.6576678832
    4      C      -3.2048734506     0.0739913860    -1.1435948481
    5      C      -2.6054169933     1.1487096156    -0.1673027408
    6      O      -1.1987073642     1.1607861307    -0.3720021614
    7      C      -0.5102151965     2.1403250320     0.4955270451
    8      C       0.9582482754     2.2566177020    -0.0542322486
    9      O       1.8813294248     1.3070774445     0.6060920749
   10      C       1.7528661737    -0.0117988132     0.0505713894
   11      C       2.8432703052    -0.9402519054     0.7054964274
   12      C       4.2559001369    -0.8954897929    -0.0098359541
   13      C       4.3096938144     0.1049030634    -1.2129608759
   14      O       3.3713990829     0.7903570666    -1.6780688218
   15      O      -5.9543422719     1.3799872811     0.1187139150
   16      O       5.6411129783     0.1207553710    -1.7305766702
   17      O       0.8686865195    -0.3732407760    -0.7558115442
   18      C       5.7303242439     1.0594531993    -2.8738517695
   19      C       3.2419840066    -0.4830924790     2.1730150861
   20      C       3.9824355832    -1.6829504391     2.8862771610
   21      C       5.3854109314    -1.6412896444     2.1751215433
   22      C       5.1899115662    -0.4241466747     1.1890910161
   23      O       4.3229673098     0.5054338919     1.9463086148
   24      H       2.4394206418    -1.9683010153     0.6959663706
   25      H       4.5568005225    -1.8933778639    -0.3784426151
   26      H       2.4156175231    -0.0271428035     2.7508747299
   27      H       4.0718239590    -1.4911547968     3.9673874088
   28      H       3.4570953027    -2.6403432478     2.7400405013
   29      H       6.1951750968    -1.4271701537     2.8906494396
   30      H       5.6233437385    -2.5754334793     1.6418145724
   31      H       6.1207034014     0.0797690974     0.8636341109
   32      O      -3.2113026869     1.8575271738     0.6674667865
   33      C      -6.4723561940     2.1535149416     1.2681571952
   34      C      -4.2264914023    -1.9952256855    -0.3460397358
   35      C      -4.1307994179    -2.7675501513    -1.7195852551
   36      C      -2.7803169541    -2.1943764227    -2.2916941184
   37      C      -2.3206072896    -1.2467046991    -1.1145924106
   38      O      -2.8165088898    -1.9296807460     0.1038059500
   39      H      -5.3479361275    -0.4142440079    -1.4707245154
   40      H      -3.2664279888     0.5099960686    -2.1577906875
   41      H      -5.6430127733     2.6038018435     1.8514085141
   42      H      -4.8568224587    -2.4710608579     0.4299689390
   43      H      -4.0648168729    -3.8533219141    -1.5444684518
   44      H      -4.9931459110    -2.5675105609    -2.3756136348
   45      H      -2.0382782060    -2.9916691150    -2.4555573754
   46      H      -2.9189133786    -1.6425204548    -3.2352113779
   47      H      -1.2293558464    -1.0482070442    -1.0448901801
   48      H      -7.0802550915     1.5214404307     1.9475305677
   49      H      -7.1030676251     2.9552866965     0.8419290521
   50      H       6.7819642275     1.0267432896    -3.2131751351
   51      H       5.4680614845     2.0942550013    -2.5728924015
   52      H       5.0618029253     0.7537371115    -3.7044774883
   53      H       0.9475810895     2.1063506493    -1.1552334168
   54      H       1.3626942663     3.2619133071     0.1805476510
   55      H      -0.5011218706     1.7983605469     1.5543710371
   56      H      -1.0228025801     3.1266872436     0.4557900182
 ----------------------------------------------------------------

    8   -1510.2863906246      9.93E-09 Convergence criterion met
 Total energy in the final basis set = -1510.28639062
 Final energy is   -1510.28639062456
 **  OPTIMIZATION CONVERGED  **

                    Orbital Energies (a.u.)
 --------------------------------------------------------------

 Alpha MOs
 -- Occupied --
-18.944 -18.933 -18.923 -18.913 -18.888 -18.887 -18.874 -18.873
-18.865 -18.854 -10.108 -10.097 -10.094 -10.083 -10.072 -10.071
-10.070 -10.061 -10.058 -10.048 -10.047 -10.041 -10.041 -10.034
-10.029 -10.023 -10.021 -10.019 -10.010 -10.009  -1.021  -1.013
 -0.999  -0.991  -0.970  -0.957  -0.945  -0.936  -0.928  -0.917
 -0.763  -0.752  -0.725  -0.719  -0.710  -0.701  -0.687  -0.668
 -0.647  -0.612  -0.593  -0.575  -0.546  -0.537  -0.534  -0.527
 -0.513  -0.506  -0.485  -0.474  -0.463  -0.448  -0.444  -0.444
 -0.434  -0.421  -0.417  -0.417  -0.412  -0.406  -0.397  -0.394
 -0.391  -0.380  -0.376  -0.365  -0.357  -0.354  -0.349  -0.340
 -0.338  -0.335  -0.331  -0.326  -0.324  -0.322  -0.314  -0.312
 -0.306  -0.303  -0.300  -0.295  -0.290  -0.281  -0.277  -0.267
 -0.263  -0.261  -0.247  -0.243  -0.237  -0.234  -0.222  -0.187
 -0.176  -0.167  -0.161  -0.158  -0.153  -0.145  -0.139  -0.134
 -0.132

          Ground-State Mulliken Net Atomic Charges

     Atom                 Charge (a.u.)
  ----------------------------------------
      1 O                    -0.218760
      2 C                     0.213295
      3 C                    -0.082516
      4 C                    -0.077207
      5 C                     0.214015
      6 O                    -0.165996
      7 C                    -0.047976
      8 C                    -0.046024
      9 O                    -0.171619
     10 C                     0.217329
     11 C                    -0.081516
     12 C                    -0.078344
     13 C                     0.214450
     14 O                    -0.208612
     15 O                    -0.173964
     16 O                    -0.169138
     17 O                    -0.214329
     18 C                    -0.128088
     19 C                     0.026637
     20 C                    -0.144234
     21 C                    -0.143800
     22 C                     0.025033
     23 O                    -0.187882
     24 H                     0.084276
     25 H                     0.087024
     26 H                     0.086923
     27 H                     0.078170
     28 H                     0.074467
     29 H                     0.078190
     30 H                     0.073766
     31 H                     0.086339
     32 O                    -0.213100
     33 C                    -0.128194
     34 C                     0.024368
     35 C                    -0.143960
     36 C                    -0.144652
     37 C                     0.017332
     38 O                    -0.193035
     39 H                     0.082263
     40 H                     0.084229
     41 H                     0.091606
     42 H                     0.084808
     43 H                     0.075451
     44 H                     0.071092
     45 H                     0.076589
     46 H                     0.071245
     47 H                     0.107297
     48 H                     0.085921
     49 H                     0.084907
     50 H                     0.092319
     51 H                     0.091232
     52 H                     0.090651
     53 H                     0.101874
     54 H                     0.089915
     55 H                     0.090588
     56 H                     0.089345
  ----------------------------------------
  Sum of atomic charges =    -0.000000

                    Cartesian Multipole Moments
 -----------------------------------------------------------------
    Charge (ESU x 10^10)
                 0.0000
    Dipole Moment (Debye)
         X       2.7494      Y       0.0408      Z      -2.0848
       Tot       3.4507
    Quadrupole Moments (Debye-Ang)
        XX    -146.6249     XY      -4.1472     YY    -152.6511
        XZ       2.5286     YZ      -1.3267     ZZ    -156.7128

 Total job time:  50.77s(wall), 2414.54s(cpu)
        *  Thank you very much for using Q-Chem.  Have a nice day.  *
