 Q-Chem 5.0, Q-Chem, Inc., Pleasanton, CA (2017)
 Q-Chem 5.0.1 for Intel X86 EM64T Linux

User input:
--------------------------------------------------------------
$molecule
0  1
O -3.94934 -3.66094 2.70899
C -3.26408 -4.56952 2.26188
C -3.36658 -6.02376 2.66595
C -2.3284 -6.54853 3.67126
C -1.41358 -5.51835 4.2957
O -0.95078 -5.97587 5.4965
C -0.06635 -5.05676 6.14633
C 0.61108 -5.73049 7.33515
O -0.15167 -5.49759 8.52966
C -1.1412 -6.39234 8.77337
C -1.85119 -6.1423 10.08259
C -1.24511 -6.86308 11.29561
C 0.15084 -7.42078 11.10328
O 0.80643 -7.35086 10.07377
O -2.28044 -4.27165 1.37182
O 0.70108 -8.03137 12.18597
O -1.30259 -7.42349 8.1318
C 1.96283 -8.58767 12.20679
C -1.77916 -4.6798 10.59106
C -2.94626 -4.40464 11.53858
C -2.53571 -5.23155 12.73931
C -1.14546 -5.69476 12.2894
O -0.68049 -4.65181 11.46855
H -2.92729 -6.37036 9.91044
H -1.88565 -7.70481 11.63884
H -1.77371 -3.92692 9.77257
H -2.88725 -3.32681 11.81361
H -3.95957 -4.62128 11.1373
H -2.46864 -4.55841 13.62262
H -3.19357 -6.09835 12.9668
H -0.51328 -5.93731 13.17184
O -1.19538 -4.38987 3.8726
C -2.01903 -3.00287 0.89836
C -4.67914 -6.28998 3.43563
C -5.05419 -7.76671 3.34055
C -4.00925 -8.37337 4.24464
C -3.30824 -7.10521 4.74469
O -4.32759 -6.14224 4.78432
H -3.40786 -6.61133 1.72149
H -1.68647 -7.36797 3.28011
H -1.7482 -2.32847 1.73871
H -5.53227 -5.66915 3.08294
H -6.05208 -7.88703 3.82048
H -5.09015 -8.1797 2.30951
H -4.52982 -8.88496 5.0851
H -3.30181 -9.07602 3.75358
H -2.8348 -7.33751 5.7215
H -2.90854 -2.60225 0.36675
H -1.16815 -3.04786 0.18815
H 2.15511 -9.01578 13.21189
H 2.72749 -7.80937 11.99707
H 2.03578 -9.39947 11.4518
H 0.92557 -6.78507 7.16726
H 1.55087 -5.16072 7.50179
H -0.55247 -4.09453 6.42436
H 0.76114 -4.83996 5.42956
$end

$opt
CONSTRAINT
tors           1           2           3           4    -100.204
tors           3           4           5           6    +155.578
tors           4           5           6           7    +179.532
tors           5           6           7           8    -169.359
tors           6           7           8           9     -92.345
tors           7           8           9          10     +87.362
tors           8           9          10          11    +176.553
tors           9          10          11          12     -89.961
tors          11          12          13          14      -0.740
ENDCONSTRAINT
$end

$rem
JOBTYPE                   OPT
METHOD                    B3LYP
DFT_D                     d3_op
BASIS                     STO-3G
GEOM_OPT_MAX_CYCLES       100
GEOM_OPT_TOL_GRADIENT     300
GEOM_OPT_TOL_DISPLACEMENT 1200
GEOM_OPT_TOL_ENERGY       100
SYMMETRY                  False
THRESH                    12
SCF_CONVERGENCE           8
MAX_SUB_FILE_NUM          128
MEM_STATIC                400
MEM_TOTAL                 4000
$end
--------------------------------------------------------------

   15   -1510.1528597863      8.28E-09 Convergence criterion met
 Total energy in the final basis set = -1510.15285979
   13   -1510.2221786868      6.52E-09 Convergence criterion met
 Total energy in the final basis set = -1510.22217869
   13   -1510.2593100708      6.99E-09 Convergence criterion met
 Total energy in the final basis set = -1510.25931007
   13   -1510.2757590416      9.26E-09 Convergence criterion met
 Total energy in the final basis set = -1510.27575904
   13   -1510.2817861353      8.77E-09 Convergence criterion met
 Total energy in the final basis set = -1510.28178614
    2   -1510.2817861354      9.40E-09 Convergence criterion met
 Total energy in the final basis set = -1510.28178614
   13   -1510.2842542059      3.70E-09 Convergence criterion met
 Total energy in the final basis set = -1510.28425421
   13   -1510.2853623630      2.17E-09 Convergence criterion met
   11   -1510.2860240678      9.89E-09 Convergence criterion met
 Total energy in the final basis set = -1510.28602407
   12   -1510.2861002002      2.68E-09 Convergence criterion met
 Total energy in the final basis set = -1510.28610020
   11   -1510.2861326360      3.71E-09 Convergence criterion met
 Total energy in the final basis set = -1510.28613264
   11   -1510.2861518629      3.31E-09 Convergence criterion met
 Total energy in the final basis set = -1510.28615186
    9   -1510.2861616479      9.64E-09 Convergence criterion met
 Total energy in the final basis set = -1510.28616165
    9   -1510.2861641357      8.20E-09 Convergence criterion met
 Total energy in the final basis set = -1510.28616414

             Standard Nuclear Orientation (Angstroms)
    I     Atom           X                Y                Z
 ----------------------------------------------------------------
    1      O      -5.1255662670    -0.0259232326     1.8403212625
    2      C      -5.1916142974     0.2863439196     0.6323513588
    3      C      -4.6108308571    -0.5045997000    -0.5956017713
    4      C      -3.2385282394     0.0593637057    -1.1465414439
    5      C      -2.6224975554     1.1653232465    -0.2150977558
    6      O      -1.2213376313     1.1814348614    -0.4503145754
    7      C      -0.5189213635     2.1971813005     0.3652763330
    8      C       0.9385678958     2.2630623279    -0.2186617911
    9      O       1.8405562002     1.3403588240     0.5060388758
   10      C       1.7912095295     0.0308245816    -0.0859763164
   11      C       2.8236482718    -0.9046462797     0.6469170629
   12      C       4.2743548109    -0.9072006749     0.0118515860
   13      C       4.4252202308     0.1068666204    -1.1707072385
   14      O       3.5449548444     0.8647073772    -1.6377770560
   15      O      -5.9580122580     1.3866987200     0.1195390359
   16      O       5.7670925486     0.0485130455    -1.6560845354
   17      O       0.9757183993    -0.3231069995    -0.9657909529
   18      C       5.9478398242     1.0131761160    -2.7664364066
   19      C       3.1491254397    -0.4345543035     2.1290034128
   20      C       3.7904196542    -1.6517196163     2.9045164610
   21      C       5.2288210168    -1.6924036917     2.2672675839
   22      C       5.1534894808    -0.4745883453     1.2650490509
   23      O       4.2850046414     0.5019467999     1.9586253428
   24      H       2.3987130891    -1.9241426107     0.6315459809
   25      H       4.5623600910    -1.9110742166    -0.3504089110
   26      H       2.3083084751     0.0678960663     2.6442449749
   27      H       3.8336994594    -1.4391006432     3.9845769722
   28      H       3.2272585379    -2.5862052602     2.7508380922
   29      H       6.0117138882    -1.5190259828     3.0224972300
   30      H       5.4406874678    -2.6421230332     1.7507054988
   31      H       6.1262099597    -0.0180612302     0.9973876868
   32      O      -3.2150114371     1.8941132787     0.6121135542
   33      C      -6.4723628662     2.2005324919     1.2423212605
   34      C      -4.1926714678    -1.9905307496    -0.2229842099
   35      C      -4.1414907633    -2.8293097391    -1.5582293686
   36      C      -2.8356245171    -2.2520838126    -2.2225004563
   37      C      -2.3367022274    -1.2476581070    -1.1093592505
   38      O      -2.7654544072    -1.8817541480     0.1603977991
   39      H      -5.3759987463    -0.4906227992    -1.3922262585
   40      H      -3.3401826250     0.4696653512    -2.1681909533
   41      H      -5.6416939524     2.6770743301     1.8024252854
   42      H      -4.7803973388    -2.4352407421     0.6033545765
   43      H      -4.0372826549    -3.9027854403    -1.3328696943
   44      H      -5.0385877784    -2.6845252162    -2.1814709240
   45      H      -2.0850214688    -3.0394980553    -2.3945683682
   46      H      -3.0364549936    -1.7412387401    -3.1777561945
   47      H      -1.2466856633    -1.0349599395    -1.1003496467
   48      H      -7.0722081852     1.5914541020     1.9492787468
   49      H      -7.1103387010     2.9822587370     0.7904651158
   50      H       7.0042668426     0.9229579953    -3.0792723073
   51      H       5.7437560368     2.0532179755    -2.4396466711
   52      H       5.2848171911     0.7764492888    -3.6235871188
   53      H       0.9080797159     2.0281804928    -1.3036096520
   54      H       1.3601544234     3.2767093252    -0.0623941262
   55      H      -0.4949981197     1.9037108586     1.4380999621
   56      H      -1.0263504401     3.1837229479     0.2854405501
 ----------------------------------------------------------------

    9   -1510.2861650852      8.40E-09 Convergence criterion met
 Total energy in the final basis set = -1510.28616509
 Final energy is   -1510.28616508516
 **  OPTIMIZATION CONVERGED  **

                    Orbital Energies (a.u.)
 --------------------------------------------------------------

 Alpha MOs
 -- Occupied --
-18.944 -18.934 -18.922 -18.914 -18.888 -18.887 -18.875 -18.875
-18.862 -18.854 -10.108 -10.098 -10.093 -10.083 -10.072 -10.071
-10.068 -10.062 -10.058 -10.049 -10.048 -10.044 -10.041 -10.034
-10.030 -10.024 -10.021 -10.019 -10.011 -10.010  -1.021  -1.013
 -0.999  -0.991  -0.970  -0.959  -0.945  -0.937  -0.927  -0.918
 -0.763  -0.753  -0.725  -0.719  -0.711  -0.701  -0.688  -0.668
 -0.648  -0.611  -0.593  -0.575  -0.546  -0.537  -0.535  -0.528
 -0.513  -0.506  -0.485  -0.475  -0.463  -0.449  -0.445  -0.444
 -0.434  -0.422  -0.417  -0.416  -0.412  -0.406  -0.398  -0.395
 -0.392  -0.379  -0.374  -0.364  -0.358  -0.355  -0.348  -0.340
 -0.338  -0.335  -0.330  -0.326  -0.325  -0.323  -0.314  -0.313
 -0.306  -0.304  -0.300  -0.297  -0.291  -0.280  -0.276  -0.268
 -0.264  -0.261  -0.248  -0.243  -0.238  -0.234  -0.223  -0.187
 -0.176  -0.166  -0.161  -0.159  -0.152  -0.145  -0.140  -0.135
 -0.133

          Ground-State Mulliken Net Atomic Charges

     Atom                 Charge (a.u.)
  ----------------------------------------
      1 O                    -0.218858
      2 C                     0.213476
      3 C                    -0.082485
      4 C                    -0.076925
      5 C                     0.214334
      6 O                    -0.167740
      7 C                    -0.047851
      8 C                    -0.046501
      9 O                    -0.171708
     10 C                     0.216682
     11 C                    -0.081710
     12 C                    -0.078237
     13 C                     0.214622
     14 O                    -0.207804
     15 O                    -0.173959
     16 O                    -0.168863
     17 O                    -0.217804
     18 C                    -0.128061
     19 C                     0.026512
     20 C                    -0.144066
     21 C                    -0.143887
     22 C                     0.025015
     23 O                    -0.188450
     24 H                     0.084462
     25 H                     0.087107
     26 H                     0.087917
     27 H                     0.078231
     28 H                     0.074608
     29 H                     0.078217
     30 H                     0.073793
     31 H                     0.085848
     32 O                    -0.212687
     33 C                    -0.128143
     34 C                     0.024114
     35 C                    -0.143722
     36 C                    -0.144704
     37 C                     0.018744
     38 O                    -0.193179
     39 H                     0.082382
     40 H                     0.084631
     41 H                     0.091628
     42 H                     0.085459
     43 H                     0.075708
     44 H                     0.071367
     45 H                     0.077002
     46 H                     0.071669
     47 H                     0.104450
     48 H                     0.086017
     49 H                     0.085060
     50 H                     0.092368
     51 H                     0.091403
     52 H                     0.090813
     53 H                     0.104168
     54 H                     0.089169
     55 H                     0.091437
     56 H                     0.088930
  ----------------------------------------
  Sum of atomic charges =     0.000000

                    Cartesian Multipole Moments
 -----------------------------------------------------------------
    Charge (ESU x 10^10)
                 0.0000
    Dipole Moment (Debye)
         X       2.5345      Y      -0.1438      Z      -2.0414
       Tot       3.2575
    Quadrupole Moments (Debye-Ang)
        XX    -145.4714     XY      -3.6011     YY    -152.4952
        XZ       2.6458     YZ      -1.6428     ZZ    -157.6201

 Total job time:  47.71s(wall), 2268.85s(cpu)
        *  Thank you very much for using Q-Chem.  Have a nice day.  *
