 Q-Chem 5.0, Q-Chem, Inc., Pleasanton, CA (2017)
 Q-Chem 5.0.1 for Intel X86 EM64T Linux

User input:
--------------------------------------------------------------
$molecule
0  1
O -5.125566267 -0.0259232326 1.8403212625
C -5.1916142974 0.2863439196 0.6323513588
C -4.6108308571 -0.5045997 -0.5956017713
C -3.2385282394 0.0593637057 -1.1465414439
C -2.6224975554 1.1653232465 -0.2150977558
O -1.2213376313 1.1814348614 -0.4503145754
C -0.5189213635 2.1971813005 0.365276333
C 0.9385678958 2.2630623279 -0.2186617911
O 1.8405562002 1.340358824 0.5060388758
C 1.7912095295 0.0308245816 -0.0859763164
C 2.8236482718 -0.9046462797 0.6469170629
C 4.2743548109 -0.9072006749 0.011851586
C 4.4252202308 0.1068666204 -1.1707072385
O 3.5449548444 0.8647073772 -1.637777056
O -5.958012258 1.38669872 0.1195390359
O 5.7670925486 0.0485130455 -1.6560845354
O 0.9757183993 -0.3231069995 -0.9657909529
C 5.9478398242 1.013176116 -2.7664364066
C 3.1491254397 -0.4345543035 2.1290034128
C 3.7904196542 -1.6517196163 2.904516461
C 5.2288210168 -1.6924036917 2.2672675839
C 5.1534894808 -0.4745883453 1.2650490509
O 4.2850046414 0.5019467999 1.9586253428
H 2.3987130891 -1.9241426107 0.6315459809
H 4.562360091 -1.9110742166 -0.350408911
H 2.3083084751 0.0678960663 2.6442449749
H 3.8336994594 -1.4391006432 3.9845769722
H 3.2272585379 -2.5862052602 2.7508380922
H 6.0117138882 -1.5190259828 3.02249723
H 5.4406874678 -2.6421230332 1.7507054988
H 6.1262099597 -0.0180612302 0.9973876868
O -3.2150114371 1.8941132787 0.6121135542
C -6.4723628662 2.2005324919 1.2423212605
C -4.1926714678 -1.9905307496 -0.2229842099
C -4.1414907633 -2.8293097391 -1.5582293686
C -2.8356245171 -2.2520838126 -2.2225004563
C -2.3367022274 -1.247658107 -1.1093592505
O -2.7654544072 -1.881754148 0.1603977991
H -5.3759987463 -0.4906227992 -1.3922262585
H -3.340182625 0.4696653512 -2.1681909533
H -5.6416939524 2.6770743301 1.8024252854
H -4.7803973388 -2.4352407421 0.6033545765
H -4.0372826549 -3.9027854403 -1.3328696943
H -5.0385877784 -2.6845252162 -2.181470924
H -2.0850214688 -3.0394980553 -2.3945683682
H -3.0364549936 -1.7412387401 -3.1777561945
H -1.2466856633 -1.0349599395 -1.1003496467
H -7.0722081852 1.591454102 1.9492787468
H -7.110338701 2.982258737 0.7904651158
H 7.0042668426 0.9229579953 -3.0792723073
H 5.7437560368 2.0532179755 -2.4396466711
H 5.2848171911 0.7764492888 -3.6235871188
H 0.9080797159 2.0281804928 -1.303609652
H 1.3601544234 3.2767093252 -0.0623941262
H -0.4949981197 1.9037108586 1.4380999621
H -1.0263504401 3.1837229479 0.2854405501
$end

$rem
JOBTYPE                   OPT
METHOD                    B3LYP
DFT_D                     d3_op
BASIS                     STO-3G
GEOM_OPT_MAX_CYCLES       100
GEOM_OPT_TOL_GRADIENT     300
GEOM_OPT_TOL_DISPLACEMENT 1200
GEOM_OPT_TOL_ENERGY       100
SYMMETRY                  False
THRESH                    12
SCF_CONVERGENCE           8
MAX_SUB_FILE_NUM          128
MEM_STATIC                400
MEM_TOTAL                 4000
$end
--------------------------------------------------------------

   16   -1510.2862605489      5.25E-09 Convergence criterion met
 Total energy in the final basis set = -1510.28626055
   14   -1510.2872768522      2.24E-09 Convergence criterion met
 Total energy in the final basis set = -1510.28727685
   13   -1510.2884910616      9.49E-09 Convergence criterion met
 Total energy in the final basis set = -1510.28849106
   14   -1510.2893655601      5.49E-09 Convergence criterion met
 Total energy in the final basis set = -1510.28936556
   14   -1510.2906587833      3.13E-09 Convergence criterion met
 Total energy in the final basis set = -1510.29065878
   16   -1510.1517408226      3.71E-09 Convergence criterion met
 Total energy in the final basis set = -1510.15174082
   14   -1510.2880316865      7.48E-09 Convergence criterion met
 Total energy in the final basis set = -1510.28803169
   14   -1510.2908103574      8.62E-09 Convergence criterion met
   12   -1510.3051294290      7.22E-09 Convergence criterion met
 Total energy in the final basis set = -1510.30512943
   12   -1510.3051784313      4.92E-09 Convergence criterion met
 Total energy in the final basis set = -1510.30517843
   12   -1510.3052099565      4.07E-09 Convergence criterion met
 Total energy in the final basis set = -1510.30520996
   11   -1510.3052100394      9.01E-09 Convergence criterion met
 Total energy in the final basis set = -1510.30521004
   10   -1510.3052135814      9.20E-09 Convergence criterion met
 Total energy in the final basis set = -1510.30521358
    9   -1510.3052162765      9.20E-09 Convergence criterion met
 Total energy in the final basis set = -1510.30521628

             Standard Nuclear Orientation (Angstroms)
    I     Atom           X                Y                Z
 ----------------------------------------------------------------
    1      O      -2.0541235330     0.6096967827     2.4874038683
    2      C      -2.8735391349     0.5395936221     1.5471214882
    3      C      -3.2081611559    -0.7209699472     0.6652597121
    4      C      -2.6310609458    -0.6626799911    -0.8085231437
    5      C      -1.8280775675     0.6463009593    -1.1013420270
    6      O      -1.6041311874     0.7421443559    -2.5063113535
    7      C      -0.7391734871     1.9051609073    -2.8300002500
    8      C       0.7715048777     1.4717854058    -2.9251392415
    9      O       1.2950092757     1.1364753689    -1.5836118817
   10      C       1.1992717374    -0.2781875583    -1.3538313245
   11      C       1.5225894649    -0.5905998774     0.1504518564
   12      C       3.0622906756    -0.6560445861     0.5011896845
   13      C       3.9644457538    -0.3841063242    -0.7468161823
   14      O       3.5881696834    -0.3135626744    -1.9399888783
   15      O      -3.7814343997     1.5888064033     1.1796244473
   16      O       5.3202037327    -0.2270441846    -0.3281496669
   17      O       0.7557104489    -1.0893763383    -2.2032863966
   18      C       6.1824443615     0.0574127176    -1.4993442776
   19      C       1.0449966767     0.5796719197     1.1132341879
   20      C       1.0030681394     0.0067580387     2.5821209392
   21      C       2.5355779503    -0.0437568730     2.9367111833
   22      C       3.1737802321     0.4945995590     1.5955696136
   23      O       2.2024580542     1.5052812984     1.1266906450
   24      H       0.9996230779    -1.5325435999     0.3959693102
   25      H       3.3433023393    -1.6371229685     0.9267308661
   26      H       0.1192410381     1.0902436026     0.7699172840
   27      H       0.4469391246     0.6888265042     3.2439759440
   28      H       0.5192883615    -0.9820303105     2.6155889013
   29      H       2.7812869046     0.6296307681     3.7733935416
   30      H       2.8856127360    -1.0582150064     3.1860201797
   31      H       4.1877882356     0.9304252564     1.6869821095
   32      O      -1.4302329610     1.4925876234    -0.2637961163
   33      C      -3.4517679155     2.8170300449     1.9352962684
   34      C      -2.4829232324    -2.0153518776     1.2219217395
   35      C      -3.1620377545    -3.2873559918     0.5780457963
   36      C      -2.5878507121    -3.2293878076    -0.8878041891
   37      C      -1.6784790029    -1.9426560597    -0.8137312095
   38      O      -1.1541771978    -1.9705350983     0.5699078837
   39      H      -4.3061411102    -0.8407493068     0.6441190956
   40      H      -3.4265853673    -0.7584000693    -1.5686840750
   41      H      -2.4390257842     3.1864396069     1.6730583960
   42      H      -2.3717347255    -2.0318380406     2.3234443917
   43      H      -2.8418768190    -4.2024934688     1.1009584519
   44      H      -4.2618100050    -3.2296073946     0.6068906604
   45      H      -1.9770860946    -4.1171378199    -1.1174132102
   46      H      -3.3770958688    -3.1380959211    -1.6510081217
   47      H      -0.8302389214    -1.8785060772    -1.5356736395
   48      H      -3.4938758944     2.6487309431     3.0308681765
   49      H      -4.2077871177     3.5698247409     1.6454384967
   50      H       7.2056544972     0.1836452664    -1.1004434919
   51      H       5.8679466276     0.9855136008    -2.0187548586
   52      H       6.1683726743    -0.7773863385    -2.2296653517
   53      H       0.8659776258     0.5949518393    -3.6008164772
   54      H       1.3723502080     2.3217504620    -3.3082747436
   55      H      -0.8555608115     2.6885044486    -2.0509604273
   56      H      -1.0826162000     2.2868423159    -3.8133357269
 ----------------------------------------------------------------

    9   -1510.3052161481      3.04E-09 Convergence criterion met
 Total energy in the final basis set = -1510.30521615
 Final energy is   -1510.30521614809
 **  OPTIMIZATION CONVERGED  **

                    Orbital Energies (a.u.)
 --------------------------------------------------------------

 Alpha MOs
 -- Occupied --
-18.944 -18.939 -18.922 -18.919 -18.887 -18.882 -18.880 -18.869
-18.860 -18.859 -10.108 -10.101 -10.091 -10.090 -10.073 -10.066
-10.066 -10.055 -10.053 -10.047 -10.046 -10.037 -10.031 -10.031
-10.030 -10.017 -10.016 -10.015 -10.005  -9.996  -1.023  -1.015
 -0.999  -0.997  -0.967  -0.953  -0.945  -0.939  -0.925  -0.924
 -0.760  -0.750  -0.723  -0.712  -0.705  -0.697  -0.687  -0.660
 -0.653  -0.613  -0.590  -0.573  -0.541  -0.535  -0.531  -0.518
 -0.508  -0.504  -0.485  -0.471  -0.457  -0.455  -0.448  -0.435
 -0.429  -0.424  -0.417  -0.414  -0.410  -0.404  -0.401  -0.396
 -0.392  -0.379  -0.370  -0.365  -0.359  -0.353  -0.349  -0.343
 -0.341  -0.337  -0.331  -0.327  -0.321  -0.319  -0.316  -0.304
 -0.299  -0.298  -0.298  -0.289  -0.280  -0.278  -0.274  -0.267
 -0.262  -0.255  -0.252  -0.243  -0.235  -0.230  -0.217  -0.190
 -0.181  -0.165  -0.164  -0.156  -0.154  -0.143  -0.142  -0.141
 -0.128

          Ground-State Mulliken Net Atomic Charges

     Atom                 Charge (a.u.)
  ----------------------------------------
      1 O                    -0.218537
      2 C                     0.214694
      3 C                    -0.081817
      4 C                    -0.079370
      5 C                     0.217430
      6 O                    -0.166308
      7 C                    -0.053271
      8 C                    -0.052036
      9 O                    -0.168312
     10 C                     0.217640
     11 C                    -0.086607
     12 C                    -0.079149
     13 C                     0.214820
     14 O                    -0.208769
     15 O                    -0.176344
     16 O                    -0.167771
     17 O                    -0.229109
     18 C                    -0.127777
     19 C                     0.018298
     20 C                    -0.143599
     21 C                    -0.144723
     22 C                     0.024635
     23 O                    -0.192724
     24 H                     0.098373
     25 H                     0.085676
     26 H                     0.102001
     27 H                     0.083163
     28 H                     0.077952
     29 H                     0.074465
     30 H                     0.069759
     31 H                     0.082950
     32 O                    -0.212070
     33 C                    -0.128770
     34 C                     0.024866
     35 C                    -0.144443
     36 C                    -0.144081
     37 C                     0.012147
     38 O                    -0.197716
     39 H                     0.083694
     40 H                     0.087730
     41 H                     0.092221
     42 H                     0.086242
     43 H                     0.076519
     44 H                     0.072359
     45 H                     0.078116
     46 H                     0.073026
     47 H                     0.107221
     48 H                     0.086677
     49 H                     0.086085
     50 H                     0.091697
     51 H                     0.091277
     52 H                     0.089953
     53 H                     0.102438
     54 H                     0.089101
     55 H                     0.100464
     56 H                     0.089611
  ----------------------------------------
  Sum of atomic charges =    -0.000000

                    Cartesian Multipole Moments
 -----------------------------------------------------------------
    Charge (ESU x 10^10)
                 0.0000
    Dipole Moment (Debye)
         X      -0.4555      Y      -0.2640      Z      -0.8855
       Tot       1.0302
    Quadrupole Moments (Debye-Ang)
        XX    -141.2486     XY       0.0903     YY    -154.7411
        XZ      -1.9092     YZ      -6.8038     ZZ    -157.9641

 Total job time:  119.58s(wall), 5700.77s(cpu)
        *  Thank you very much for using Q-Chem.  Have a nice day.  *
