 Q-Chem 5.0, Q-Chem, Inc., Pleasanton, CA (2017)
 Q-Chem 5.0.1 for Intel X86 EM64T Linux

User input:
--------------------------------------------------------------
$molecule
0  1
O -3.94934 -3.66094 2.70899
C -3.26408 -4.56952 2.26188
C -3.36658 -6.02376 2.66595
C -2.32855 -6.54847 3.67145
C -1.41388 -5.51824 4.29603
O -1.016 -5.93993 5.53267
C -0.1358 -5.01888 6.18549
C 0.3768 -5.61735 7.49132
O -0.43442 -5.16713 8.58772
C -1.54665 -5.90389 8.83119
C -2.33484 -5.40461 10.01868
C -1.87222 -5.94923 11.37796
C -0.50671 -6.60629 11.39648
O 0.20809 -6.78312 10.4206
O -2.28323 -4.27183 1.36871
O -0.06663 -7.02779 12.61154
O -1.97599 -6.76385 8.07398
C 1.14897 -7.64225 12.8276
C -2.24646 -3.88592 10.27487
C -3.4653 -3.42536 11.07296
C -3.16729 -4.04046 12.42575
C -1.77577 -4.62751 12.16237
O -1.20945 -3.75164 11.21612
H -3.39911 -5.67185 9.82539
H -2.59152 -6.67888 11.81088
H -2.14805 -3.28808 9.3424
H -3.39375 -2.3176 11.16343
H -4.45191 -3.69282 10.63718
H -3.11425 -3.2225 13.1782
H -3.88278 -4.82232 12.76107
H -1.21699 -4.73777 13.11768
O -1.1161 -4.43077 3.81769
C -2.02316 -3.0031 0.89434
C -4.68074 -6.29225 3.43275
C -5.06003 -7.7662 3.3221
C -4.01093 -8.38544 4.21211
C -3.31146 -7.12357 4.73219
O -4.33023 -6.16097 4.78359
H -3.40617 -6.61026 1.72066
H -1.6826 -7.36295 3.2768
H -1.74967 -2.32872 1.73385
H -5.53232 -5.6656 3.08669
H -6.05514 -7.88744 3.80765
H -5.10502 -8.16912 2.28744
H -4.52799 -8.9162 5.04277
H -3.3012 -9.0748 3.7057
H -2.84068 -7.37553 5.70304
H -2.91424 -2.60239 0.36545
H -1.17445 -3.04823 0.18154
H 1.25032 -7.87881 13.9066
H 1.97802 -6.96499 12.53026
H 1.20887 -8.58738 12.24663
H 0.57782 -6.71204 7.46805
H 1.36015 -5.13169 7.67209
H -0.57918 -4.00893 6.34003
H 0.75901 -4.91388 5.52761
$end

$opt
CONSTRAINT
tors           1           2           3           4    -100.194
tors           3           4           5           6    +151.913
tors           4           5           6           7    +179.532
tors           5           6           7           8    -174.252
tors           6           7           8           9     -95.532
tors           7           8           9          10     +86.267
tors           8           9          10          11    +178.336
tors           9          10          11          12     -85.901
tors          11          12          13          14      -3.424
ENDCONSTRAINT
$end

$rem
JOBTYPE                   OPT
METHOD                    B3LYP
DFT_D                     d3_op
BASIS                     STO-3G
GEOM_OPT_MAX_CYCLES       100
GEOM_OPT_TOL_GRADIENT     300
GEOM_OPT_TOL_DISPLACEMENT 1200
GEOM_OPT_TOL_ENERGY       100
SYMMETRY                  False
THRESH                    12
SCF_CONVERGENCE           8
MAX_SUB_FILE_NUM          128
MEM_STATIC                400
MEM_TOTAL                 4000
$end
--------------------------------------------------------------

   15   -1510.1548312522      6.82E-09 Convergence criterion met
 Total energy in the final basis set = -1510.15483125
   13   -1510.2242304026      7.17E-09 Convergence criterion met
 Total energy in the final basis set = -1510.22423040
   14   -1510.2612635112      6.34E-09 Convergence criterion met
 Total energy in the final basis set = -1510.26126351
   14   -1510.2773562862      6.22E-09 Convergence criterion met
 Total energy in the final basis set = -1510.27735629
   14   -1510.2826638961      4.48E-09 Convergence criterion met
 Total energy in the final basis set = -1510.28266390
    2   -1510.2826638961      1.34E-09 Convergence criterion met
 Total energy in the final basis set = -1510.28266390
   13   -1510.2844521437      3.90E-09 Convergence criterion met
 Total energy in the final basis set = -1510.28445214
   13   -1510.2851955859      1.42E-09 Convergence criterion met
   12   -1510.2859092794      3.65E-09 Convergence criterion met
 Total energy in the final basis set = -1510.28590928
   11   -1510.2859276098      5.13E-09 Convergence criterion met
 Total energy in the final basis set = -1510.28592761
   10   -1510.2859388071      8.41E-09 Convergence criterion met
 Total energy in the final basis set = -1510.28593881
   10   -1510.2859460772      7.44E-09 Convergence criterion met
 Total energy in the final basis set = -1510.28594608
    9   -1510.2859518394      6.09E-09 Convergence criterion met
 Total energy in the final basis set = -1510.28595184
    9   -1510.2859547986      4.46E-09 Convergence criterion met
 Total energy in the final basis set = -1510.28595480

             Standard Nuclear Orientation (Angstroms)
    I     Atom           X                Y                Z
 ----------------------------------------------------------------
    1      O       4.8705052736    -1.8508191694     0.6370932504
    2      C       5.0741237520    -0.8033324879    -0.0130097395
    3      C       4.5924660588     0.6503414378     0.3360170371
    4      C       3.3068492442     1.1146379055    -0.4659985174
    5      C       2.6344565159    -0.0572344713    -1.2714615543
    6      O       1.2502915450     0.2508768271    -1.3785512890
    7      C       0.4927785942    -0.7732619607    -2.1302010795
    8      C      -0.9603996677    -0.1895611804    -2.2699929756
    9      O      -1.8545827235    -0.6981453880    -1.2072498797
   10      C      -1.7423065677     0.1277278204    -0.0337659706
   11      C      -2.7342867777    -0.4101691226     1.0633228895
   12      C      -4.2080353278     0.1577384064     0.9426406435
   13      C      -4.3988593324     1.1219160991    -0.2758935293
   14      O      -3.5250198406     1.5119747286    -1.0829137574
   15      O       5.9124723107    -0.7198729493    -1.1750478918
   16      O      -5.7719322981     1.5114965094    -0.3365726883
   17      O      -0.9105549741     1.0504519240     0.1094261154
   18      C      -5.9933878033     2.4147658232    -1.4902814287
   19      C      -3.0088745949    -1.9693511567     0.9386116921
   20      C      -3.6468013611    -2.4715567134     2.2947149024
   21      C      -5.1110730582    -1.9087143834     2.1710263386
   22      C      -5.0402821808    -1.1872902768     0.7677157334
   23      O      -4.1339618857    -2.0480269281    -0.0230718642
   24      H      -2.3017817631    -0.1507681014     2.0456642632
   25      H      -4.5150170195     0.6945070840     1.8586815238
   26      H      -2.1467940697    -2.5600461434     0.5747270984
   27      H      -3.6392017672    -3.5722494768     2.3386520698
   28      H      -3.1120751169    -2.0791031729     3.1743313575
   29      H      -5.8561268241    -2.7200400837     2.1488838596
   30      H      -5.3712780403    -1.2113353179     2.9831930352
   31      H      -6.0104734344    -1.0546860894     0.2504381853
   32      O       3.1664606920    -1.0966412410    -1.7212378892
   33      C       6.3026628146    -2.0799145914    -1.6068409667
   34      C       4.0804218366     0.7861053507     1.8313667652
   35      C       4.1234626806     2.3157577806     2.2196423683
   36      C       2.9066441842     2.8693178631     1.3868562042
   37      C       2.3501054463     1.5461281320     0.7297536881
   38      O       2.6301060047     0.5009330713     1.7427033428
   39      H       5.4330143576     1.3380629612     0.1349407296
   40      H       3.5266694078     1.9486904025    -1.1574735939
   41      H       5.4166221314    -2.6611282186    -1.9356392512
   42      H       4.5675905834     0.0928983977     2.5441336627
   43      H       3.9610487676     2.4414695093     3.3021093242
   44      H       5.0797140567     2.7905060076     1.9479987469
   45      H       2.1442338890     3.3256425097     2.0377933231
   46      H       3.2107510071     3.6092061527     0.6290677387
   47      H       1.2722261403     1.5464199320     0.4614527155
   48      H       6.8121432343    -2.6387535210    -0.7953146113
   49      H       6.9947009738    -1.9471033114    -2.4587026468
   50      H      -7.0661143849     2.6808484998    -1.4668476166
   51      H      -5.7554023303     1.9133792782    -2.4506071700
   52      H      -5.3794673651     3.3350021398    -1.4108530264
   53      H      -0.9069880077     0.9197362682    -2.2521274481
   54      H      -1.4109554384    -0.5298765902    -3.2243616323
   55      H       0.4722615301    -1.7428881376    -1.5852995053
   56      H       0.9487003084    -0.9451357539    -3.1300183372
 ----------------------------------------------------------------

    9   -1510.2859551669      5.21E-09 Convergence criterion met
 Total energy in the final basis set = -1510.28595517
 Final energy is   -1510.28595516686
 **  OPTIMIZATION CONVERGED  **

                    Orbital Energies (a.u.)
 --------------------------------------------------------------

 Alpha MOs
 -- Occupied --
-18.944 -18.933 -18.922 -18.915 -18.888 -18.887 -18.874 -18.873
-18.864 -18.855 -10.107 -10.097 -10.093 -10.084 -10.071 -10.071
-10.068 -10.061 -10.058 -10.048 -10.048 -10.042 -10.041 -10.034
-10.029 -10.024 -10.020 -10.018 -10.011 -10.009  -1.021  -1.013
 -0.999  -0.992  -0.970  -0.958  -0.944  -0.936  -0.927  -0.918
 -0.763  -0.752  -0.725  -0.718  -0.710  -0.701  -0.687  -0.667
 -0.648  -0.611  -0.593  -0.574  -0.545  -0.537  -0.534  -0.527
 -0.513  -0.506  -0.485  -0.474  -0.462  -0.449  -0.445  -0.443
 -0.433  -0.421  -0.418  -0.417  -0.412  -0.405  -0.398  -0.395
 -0.392  -0.379  -0.374  -0.363  -0.357  -0.355  -0.348  -0.340
 -0.338  -0.334  -0.330  -0.326  -0.325  -0.322  -0.314  -0.312
 -0.305  -0.303  -0.299  -0.296  -0.291  -0.281  -0.276  -0.268
 -0.264  -0.261  -0.248  -0.243  -0.238  -0.234  -0.222  -0.187
 -0.176  -0.166  -0.161  -0.159  -0.151  -0.145  -0.141  -0.136
 -0.133

          Ground-State Mulliken Net Atomic Charges

     Atom                 Charge (a.u.)
  ----------------------------------------
      1 O                    -0.218311
      2 C                     0.212850
      3 C                    -0.082268
      4 C                    -0.077363
      5 C                     0.213691
      6 O                    -0.168357
      7 C                    -0.047620
      8 C                    -0.047174
      9 O                    -0.171241
     10 C                     0.217127
     11 C                    -0.081504
     12 C                    -0.078404
     13 C                     0.214476
     14 O                    -0.207761
     15 O                    -0.173347
     16 O                    -0.169016
     17 O                    -0.216539
     18 C                    -0.128104
     19 C                     0.026840
     20 C                    -0.144256
     21 C                    -0.143670
     22 C                     0.025121
     23 O                    -0.187862
     24 H                     0.085332
     25 H                     0.087081
     26 H                     0.087177
     27 H                     0.078236
     28 H                     0.074707
     29 H                     0.078074
     30 H                     0.073615
     31 H                     0.086254
     32 O                    -0.213561
     33 C                    -0.128125
     34 C                     0.024001
     35 C                    -0.143711
     36 C                    -0.145093
     37 C                     0.017595
     38 O                    -0.193324
     39 H                     0.082319
     40 H                     0.084261
     41 H                     0.092325
     42 H                     0.085174
     43 H                     0.075554
     44 H                     0.071109
     45 H                     0.077092
     46 H                     0.071061
     47 H                     0.107805
     48 H                     0.085964
     49 H                     0.085191
     50 H                     0.092313
     51 H                     0.091049
     52 H                     0.091044
     53 H                     0.103997
     54 H                     0.088551
     55 H                     0.091974
     56 H                     0.087648
  ----------------------------------------
  Sum of atomic charges =     0.000000

                    Cartesian Multipole Moments
 -----------------------------------------------------------------
    Charge (ESU x 10^10)
                 0.0000
    Dipole Moment (Debye)
         X      -2.3870      Y       1.8466      Z      -0.4122
       Tot       3.0459
    Quadrupole Moments (Debye-Ang)
        XX    -144.1127     XY       1.0397     YY    -157.6672
        XZ      -4.0194     YZ      -0.6632     ZZ    -152.3160

 Total job time:  51.73s(wall), 2459.09s(cpu)
        *  Thank you very much for using Q-Chem.  Have a nice day.  *
