 Q-Chem 5.0, Q-Chem, Inc., Pleasanton, CA (2017)
 Q-Chem 5.0.1 for Intel X86 EM64T Linux

User input:
--------------------------------------------------------------
$molecule
0  1
O 4.8705052736 -1.8508191694 0.6370932504
C 5.074123752 -0.8033324879 -0.0130097395
C 4.5924660588 0.6503414378 0.3360170371
C 3.3068492442 1.1146379055 -0.4659985174
C 2.6344565159 -0.0572344713 -1.2714615543
O 1.250291545 0.2508768271 -1.378551289
C 0.4927785942 -0.7732619607 -2.1302010795
C -0.9603996677 -0.1895611804 -2.2699929756
O -1.8545827235 -0.698145388 -1.2072498797
C -1.7423065677 0.1277278204 -0.0337659706
C -2.7342867777 -0.4101691226 1.0633228895
C -4.2080353278 0.1577384064 0.9426406435
C -4.3988593324 1.1219160991 -0.2758935293
O -3.5250198406 1.5119747286 -1.0829137574
O 5.9124723107 -0.7198729493 -1.1750478918
O -5.7719322981 1.5114965094 -0.3365726883
O -0.9105549741 1.050451924 0.1094261154
C -5.9933878033 2.4147658232 -1.4902814287
C -3.0088745949 -1.9693511567 0.9386116921
C -3.6468013611 -2.4715567134 2.2947149024
C -5.1110730582 -1.9087143834 2.1710263386
C -5.0402821808 -1.1872902768 0.7677157334
O -4.1339618857 -2.0480269281 -0.0230718642
H -2.3017817631 -0.1507681014 2.0456642632
H -4.5150170195 0.694507084 1.8586815238
H -2.1467940697 -2.5600461434 0.5747270984
H -3.6392017672 -3.5722494768 2.3386520698
H -3.1120751169 -2.0791031729 3.1743313575
H -5.8561268241 -2.7200400837 2.1488838596
H -5.3712780403 -1.2113353179 2.9831930352
H -6.0104734344 -1.0546860894 0.2504381853
O 3.166460692 -1.096641241 -1.7212378892
C 6.3026628146 -2.0799145914 -1.6068409667
C 4.0804218366 0.7861053507 1.8313667652
C 4.1234626806 2.3157577806 2.2196423683
C 2.9066441842 2.8693178631 1.3868562042
C 2.3501054463 1.546128132 0.7297536881
O 2.6301060047 0.5009330713 1.7427033428
H 5.4330143576 1.3380629612 0.1349407296
H 3.5266694078 1.9486904025 -1.1574735939
H 5.4166221314 -2.6611282186 -1.9356392512
H 4.5675905834 0.0928983977 2.5441336627
H 3.9610487676 2.4414695093 3.3021093242
H 5.0797140567 2.7905060076 1.9479987469
H 2.144233889 3.3256425097 2.0377933231
H 3.2107510071 3.6092061527 0.6290677387
H 1.2722261403 1.546419932 0.4614527155
H 6.8121432343 -2.638753521 -0.7953146113
H 6.9947009738 -1.9471033114 -2.4587026468
H -7.0661143849 2.6808484998 -1.4668476166
H -5.7554023303 1.9133792782 -2.45060717
H -5.3794673651 3.3350021398 -1.4108530264
H -0.9069880077 0.9197362682 -2.2521274481
H -1.4109554384 -0.5298765902 -3.2243616323
H 0.4722615301 -1.7428881376 -1.5852995053
H 0.9487003084 -0.9451357539 -3.1300183372
$end

$rem
JOBTYPE                   OPT
METHOD                    B3LYP
DFT_D                     d3_op
BASIS                     STO-3G
GEOM_OPT_MAX_CYCLES       100
GEOM_OPT_TOL_GRADIENT     300
GEOM_OPT_TOL_DISPLACEMENT 1200
GEOM_OPT_TOL_ENERGY       100
SYMMETRY                  False
THRESH                    12
SCF_CONVERGENCE           8
MAX_SUB_FILE_NUM          128
MEM_STATIC                400
MEM_TOTAL                 4000
$end
--------------------------------------------------------------

   16   -1510.2859731187      5.35E-09 Convergence criterion met
 Total energy in the final basis set = -1510.28597312
   13   -1510.2875819149      8.02E-09 Convergence criterion met
 Total energy in the final basis set = -1510.28758191
   13   -1510.2886717636      9.40E-09 Convergence criterion met
 Total energy in the final basis set = -1510.28867176
   14   -1510.2895945544      1.65E-09 Convergence criterion met
 Total energy in the final basis set = -1510.28959455
   13   -1510.2904766181      8.78E-09 Convergence criterion met
 Total energy in the final basis set = -1510.29047662
   14   -1510.2918590164      2.15E-09 Convergence criterion met
 Total energy in the final basis set = -1510.29185902
   14   -1510.2935158221      4.09E-09 Convergence criterion met
 Total energy in the final basis set = -1510.29351582
   14   -1510.2950029447      3.03E-09 Convergence criterion met
   13   -1510.3063275042      4.62E-09 Convergence criterion met
 Total energy in the final basis set = -1510.30632750
   12   -1510.3064410359      5.62E-09 Convergence criterion met
 Total energy in the final basis set = -1510.30644104
   12   -1510.3064717138      6.44E-09 Convergence criterion met
 Total energy in the final basis set = -1510.30647171
   12   -1510.3064606232      7.39E-09 Convergence criterion met
 Total energy in the final basis set = -1510.30646062
   12   -1510.3064792073      3.39E-09 Convergence criterion met
 Total energy in the final basis set = -1510.30647921
   11   -1510.3064822030      2.03E-09 Convergence criterion met
 Total energy in the final basis set = -1510.30648220

             Standard Nuclear Orientation (Angstroms)
    I     Atom           X                Y                Z
 ----------------------------------------------------------------
    1      O       1.9676905293    -1.6967575466     1.8852528465
    2      C       2.7988759243    -1.0737097803     1.1880387616
    3      C       2.9826335717     0.4853626186     1.1057323405
    4      C       2.4517986970     1.1377430754    -0.2364845164
    5      C       1.8795096209     0.0920748671    -1.2507282649
    6      O       1.7301392522     0.7346516843    -2.5194747189
    7      C       1.0810417547    -0.1622518860    -3.5093874105
    8      C      -0.4774128516     0.0734600208    -3.5571900709
    9      O      -1.1047930038    -0.4747665019    -2.3362809412
   10      C      -1.1303154313     0.5235359187    -1.3038518412
   11      C      -1.3183509721    -0.1551001160     0.1013133173
   12      C      -2.7160468922     0.1367539022     0.7759284622
   13      C      -3.7108110479     0.7875857026    -0.2371000306
   14      O      -3.5363031278     0.9103285849    -1.4724453695
   15      O       3.8488015300    -1.6944640593     0.4373577346
   16      O      -4.8909893578     1.2040374974     0.4497630978
   17      O      -0.8442241613     1.7296987180    -1.5161069889
   18      C      -5.8587438448     1.7863806889    -0.5097288136
   19      C      -1.3239378822    -1.7415316772     0.0531882486
   20      C      -0.9608038847    -2.2792192864     1.4865155764
   21      C      -2.2594455097    -1.8918568436     2.2847405461
   22      C      -3.1835986790    -1.3429219265     1.1219441585
   23      O      -2.7603366943    -2.0954336048    -0.0788995803
   24      H      -0.4896888058     0.2368535111     0.7411957206
   25      H      -2.6371714892     0.7694491672     1.6779918996
   26      H      -0.7340540939    -2.1655061177    -0.7809589374
   27      H      -0.8350633144    -3.3732093703     1.4497781144
   28      H      -0.0263285412    -1.8345836184     1.8759942944
   29      H      -2.7197543620    -2.7664035182     2.7714559277
   30      H      -2.0734398088    -1.1197306327     3.0482414843
   31      H      -4.2735477515    -1.4477597727     1.2896379906
   32      O       1.5843314594    -1.1027011111    -1.0163608974
   33      C       3.6550640036    -3.1621613632     0.4307616055
   34      C       2.0654050429     1.2045857098     2.1769350300
   35      C       2.5422932613     2.7002406510     2.3305101170
   36      C       1.9945465931     3.3388817129     0.9977943542
   37      C       1.3046962112     2.0964448900     0.3191917381
   38      O       0.7673518758     1.3366474280     1.4740149426
   39      H       4.0531370335     0.7152075610     1.2528510964
   40      H       3.2363407379     1.7235890533    -0.7469403498
   41      H       2.7110349171    -3.4355780660    -0.0837677367
   42      H       1.9382915702     0.6363591812     3.1187959300
   43      H       2.0839648397     3.1628930615     3.2191069817
   44      H       3.6379604357     2.7755248968     2.4184327660
   45      H       1.2523774436     4.1265629155     1.2032852052
   46      H       2.7939646831     3.7610409961     0.3688205863
   47      H       0.4777619405     2.2835724691    -0.4104513266
   48      H       3.6312659337    -3.5769479401     1.4591295320
   49      H       4.5150671328    -3.5837053044    -0.1213511209
   50      H      -6.7151681867     2.1359769500     0.0956572823
   51      H      -6.2073907175     1.0320589635    -1.2447243839
   52      H      -5.4189159060     2.6408620419    -1.0631485771
   53      H      -0.6909949257     1.1598743455    -3.6482729186
   54      H      -0.9073398526    -0.4775329192    -4.4181440386
   55      H       1.2879525473    -1.2228770940    -3.2514004474
   56      H       1.5265373627     0.0853167280    -4.4947359125
 ----------------------------------------------------------------

   10   -1510.3064831635      8.53E-09 Convergence criterion met
 Total energy in the final basis set = -1510.30648316
 Final energy is   -1510.30648316347
 **  OPTIMIZATION CONVERGED  **

                    Orbital Energies (a.u.)
 --------------------------------------------------------------

 Alpha MOs
 -- Occupied --
-18.940 -18.936 -18.927 -18.922 -18.896 -18.885 -18.877 -18.868
-18.867 -18.857 -10.107 -10.097 -10.096 -10.090 -10.073 -10.066
-10.063 -10.062 -10.058 -10.047 -10.045 -10.039 -10.037 -10.033
-10.025 -10.021 -10.018 -10.005 -10.002  -9.988  -1.021  -1.011
 -1.004  -0.997  -0.975  -0.952  -0.944  -0.935  -0.930  -0.924
 -0.764  -0.745  -0.725  -0.714  -0.704  -0.700  -0.684  -0.658
 -0.657  -0.614  -0.590  -0.572  -0.545  -0.538  -0.529  -0.517
 -0.511  -0.500  -0.484  -0.470  -0.462  -0.454  -0.449  -0.438
 -0.430  -0.426  -0.417  -0.414  -0.408  -0.406  -0.402  -0.395
 -0.391  -0.378  -0.368  -0.366  -0.358  -0.355  -0.351  -0.345
 -0.343  -0.340  -0.332  -0.328  -0.324  -0.316  -0.313  -0.306
 -0.305  -0.302  -0.293  -0.287  -0.283  -0.276  -0.273  -0.271
 -0.260  -0.254  -0.250  -0.247  -0.234  -0.233  -0.213  -0.191
 -0.177  -0.170  -0.164  -0.154  -0.152  -0.150  -0.148  -0.141
 -0.126

          Ground-State Mulliken Net Atomic Charges

     Atom                 Charge (a.u.)
  ----------------------------------------
      1 O                    -0.219073
      2 C                     0.219061
      3 C                    -0.082147
      4 C                    -0.080281
      5 C                     0.211587
      6 O                    -0.168891
      7 C                    -0.053721
      8 C                    -0.051958
      9 O                    -0.168935
     10 C                     0.217317
     11 C                    -0.098923
     12 C                    -0.078342
     13 C                     0.214327
     14 O                    -0.207259
     15 O                    -0.173064
     16 O                    -0.167975
     17 O                    -0.234210
     18 C                    -0.128133
     19 C                     0.022256
     20 C                    -0.152069
     21 C                    -0.144731
     22 C                     0.024220
     23 O                    -0.196059
     24 H                     0.112511
     25 H                     0.086685
     26 H                     0.091342
     27 H                     0.070054
     28 H                     0.095808
     29 H                     0.072613
     30 H                     0.071377
     31 H                     0.079094
     32 O                    -0.211672
     33 C                    -0.128285
     34 C                     0.026148
     35 C                    -0.143843
     36 C                    -0.143965
     37 C                     0.009609
     38 O                    -0.192852
     39 H                     0.085417
     40 H                     0.088055
     41 H                     0.093659
     42 H                     0.088316
     43 H                     0.078116
     44 H                     0.073595
     45 H                     0.079431
     46 H                     0.074259
     47 H                     0.114786
     48 H                     0.088182
     49 H                     0.087572
     50 H                     0.090839
     51 H                     0.089926
     52 H                     0.091064
     53 H                     0.102008
     54 H                     0.089956
     55 H                     0.097983
     56 H                     0.089212
  ----------------------------------------
  Sum of atomic charges =    -0.000000

                    Cartesian Multipole Moments
 -----------------------------------------------------------------
    Charge (ESU x 10^10)
                -0.0000
    Dipole Moment (Debye)
         X       1.8342      Y       1.2899      Z      -0.0780
       Tot       2.2437
    Quadrupole Moments (Debye-Ang)
        XX    -146.2250     XY      -4.4177     YY    -158.4659
        XZ      -1.0770     YZ       3.2226     ZZ    -152.2876

 Total job time:  106.07s(wall), 5045.60s(cpu)
        *  Thank you very much for using Q-Chem.  Have a nice day.  *
