 Q-Chem 5.0, Q-Chem, Inc., Pleasanton, CA (2017)
 Q-Chem 5.0.1 for Intel X86 EM64T Linux

User input:
--------------------------------------------------------------
$molecule
0  1
O -5.3258378272 -0.1775485916 1.775589825
C -5.2573596128 0.3037232278 0.6245934735
C -4.6606667826 -0.3735843595 -0.6625498874
C -3.2479342068 0.187478401 -1.1018993478
C -2.6051072693 1.1132883529 -0.0060278424
O -1.1983523343 1.1106171973 -0.2139825249
C -0.4878470693 1.9663221661 0.7636805744
C 0.9544226604 2.1861732281 0.1806652654
O 1.8943304913 1.1546496201 0.6732580568
C 1.8480770979 -0.0073455612 -0.1726986166
C 2.8976392407 -1.0585340773 0.3477031186
C 4.3652718855 -0.8533930163 -0.2103006077
C 4.5030232705 0.416240338 -1.1168208221
O 3.582096182 1.155165567 -1.532582725
O -5.8776842386 1.5347060487 0.2212520288
O 5.88323131 0.6102789524 -1.4291132353
O 1.0247281175 -0.1838859995 -1.0967202042
C 6.044720868 1.805440587 -2.2903169775
C 3.158420825 -0.9621052711 1.9112763213
C 3.838269671 -2.3080413196 2.3832949142
C 5.2957427058 -2.1269535949 1.8179317243
C 5.1857061883 -0.7025193861 1.1433817671
O 4.2510004099 0.0327098962 2.0234882441
H 2.5172926945 -2.0559763317 0.064294092
H 4.7094378595 -1.7303235261 -0.7887026005
H 2.2805350989 -0.6419900407 2.5040975363
H 3.8369922095 -2.3735005332 3.482973022
H 3.3292185729 -3.1959988718 1.9756144149
H 6.0449132988 -2.1138728802 2.625567491
H 5.571903852 -2.9078969754 1.0916439758
H 6.1400528404 -0.1518798655 1.0327195559
O -3.184246924 1.7248014373 0.9200710549
C -6.3962467759 2.2431171886 1.4114525959
C -4.3197665374 -1.910888847 -0.4560266008
C -4.2738955246 -2.5885867127 -1.8802829983
C -2.9318167294 -1.9933513781 -2.4494364686
C -2.4123534949 -1.1575694376 -1.21355833
O -2.8981387052 -1.9171461567 -0.0366804922
H -5.393421374 -0.2348804473 -1.4775440708
H -3.2947825934 0.7374836144 -2.0596762888
H -5.571445404 2.5280999352 2.0961902035
H -4.9474898159 -2.4182768436 0.3020049985
H -4.2175638501 -3.6845139254 -1.7814408276
H -5.1510229134 -2.3335957327 -2.4962885481
H -2.2131039208 -2.7863997642 -2.7097155052
H -3.0926041328 -1.3591452267 -3.3359297396
H -1.3153224872 -0.9997172404 -1.1638799076
H -7.1248233352 1.6235010514 1.9736403596
H -6.896588655 3.1540726855 1.0344197152
H 7.1268667833 1.883919434 -2.5021304045
H 5.6983415458 2.7258549271 -1.7774161316
H 5.4851960229 1.7001103771 -3.2421447948
H 0.9035176487 2.1866794719 -0.9289197205
H 1.358834102 3.1541062928 0.5404560456
H -0.4299580729 1.4692759104 1.7573321289
H -1.0174514609 2.9357408172 0.890555824
$end

$rem
JOBTYPE                   OPT
METHOD                    B3LYP
DFT_D                     d3_op
BASIS                     STO-3G
GEOM_OPT_MAX_CYCLES       100
GEOM_OPT_TOL_GRADIENT     300
GEOM_OPT_TOL_DISPLACEMENT 1200
GEOM_OPT_TOL_ENERGY       100
SYMMETRY                  False
THRESH                    12
SCF_CONVERGENCE           8
MAX_SUB_FILE_NUM          128
MEM_STATIC                400
MEM_TOTAL                 4000
$end
--------------------------------------------------------------

   16   -1510.2859326146      5.24E-09 Convergence criterion met
 Total energy in the final basis set = -1510.28593261
   13   -1510.2869424504      8.25E-09 Convergence criterion met
 Total energy in the final basis set = -1510.28694245
   14   -1510.2881091687      3.46E-09 Convergence criterion met
 Total energy in the final basis set = -1510.28810917
   14   -1510.2890675259      3.42E-09 Convergence criterion met
 Total energy in the final basis set = -1510.28906753
   14   -1510.2900519574      2.60E-09 Convergence criterion met
 Total energy in the final basis set = -1510.29005196
   14   -1510.2910490183      1.91E-09 Convergence criterion met
 Total energy in the final basis set = -1510.29104902
   14   -1510.2929728016      2.33E-09 Convergence criterion met
 Total energy in the final basis set = -1510.29297280
   14   -1510.2743929015      4.13E-09 Convergence criterion met
   11   -1510.3051435044      7.56E-09 Convergence criterion met
 Total energy in the final basis set = -1510.30514350
   12   -1510.3051406434      3.09E-09 Convergence criterion met
 Total energy in the final basis set = -1510.30514064
   11   -1510.3051485656      6.96E-09 Convergence criterion met
 Total energy in the final basis set = -1510.30514857
    9   -1510.3051467800      9.56E-09 Convergence criterion met
 Total energy in the final basis set = -1510.30514678
    9   -1510.3051444928      6.93E-09 Convergence criterion met
 Total energy in the final basis set = -1510.30514449
   10   -1510.3051398088      8.59E-09 Convergence criterion met
 Total energy in the final basis set = -1510.30513981

             Standard Nuclear Orientation (Angstroms)
    I     Atom           X                Y                Z
 ----------------------------------------------------------------
    1      O      -2.0892176955    -1.1938795766     2.2517543502
    2      C      -2.8967592555    -0.6441778263     1.4734830227
    3      C      -3.1821015853    -1.0138314997    -0.0299452198
    4      C      -2.5972401174     0.0175518253    -1.0807099132
    5      C      -1.8343874519     1.2093276874    -0.4151235788
    6      O      -1.6083605467     2.2178438791    -1.3979077452
    7      C      -0.7794716394     3.3198392061    -0.8463000489
    8      C       0.7451104665     3.0922495041    -1.1669984151
    9      O       1.2725657289     1.9541468139    -0.3838172280
   10      C       1.2138266246     0.7505229889    -1.1652246536
   11      C       1.5233849829    -0.4928922991    -0.2573201234
   12      C       3.0582361968    -0.7904079826    -0.0313863321
   13      C       3.9729995691     0.2527170522    -0.7519548763
   14      O       3.6051303974     1.1330795493    -1.5645115477
   15      O      -3.8349814319     0.3715179509     1.8589994715
   16      O       5.3288263138     0.0514034063    -0.3539559919
   17      O       0.7967733803     0.7128714657    -2.3493903045
   18      C       6.2059995064     1.0410887180    -1.0228721365
   19      C       1.0331130459    -0.2872317449     1.2397234958
   20      C       0.9705004494    -1.7078709865     1.9214012533
   21      C       2.4980354811    -2.0044539937     2.1561806477
   22      C       3.1548438855    -0.6995281041     1.5551073915
   23      O       2.1899900344     0.3683882124     1.8945605530
   24      H       0.9993295546    -1.3511597627    -0.7159144568
   25      H       3.3365889491    -1.7994492207    -0.3876235095
   26      H       0.1106097772     0.3264233841     1.3281597182
   27      H       0.4093050853    -1.6534470595     2.8672423586
   28      H       0.4809025993    -2.4472847727     1.2681777557
   29      H       2.7352368896    -2.0933082072     3.2283950609
   30      H       2.8412381019    -2.9159584308     1.6412694948
   31      H       4.1672221675    -0.4556679571     1.9319745041
   32      O      -1.4637479919     1.2944580058     0.7810717167
   33      C      -3.5519649108     0.8103976669     3.2430727366
   34      C      -2.4220556359    -2.3393098910    -0.4525831533
   35      C      -3.0593915105    -2.8728068299    -1.7947205367
   36      C      -2.4697575620    -1.8513609311    -2.8388710827
   37      C      -1.6039438607    -0.9202151785    -1.9064890435
   38      O      -1.0902494289    -1.8493987017    -0.8756542532
   39      H      -4.2755246369    -1.1107303539    -0.1547506468
   40      H      -3.3842145758     0.4321470993    -1.7355398605
   41      H      -2.5463528602     1.2732122353     3.3170131066
   42      H      -2.3188726117    -3.0815226895     0.3627014075
   43      H      -2.7218752292    -3.9011154092    -2.0004471256
   44      H      -4.1605120816    -2.8625376354    -1.7630408721
   45      H      -1.8270079762    -2.3557612950    -3.5777715301
   46      H      -3.2519518863    -1.2915884962    -3.3758495080
   47      H      -0.7539713623    -0.3749893029    -2.3813350561
   48      H      -3.6064613220    -0.0332626319     3.9612452030
   49      H      -4.3246296712     1.5606672573     3.4927799350
   50      H       7.2350195289     0.8078476799    -0.6930704139
   51      H       5.9467658225     2.0783097357    -0.7273687603
   52      H       6.1411642418     0.9624232316    -2.1272616244
   53      H       0.8722912890     2.8973160767    -2.2532860235
   54      H       1.3201587515     3.9914317574    -0.8654498933
   55      H      -0.9251238323     3.3839728942     0.2530358767
   56      H      -1.1304565343     4.2511021407    -1.3360497948
 ----------------------------------------------------------------

    9   -1510.3051386808      4.88E-09 Convergence criterion met
 Total energy in the final basis set = -1510.30513868
 Final energy is   -1510.30513868077
 **  OPTIMIZATION CONVERGED  **

                    Orbital Energies (a.u.)
 --------------------------------------------------------------

 Alpha MOs
 -- Occupied --
-18.943 -18.940 -18.922 -18.919 -18.887 -18.883 -18.881 -18.870
-18.861 -18.859 -10.108 -10.101 -10.090 -10.090 -10.072 -10.066
-10.065 -10.055 -10.053 -10.047 -10.046 -10.037 -10.031 -10.031
-10.030 -10.017 -10.016 -10.015 -10.005  -9.996  -1.022  -1.015
 -0.999  -0.997  -0.968  -0.953  -0.944  -0.939  -0.925  -0.924
 -0.760  -0.750  -0.723  -0.712  -0.705  -0.698  -0.687  -0.660
 -0.653  -0.613  -0.589  -0.573  -0.541  -0.535  -0.531  -0.518
 -0.508  -0.504  -0.485  -0.471  -0.457  -0.455  -0.448  -0.436
 -0.429  -0.424  -0.417  -0.414  -0.410  -0.404  -0.402  -0.397
 -0.392  -0.379  -0.370  -0.364  -0.359  -0.353  -0.349  -0.343
 -0.341  -0.337  -0.331  -0.327  -0.322  -0.319  -0.316  -0.305
 -0.300  -0.299  -0.298  -0.289  -0.280  -0.278  -0.275  -0.267
 -0.262  -0.255  -0.252  -0.243  -0.235  -0.230  -0.217  -0.190
 -0.181  -0.165  -0.164  -0.156  -0.154  -0.143  -0.142  -0.141
 -0.128

          Ground-State Mulliken Net Atomic Charges

     Atom                 Charge (a.u.)
  ----------------------------------------
      1 O                    -0.218128
      2 C                     0.214829
      3 C                    -0.081626
      4 C                    -0.079416
      5 C                     0.216937
      6 O                    -0.166394
      7 C                    -0.053352
      8 C                    -0.052069
      9 O                    -0.167971
     10 C                     0.217306
     11 C                    -0.087456
     12 C                    -0.079135
     13 C                     0.214863
     14 O                    -0.208429
     15 O                    -0.176444
     16 O                    -0.167668
     17 O                    -0.229765
     18 C                    -0.127840
     19 C                     0.018778
     20 C                    -0.143774
     21 C                    -0.144710
     22 C                     0.024601
     23 O                    -0.192639
     24 H                     0.099183
     25 H                     0.085654
     26 H                     0.101411
     27 H                     0.083128
     28 H                     0.078518
     29 H                     0.074467
     30 H                     0.069790
     31 H                     0.082710
     32 O                    -0.212267
     33 C                    -0.128808
     34 C                     0.024947
     35 C                    -0.144413
     36 C                    -0.144100
     37 C                     0.012180
     38 O                    -0.197835
     39 H                     0.083735
     40 H                     0.087694
     41 H                     0.092305
     42 H                     0.086301
     43 H                     0.076482
     44 H                     0.072530
     45 H                     0.078250
     46 H                     0.073317
     47 H                     0.106989
     48 H                     0.086549
     49 H                     0.086077
     50 H                     0.091749
     51 H                     0.090898
     52 H                     0.090542
     53 H                     0.102450
     54 H                     0.089152
     55 H                     0.100317
     56 H                     0.089598
  ----------------------------------------
  Sum of atomic charges =     0.000000

                    Cartesian Multipole Moments
 -----------------------------------------------------------------
    Charge (ESU x 10^10)
                 0.0000
    Dipole Moment (Debye)
         X      -0.4752      Y       0.3042      Z      -0.9313
       Tot       1.0889
    Quadrupole Moments (Debye-Ang)
        XX    -141.2329     XY       1.1668     YY    -149.3491
        XZ      -1.3078     YZ       1.0478     ZZ    -163.4113

 Total job time:  118.14s(wall), 5618.35s(cpu)
        *  Thank you very much for using Q-Chem.  Have a nice day.  *
