 Q-Chem 5.0, Q-Chem, Inc., Pleasanton, CA (2017)
 Q-Chem 5.0.1 for Intel X86 EM64T Linux

User input:
--------------------------------------------------------------
$molecule
0  1
O -3.94934 -3.66094 2.70899
C -3.26408 -4.56952 2.26188
C -3.36658 -6.02376 2.66595
C -2.26043 -6.57925 3.57793
C -1.27246 -5.57478 4.12841
O -0.70685 -6.05969 5.27313
C 0.25127 -5.16617 5.85011
C 1.10597 -5.90306 6.87607
O 0.51299 -5.78936 8.17927
C -0.41909 -6.72752 8.47965
C -0.96681 -6.58553 9.87983
C -0.14383 -7.28585 10.97095
C 1.25702 -7.70657 10.57432
O 1.71758 -7.65958 9.44284
O -2.31278 -4.27793 1.33495
O 2.02953 -8.21601 11.57021
O -0.89432 -7.50717 7.66453
C 3.32337 -8.662 11.39979
C -1.00287 -5.14304 10.4239
C -2.04846 -5.03506 11.53266
C -1.37183 -5.82169 12.63686
C -0.02202 -6.1223 11.97512
O 0.20171 -5.01274 11.13766
H -2.00754 -6.98223 9.85189
H -0.65118 -8.18133 11.39255
H -1.19587 -4.38152 9.63683
H -2.09222 -3.96413 11.83531
H -3.06938 -5.38004 11.26143
H -1.23855 -5.14991 13.51384
H -1.89281 -6.75385 12.94558
H 0.75196 -6.30665 12.7522
O -1.08565 -4.43732 3.71487
C -2.06945 -3.01271 0.84261
C -4.61802 -6.27342 3.53527
C -5.02479 -7.74308 3.46116
C -3.92405 -8.37376 4.27857
C -3.16058 -7.12198 4.72482
O -4.15571 -6.14099 4.85169
H -3.48643 -6.60161 1.72222
H -1.67245 -7.40916 3.12822
H -1.77025 -2.33157 1.66777
H -5.48596 -5.63626 3.25583
H -5.98495 -7.85156 4.01509
H -5.14569 -8.14653 2.43279
H -4.38662 -8.87634 5.15754
H -3.27306 -9.09014 3.73238
H -2.61409 -7.36763 5.65763
H -2.9773 -2.61692 0.33918
H -1.24374 -3.06265 0.10361
H 3.71493 -9.02277 12.37292
H 3.96916 -7.83291 11.03926
H 3.3466 -9.50064 10.67144
H 1.40402 -6.93572 6.58536
H 2.05002 -5.32136 6.95515
H -0.1997 -4.23009 6.24883
H 0.97404 -4.89218 5.04451
$end

$opt
CONSTRAINT
tors           1           2           3           4    -105.212
tors           3           4           5           6    +156.474
tors           4           5           6           7    +179.532
tors           5           6           7           8    -164.543
tors           6           7           8           9     -91.387
tors           7           8           9          10     +86.728
tors           8           9          10          11    +177.849
tors           9          10          11          12     -85.901
tors          11          12          13          14      -8.038
ENDCONSTRAINT
$end

$rem
JOBTYPE                   OPT
METHOD                    B3LYP
DFT_D                     d3_op
BASIS                     STO-3G
GEOM_OPT_MAX_CYCLES       100
GEOM_OPT_TOL_GRADIENT     300
GEOM_OPT_TOL_DISPLACEMENT 1200
GEOM_OPT_TOL_ENERGY       100
SYMMETRY                  False
THRESH                    12
SCF_CONVERGENCE           8
MAX_SUB_FILE_NUM          128
MEM_STATIC                400
MEM_TOTAL                 4000
$end
--------------------------------------------------------------

   15   -1510.1558557300      7.20E-09 Convergence criterion met
 Total energy in the final basis set = -1510.15585573
   13   -1510.2252532483      7.28E-09 Convergence criterion met
 Total energy in the final basis set = -1510.22525325
   13   -1510.2621685896      1.00E-08 Convergence criterion met
 Total energy in the final basis set = -1510.26216859
   14   -1510.2780351897      5.67E-09 Convergence criterion met
 Total energy in the final basis set = -1510.27803519
   14   -1510.2830581479      3.65E-09 Convergence criterion met
 Total energy in the final basis set = -1510.28305815
   13   -1510.2847251734      3.01E-09 Convergence criterion met
 Total energy in the final basis set = -1510.28472517
   12   -1510.2853607549      9.58E-09 Convergence criterion met
 Total energy in the final basis set = -1510.28536075
   12   -1510.2855948586      4.51E-09 Convergence criterion met
   11   -1510.2858791308      4.02E-09 Convergence criterion met
 Total energy in the final basis set = -1510.28587913
   11   -1510.2858989123      3.68E-09 Convergence criterion met
 Total energy in the final basis set = -1510.28589891
   11   -1510.2859103915      3.10E-09 Convergence criterion met
 Total energy in the final basis set = -1510.28591039
   10   -1510.2859176816      5.97E-09 Convergence criterion met
 Total energy in the final basis set = -1510.28591768
    9   -1510.2859200856      5.13E-09 Convergence criterion met
 Total energy in the final basis set = -1510.28592009
    9   -1510.2859212243      5.05E-09 Convergence criterion met
 Total energy in the final basis set = -1510.28592122

             Standard Nuclear Orientation (Angstroms)
    I     Atom           X                Y                Z
 ----------------------------------------------------------------
    1      O      -5.3258378272    -0.1775485916     1.7755898250
    2      C      -5.2573596128     0.3037232278     0.6245934735
    3      C      -4.6606667826    -0.3735843595    -0.6625498874
    4      C      -3.2479342068     0.1874784010    -1.1018993478
    5      C      -2.6051072693     1.1132883529    -0.0060278424
    6      O      -1.1983523343     1.1106171973    -0.2139825249
    7      C      -0.4878470693     1.9663221661     0.7636805744
    8      C       0.9544226604     2.1861732281     0.1806652654
    9      O       1.8943304913     1.1546496201     0.6732580568
   10      C       1.8480770979    -0.0073455612    -0.1726986166
   11      C       2.8976392407    -1.0585340773     0.3477031186
   12      C       4.3652718855    -0.8533930163    -0.2103006077
   13      C       4.5030232705     0.4162403380    -1.1168208221
   14      O       3.5820961820     1.1551655670    -1.5325827250
   15      O      -5.8776842386     1.5347060487     0.2212520288
   16      O       5.8832313100     0.6102789524    -1.4291132353
   17      O       1.0247281175    -0.1838859995    -1.0967202042
   18      C       6.0447208680     1.8054405870    -2.2903169775
   19      C       3.1584208250    -0.9621052711     1.9112763213
   20      C       3.8382696710    -2.3080413196     2.3832949142
   21      C       5.2957427058    -2.1269535949     1.8179317243
   22      C       5.1857061883    -0.7025193861     1.1433817671
   23      O       4.2510004099     0.0327098962     2.0234882441
   24      H       2.5172926945    -2.0559763317     0.0642940920
   25      H       4.7094378595    -1.7303235261    -0.7887026005
   26      H       2.2805350989    -0.6419900407     2.5040975363
   27      H       3.8369922095    -2.3735005332     3.4829730220
   28      H       3.3292185729    -3.1959988718     1.9756144149
   29      H       6.0449132988    -2.1138728802     2.6255674910
   30      H       5.5719038520    -2.9078969754     1.0916439758
   31      H       6.1400528404    -0.1518798655     1.0327195559
   32      O      -3.1842469240     1.7248014373     0.9200710549
   33      C      -6.3962467759     2.2431171886     1.4114525959
   34      C      -4.3197665374    -1.9108888470    -0.4560266008
   35      C      -4.2738955246    -2.5885867127    -1.8802829983
   36      C      -2.9318167294    -1.9933513781    -2.4494364686
   37      C      -2.4123534949    -1.1575694376    -1.2135583300
   38      O      -2.8981387052    -1.9171461567    -0.0366804922
   39      H      -5.3934213740    -0.2348804473    -1.4775440708
   40      H      -3.2947825934     0.7374836144    -2.0596762888
   41      H      -5.5714454040     2.5280999352     2.0961902035
   42      H      -4.9474898159    -2.4182768436     0.3020049985
   43      H      -4.2175638501    -3.6845139254    -1.7814408276
   44      H      -5.1510229134    -2.3335957327    -2.4962885481
   45      H      -2.2131039208    -2.7863997642    -2.7097155052
   46      H      -3.0926041328    -1.3591452267    -3.3359297396
   47      H      -1.3153224872    -0.9997172404    -1.1638799076
   48      H      -7.1248233352     1.6235010514     1.9736403596
   49      H      -6.8965886550     3.1540726855     1.0344197152
   50      H       7.1268667833     1.8839194340    -2.5021304045
   51      H       5.6983415458     2.7258549271    -1.7774161316
   52      H       5.4851960229     1.7001103771    -3.2421447948
   53      H       0.9035176487     2.1866794719    -0.9289197205
   54      H       1.3588341020     3.1541062928     0.5404560456
   55      H      -0.4299580729     1.4692759104     1.7573321289
   56      H      -1.0174514609     2.9357408172     0.8905558240
 ----------------------------------------------------------------

    9   -1510.2859216066      4.70E-09 Convergence criterion met
 Total energy in the final basis set = -1510.28592161
 Final energy is   -1510.28592160658
 **  OPTIMIZATION CONVERGED  **

                    Orbital Energies (a.u.)
 --------------------------------------------------------------

 Alpha MOs
 -- Occupied --
-18.944 -18.934 -18.922 -18.914 -18.888 -18.887 -18.876 -18.876
-18.862 -18.855 -10.108 -10.098 -10.092 -10.084 -10.072 -10.071
-10.068 -10.061 -10.058 -10.049 -10.049 -10.046 -10.041 -10.034
-10.031 -10.025 -10.021 -10.019 -10.012 -10.011  -1.021  -1.014
 -0.999  -0.991  -0.970  -0.960  -0.945  -0.937  -0.927  -0.918
 -0.763  -0.754  -0.725  -0.719  -0.711  -0.702  -0.688  -0.668
 -0.648  -0.611  -0.594  -0.575  -0.545  -0.537  -0.536  -0.528
 -0.513  -0.506  -0.485  -0.476  -0.464  -0.449  -0.446  -0.444
 -0.433  -0.423  -0.417  -0.416  -0.413  -0.406  -0.398  -0.395
 -0.392  -0.380  -0.375  -0.364  -0.358  -0.355  -0.349  -0.340
 -0.338  -0.333  -0.330  -0.327  -0.325  -0.324  -0.315  -0.314
 -0.306  -0.305  -0.300  -0.298  -0.292  -0.281  -0.276  -0.268
 -0.264  -0.261  -0.249  -0.243  -0.238  -0.234  -0.225  -0.187
 -0.176  -0.166  -0.161  -0.159  -0.152  -0.145  -0.140  -0.136
 -0.134

          Ground-State Mulliken Net Atomic Charges

     Atom                 Charge (a.u.)
  ----------------------------------------
      1 O                    -0.219022
      2 C                     0.213939
      3 C                    -0.082534
      4 C                    -0.076465
      5 C                     0.214722
      6 O                    -0.167286
      7 C                    -0.048505
      8 C                    -0.047090
      9 O                    -0.172560
     10 C                     0.215744
     11 C                    -0.081723
     12 C                    -0.078185
     13 C                     0.214805
     14 O                    -0.207960
     15 O                    -0.174535
     16 O                    -0.168872
     17 O                    -0.216646
     18 C                    -0.127986
     19 C                     0.026569
     20 C                    -0.144101
     21 C                    -0.143881
     22 C                     0.024811
     23 O                    -0.188289
     24 H                     0.083940
     25 H                     0.086902
     26 H                     0.087029
     27 H                     0.078224
     28 H                     0.074349
     29 H                     0.078083
     30 H                     0.073406
     31 H                     0.087030
     32 O                    -0.212160
     33 C                    -0.128012
     34 C                     0.023744
     35 C                    -0.143507
     36 C                    -0.144649
     37 C                     0.020208
     38 O                    -0.193395
     39 H                     0.082459
     40 H                     0.085528
     41 H                     0.091865
     42 H                     0.086517
     43 H                     0.075929
     44 H                     0.071633
     45 H                     0.077160
     46 H                     0.072226
     47 H                     0.101729
     48 H                     0.085501
     49 H                     0.084971
     50 H                     0.092358
     51 H                     0.091247
     52 H                     0.091009
     53 H                     0.103502
     54 H                     0.089032
     55 H                     0.090788
     56 H                     0.090408
  ----------------------------------------
  Sum of atomic charges =    -0.000000

                    Cartesian Multipole Moments
 -----------------------------------------------------------------
    Charge (ESU x 10^10)
                 0.0000
    Dipole Moment (Debye)
         X       2.6791      Y       0.2370      Z      -2.0630
       Tot       3.3897
    Quadrupole Moments (Debye-Ang)
        XX    -145.7536     XY      -3.4775     YY    -150.7705
        XZ       2.8576     YZ      -0.2824     ZZ    -159.7776

 Total job time:  48.77s(wall), 2320.45s(cpu)
        *  Thank you very much for using Q-Chem.  Have a nice day.  *
