 Q-Chem 5.0, Q-Chem, Inc., Pleasanton, CA (2017)
 Q-Chem 5.0.1 for Intel X86 EM64T Linux

User input:
--------------------------------------------------------------
$molecule
0  1
O -3.94934 -3.66094 2.70899
C -3.26408 -4.56952 2.26188
C -3.36658 -6.02376 2.66595
C -2.26157 -6.57869 3.57966
C -1.27485 -5.57374 4.13152
O -0.71077 -6.0583 5.27714
C 0.2461 -5.16432 5.85547
C 1.03751 -5.87628 6.94767
O 0.48769 -5.55928 8.23612
C -0.59739 -6.28589 8.60187
C -1.07775 -5.96439 9.99705
C -0.39228 -6.76046 11.11718
C 0.8866 -7.47639 10.73166
O 1.37345 -7.50343 9.61059
O -2.31253 -4.27789 1.33524
O 1.52398 -8.13647 11.73463
O -0.99916 -7.26564 7.98595
C 2.70046 -8.83885 11.57815
C -0.76466 -4.52345 10.47018
C -1.74181 -4.11885 11.5732
C -1.25917 -4.99333 12.71198
C -0.01311 -5.61469 12.07049
O 0.44569 -4.62891 11.17836
H -2.18614 -6.06988 9.9852
H -1.06925 -7.52073 11.56469
H -0.78967 -3.77436 9.64854
H -1.51986 -3.05632 11.82329
H -2.82066 -4.21544 11.32522
H -0.98492 -4.33618 13.56686
H -1.97343 -5.77744 13.04492
H 0.70801 -5.93264 12.85537
O -1.08293 -4.43843 3.7145
C -2.06919 -3.01267 0.8429
C -4.61841 -6.27337 3.53509
C -5.02468 -7.74325 3.46194
C -3.92461 -8.37305 4.28107
C -3.16169 -7.12086 4.72704
O -4.15717 -6.13989 4.85199
H -3.4859 -6.60214 1.72249
H -1.67273 -7.40877 3.13139
H -1.77033 -2.33143 1.66811
H -5.48643 -5.63679 3.25463
H -5.98532 -7.85146 4.01509
H -5.1446 -8.14768 2.43384
H -4.38792 -8.87497 5.16002
H -3.27302 -9.08979 3.73607
H -2.6146 -7.36567 5.66133
H -2.97694 -2.61703 0.33916
H -1.24325 -3.06255 0.10415
H 2.99588 -9.27569 12.55404
H 3.50814 -8.1595 11.23094
H 2.56041 -9.66186 10.84508
H 1.23696 -6.95613 6.76618
H 2.03393 -5.38318 6.96117
H -0.18783 -4.19698 6.19523
H 0.99782 -4.94615 5.05936
$end

$opt
CONSTRAINT
tors           1           2           3           4    -105.122
tors           3           4           5           6    +156.474
tors           4           5           6           7    +179.532
tors           5           6           7           8    -168.268
tors           6           7           8           9     -98.269
tors           7           8           9          10     +81.978
tors           8           9          10          11    +176.553
tors           9          10          11          12     -86.780
tors          11          12          13          14      -2.671
ENDCONSTRAINT
$end

$rem
JOBTYPE                   OPT
METHOD                    B3LYP
DFT_D                     d3_op
BASIS                     STO-3G
GEOM_OPT_MAX_CYCLES       100
GEOM_OPT_TOL_GRADIENT     300
GEOM_OPT_TOL_DISPLACEMENT 1200
GEOM_OPT_TOL_ENERGY       100
SYMMETRY                  False
THRESH                    12
SCF_CONVERGENCE           8
MAX_SUB_FILE_NUM          128
MEM_STATIC                400
MEM_TOTAL                 4000
$end
--------------------------------------------------------------

   16   -1510.1510554110      1.56E-09 Convergence criterion met
 Total energy in the final basis set = -1510.15105541
   13   -1510.2206364805      7.12E-09 Convergence criterion met
 Total energy in the final basis set = -1510.22063648
   13   -1510.2579545026      7.84E-09 Convergence criterion met
 Total energy in the final basis set = -1510.25795450
   14   -1510.2745469952      4.49E-09 Convergence criterion met
 Total energy in the final basis set = -1510.27454700
   14   -1510.2806721015      3.65E-09 Convergence criterion met
 Total energy in the final basis set = -1510.28067210
   13   -1510.2832769268      3.61E-09 Convergence criterion met
 Total energy in the final basis set = -1510.28327693
   12   -1510.2846007416      8.13E-09 Convergence criterion met
 Total energy in the final basis set = -1510.28460074
   12   -1510.2850753457      6.62E-09 Convergence criterion met
   12   -1510.2855499289      3.59E-09 Convergence criterion met
 Total energy in the final basis set = -1510.28554993
   12   -1510.2856319569      3.28E-09 Convergence criterion met
 Total energy in the final basis set = -1510.28563196
   11   -1510.2856474881      4.45E-09 Convergence criterion met
 Total energy in the final basis set = -1510.28564749
    9   -1510.2856624751      7.52E-09 Convergence criterion met
 Total energy in the final basis set = -1510.28566248
   10   -1510.2856772244      8.10E-09 Convergence criterion met
 Total energy in the final basis set = -1510.28567722
    9   -1510.2856796826      5.97E-09 Convergence criterion met
 Total energy in the final basis set = -1510.28567968

             Standard Nuclear Orientation (Angstroms)
    I     Atom           X                Y                Z
 ----------------------------------------------------------------
    1      O      -5.2658839635     1.4674157285     1.1021864760
    2      C      -5.2487973776     0.7112911092     0.1078566531
    3      C      -4.6894316256    -0.7556089785     0.0251924094
    4      C      -3.3039326781    -0.8849132346    -0.7283310401
    5      C      -2.6348933438     0.5097237483    -1.0073219389
    6      O      -1.2382949426     0.2867927271    -1.1559642688
    7      C      -0.4982061753     1.5375307813    -1.4355591807
    8      C       0.9468982076     1.0942271965    -1.8717061469
    9      O       1.9151954748     1.1751001538    -0.7571559789
   10      C       1.8228504637     0.0043123334     0.0732435625
   11      C       2.9263679562     0.0865701632     1.1928736419
   12      C       4.3351900849    -0.4947942570     0.7603370993
   13      C       4.3686474423    -0.9919014858    -0.7235042256
   14      O       3.4212066543    -1.0153401545    -1.5413054028
   15      O      -5.9016306797     0.9959461190    -1.1393087282
   16      O       5.6941730582    -1.4290136364    -1.0279860408
   17      O       0.9393904690    -0.8744959388    -0.0274080552
   18      C       5.7661983527    -1.8871634881    -2.4353786497
   19      C       3.3251824818     1.5797954743     1.5597097570
   20      C       4.0837027610     1.5684408679     2.9456823152
   21      C       5.4807414135     0.9805234379     2.5235943580
   22      C       5.2680403839     0.7759978939     0.9721760907
   23      O       4.3928291712     1.9042417166     0.5846747741
   24      H       2.5374523807    -0.4594521164     2.0705425907
   25      H       4.6497887893    -1.3301947870     1.4122674634
   26      H       2.4954552577     2.3077391699     1.4806572224
   27      H       4.1790095278     2.5928711051     3.3395139165
   28      H       3.5680856267     0.9486959890     3.6964227808
   29      H       6.2951361959     1.6987873583     2.7085250370
   30      H       5.7183271126     0.0355315223     3.0374795238
   31      H       6.1915956836     0.7642387351     0.3613506935
   32      O      -3.1835201084     1.6337407009    -1.0548954640
   33      C      -6.3902371485     2.3917093285    -1.1383996907
   34      C      -4.3190343480    -1.3630896604     1.4432546471
   35      C      -4.3074548964    -2.9359742157     1.3041260065
   36      C      -2.9908521323    -3.1505099138     0.4679578710
   37      C      -2.4476218567    -1.6718317989     0.3548851753
   38      O      -2.8856914763    -1.0315911414     1.6179377197
   39      H      -5.4541217060    -1.3697180971    -0.4833454737
   40      H      -3.3957232983    -1.4395335528    -1.6802292936
   41      H      -5.5468213660     3.1094181643    -1.0739790189
   42      H      -4.9151820571    -0.9555200721     2.2825880260
   43      H      -4.2355554039    -3.4093490653     2.2963426767
   44      H      -5.2051494185    -3.3187318345     0.7928488892
   45      H      -2.2689090147    -3.7880361167     1.0022317006
   46      H      -3.1858862990    -3.5925483143    -0.5222889271
   47      H      -1.3514059766    -1.5631663917     0.2178250292
   48      H      -7.0836918910     2.5836760634    -0.2939746421
   49      H      -6.9239108709     2.5327165536    -2.0963897627
   50      H       6.8121819571    -2.2054394378    -2.5986590639
   51      H       5.5108274110    -1.0714813914    -3.1423299005
   52      H       5.0838066180    -2.7415037421    -2.6215359773
   53      H       0.8966722840     0.0655386880    -2.2884547013
   54      H       1.3341887964     1.7904179954    -2.6428870240
   55      H      -0.4499701282     2.1843721536    -0.5315926813
   56      H      -0.9974482545     2.1125638908    -2.2457877908
 ----------------------------------------------------------------

    9   -1510.2856813226      5.43E-09 Convergence criterion met
 Total energy in the final basis set = -1510.28568132
 Final energy is   -1510.28568132261
 **  OPTIMIZATION CONVERGED  **

                    Orbital Energies (a.u.)
 --------------------------------------------------------------

 Alpha MOs
 -- Occupied --
-18.944 -18.934 -18.922 -18.913 -18.888 -18.887 -18.875 -18.874
-18.863 -18.855 -10.108 -10.097 -10.093 -10.083 -10.071 -10.071
-10.068 -10.061 -10.059 -10.048 -10.048 -10.044 -10.041 -10.034
-10.030 -10.024 -10.021 -10.019 -10.011 -10.010  -1.021  -1.013
 -0.999  -0.991  -0.970  -0.958  -0.944  -0.936  -0.927  -0.918
 -0.763  -0.753  -0.725  -0.719  -0.711  -0.701  -0.687  -0.668
 -0.648  -0.611  -0.593  -0.575  -0.546  -0.537  -0.535  -0.527
 -0.513  -0.506  -0.485  -0.475  -0.462  -0.449  -0.445  -0.443
 -0.434  -0.422  -0.418  -0.417  -0.411  -0.405  -0.398  -0.395
 -0.392  -0.380  -0.375  -0.363  -0.358  -0.354  -0.349  -0.340
 -0.337  -0.334  -0.331  -0.326  -0.324  -0.324  -0.314  -0.313
 -0.306  -0.304  -0.300  -0.297  -0.291  -0.281  -0.276  -0.268
 -0.264  -0.261  -0.248  -0.243  -0.237  -0.234  -0.223  -0.187
 -0.176  -0.166  -0.161  -0.159  -0.152  -0.145  -0.140  -0.135
 -0.133

          Ground-State Mulliken Net Atomic Charges

     Atom                 Charge (a.u.)
  ----------------------------------------
      1 O                    -0.218673
      2 C                     0.213945
      3 C                    -0.082405
      4 C                    -0.076934
      5 C                     0.214330
      6 O                    -0.166727
      7 C                    -0.047993
      8 C                    -0.046642
      9 O                    -0.171963
     10 C                     0.215742
     11 C                    -0.081704
     12 C                    -0.078327
     13 C                     0.214532
     14 O                    -0.208010
     15 O                    -0.174530
     16 O                    -0.169095
     17 O                    -0.216138
     18 C                    -0.128062
     19 C                     0.026751
     20 C                    -0.144275
     21 C                    -0.143781
     22 C                     0.024949
     23 O                    -0.187946
     24 H                     0.084540
     25 H                     0.087015
     26 H                     0.086934
     27 H                     0.078169
     28 H                     0.074467
     29 H                     0.078201
     30 H                     0.073759
     31 H                     0.086307
     32 O                    -0.212468
     33 C                    -0.128009
     34 C                     0.023760
     35 C                    -0.143562
     36 C                    -0.144901
     37 C                     0.019135
     38 O                    -0.192918
     39 H                     0.082237
     40 H                     0.084617
     41 H                     0.091783
     42 H                     0.086167
     43 H                     0.075882
     44 H                     0.071274
     45 H                     0.077143
     46 H                     0.071424
     47 H                     0.105146
     48 H                     0.085505
     49 H                     0.084882
     50 H                     0.092293
     51 H                     0.091160
     52 H                     0.090891
     53 H                     0.103010
     54 H                     0.089074
     55 H                     0.090917
     56 H                     0.089121
  ----------------------------------------
  Sum of atomic charges =    -0.000000

                    Cartesian Multipole Moments
 -----------------------------------------------------------------
    Charge (ESU x 10^10)
                 0.0000
    Dipole Moment (Debye)
         X       2.6590      Y      -1.7009      Z      -1.2293
       Tot       3.3874
    Quadrupole Moments (Debye-Ang)
        XX    -146.1522     XY       0.1710     YY    -156.7120
        XZ       5.9700     YZ      -0.8633     ZZ    -152.8436

 Total job time:  46.74s(wall), 2222.02s(cpu)
        *  Thank you very much for using Q-Chem.  Have a nice day.  *
