 Q-Chem 5.0, Q-Chem, Inc., Pleasanton, CA (2017)
 Q-Chem 5.0.1 for Intel X86 EM64T Linux

User input:
--------------------------------------------------------------
$molecule
0  1
O -5.2658839635 1.4674157285 1.102186476
C -5.2487973776 0.7112911092 0.1078566531
C -4.6894316256 -0.7556089785 0.0251924094
C -3.3039326781 -0.8849132346 -0.7283310401
C -2.6348933438 0.5097237483 -1.0073219389
O -1.2382949426 0.2867927271 -1.1559642688
C -0.4982061753 1.5375307813 -1.4355591807
C 0.9468982076 1.0942271965 -1.8717061469
O 1.9151954748 1.1751001538 -0.7571559789
C 1.8228504637 0.0043123334 0.0732435625
C 2.9263679562 0.0865701632 1.1928736419
C 4.3351900849 -0.494794257 0.7603370993
C 4.3686474423 -0.9919014858 -0.7235042256
O 3.4212066543 -1.0153401545 -1.5413054028
O -5.9016306797 0.995946119 -1.1393087282
O 5.6941730582 -1.4290136364 -1.0279860408
O 0.939390469 -0.8744959388 -0.0274080552
C 5.7661983527 -1.8871634881 -2.4353786497
C 3.3251824818 1.5797954743 1.559709757
C 4.083702761 1.5684408679 2.9456823152
C 5.4807414135 0.9805234379 2.523594358
C 5.2680403839 0.7759978939 0.9721760907
O 4.3928291712 1.9042417166 0.5846747741
H 2.5374523807 -0.4594521164 2.0705425907
H 4.6497887893 -1.330194787 1.4122674634
H 2.4954552577 2.3077391699 1.4806572224
H 4.1790095278 2.5928711051 3.3395139165
H 3.5680856267 0.948695989 3.6964227808
H 6.2951361959 1.6987873583 2.708525037
H 5.7183271126 0.0355315223 3.0374795238
H 6.1915956836 0.7642387351 0.3613506935
O -3.1835201084 1.6337407009 -1.054895464
C -6.3902371485 2.3917093285 -1.1383996907
C -4.319034348 -1.3630896604 1.4432546471
C -4.3074548964 -2.9359742157 1.3041260065
C -2.9908521323 -3.1505099138 0.467957871
C -2.4476218567 -1.6718317989 0.3548851753
O -2.8856914763 -1.0315911414 1.6179377197
H -5.454121706 -1.3697180971 -0.4833454737
H -3.3957232983 -1.4395335528 -1.6802292936
H -5.546821366 3.1094181643 -1.0739790189
H -4.9151820571 -0.9555200721 2.282588026
H -4.2355554039 -3.4093490653 2.2963426767
H -5.2051494185 -3.3187318345 0.7928488892
H -2.2689090147 -3.7880361167 1.0022317006
H -3.185886299 -3.5925483143 -0.5222889271
H -1.3514059766 -1.5631663917 0.2178250292
H -7.083691891 2.5836760634 -0.2939746421
H -6.9239108709 2.5327165536 -2.0963897627
H 6.8121819571 -2.2054394378 -2.5986590639
H 5.510827411 -1.0714813914 -3.1423299005
H 5.083806618 -2.7415037421 -2.6215359773
H 0.896672284 0.065538688 -2.2884547013
H 1.3341887964 1.7904179954 -2.642887024
H -0.4499701282 2.1843721536 -0.5315926813
H -0.9974482545 2.1125638908 -2.2457877908
$end

$rem
JOBTYPE                   OPT
METHOD                    B3LYP
DFT_D                     d3_op
BASIS                     STO-3G
GEOM_OPT_MAX_CYCLES       100
GEOM_OPT_TOL_GRADIENT     300
GEOM_OPT_TOL_DISPLACEMENT 1200
GEOM_OPT_TOL_ENERGY       100
SYMMETRY                  False
THRESH                    12
SCF_CONVERGENCE           8
MAX_SUB_FILE_NUM          128
MEM_STATIC                400
MEM_TOTAL                 4000
$end
--------------------------------------------------------------

   16   -1510.2857845312      5.24E-09 Convergence criterion met
 Total energy in the final basis set = -1510.28578453
   13   -1510.2868867788      6.17E-09 Convergence criterion met
 Total energy in the final basis set = -1510.28688678
   14   -1510.2877868074      1.51E-09 Convergence criterion met
 Total energy in the final basis set = -1510.28778681
   14   -1510.2889144705      2.01E-09 Convergence criterion met
 Total energy in the final basis set = -1510.28891447
   14   -1510.2899073669      2.58E-09 Convergence criterion met
 Total energy in the final basis set = -1510.28990737
   13   -1510.2908976556      8.00E-09 Convergence criterion met
 Total energy in the final basis set = -1510.29089766
   13   -1510.2920778014      6.73E-09 Convergence criterion met
 Total energy in the final basis set = -1510.29207780
   13   -1510.2933921955      9.01E-09 Convergence criterion met
   13   -1510.3061652815      9.74E-09 Convergence criterion met
 Total energy in the final basis set = -1510.30616528
   12   -1510.3062201063      3.93E-09 Convergence criterion met
 Total energy in the final basis set = -1510.30622011
   12   -1510.3062758738      2.66E-09 Convergence criterion met
 Total energy in the final basis set = -1510.30627587
   12   -1510.3062925056      3.05E-09 Convergence criterion met
 Total energy in the final basis set = -1510.30629251
   12   -1510.3062971685      1.62E-09 Convergence criterion met
 Total energy in the final basis set = -1510.30629717
   11   -1510.3063015938      3.62E-09 Convergence criterion met
 Total energy in the final basis set = -1510.30630159

             Standard Nuclear Orientation (Angstroms)
    I     Atom           X                Y                Z
 ----------------------------------------------------------------
    1      O      -1.9094054476     1.4509099843     2.1355800606
    2      C      -2.7529509474     0.9692079503     1.3471352774
    3      C      -2.9811679120    -0.5530194999     1.0220473110
    4      C      -2.4831312318    -0.9996447523    -0.4135001970
    5      C      -1.8677350880     0.1760131316    -1.2442918345
    6      O      -1.7450878847    -0.2535277670    -2.6021203526
    7      C      -1.0663112043     0.7696744902    -3.4373574942
    8      C       0.4805946049     0.4843429981    -3.5444851269
    9      O       1.1389077975     0.7985778677    -2.2590364602
   10      C       1.1315732464    -0.3590442628    -1.4074256822
   11      C       1.3513039509     0.0640118074     0.0885160958
   12      C       2.7297480004    -0.3980638412     0.7001064415
   13      C       3.7172218255    -0.8593959698    -0.4199844073
   14      O       3.5218248221    -0.7820836355    -1.6560060385
   15      O      -3.7854299809     1.7254330236     0.7051409797
   16      O       4.9148081508    -1.3636622306     0.1698212901
   17      O       0.7901728089    -1.4998440651    -1.8125021434
   18      C       5.8704604048    -1.7647264014    -0.8898155775
   19      C       1.4183007221     1.6333702624     0.3228878716
   20      C       1.0353358707     1.9152583661     1.8221628209
   21      C       2.2932718404     1.3270245426     2.5608005352
   22      C       3.2318684901     0.9685351157     1.3371811248
   23      O       2.8693523529     1.9485337138     0.2890813003
   24      H       0.5069604293    -0.3968865355     0.6577679412
   25      H       2.6193122380    -1.1978502315     1.4542056665
   26      H       0.8669383457     2.2234572695    -0.4328325210
   27      H       0.9584093035     3.0022257434     1.9854638776
   28      H       0.0714784402     1.4528355815     2.1050352628
   29      H       2.7728696418     2.0740267167     3.2128854476
   30      H       2.0549602987     0.4354360897     3.1629738444
   31      H       4.3191722243     0.9985416887     1.5462000488
   32      O      -1.5286139406     1.3042416966    -0.8178327866
   33      C      -3.5592610098     3.1706978673     0.9294905922
   34      C      -2.0805517677    -1.4616059844     1.9536598693
   35      C      -2.6094551617    -2.9458580186     1.8849774034
   36      C      -2.1069808317    -3.3875105231     0.4573498562
   37      C      -1.3759123320    -2.0822761707    -0.0334237029
   38      O      -0.7957386338    -1.5342105299     1.2169334383
   39      H      -4.0568880529    -0.7729467117     1.1439809451
   40      H      -3.2943970730    -1.4563565346    -1.0076165093
   41      H      -2.6010491965     3.4978850170     0.4764763196
   42      H      -1.9198850562    -1.0496065544     2.9687113245
   43      H      -2.1499658594    -3.5545492415     2.6799456052
   44      H      -3.7051336829    -3.0007553144     1.9870538193
   45      H      -1.3940125455    -4.2247487467     0.5230943890
   46      H      -2.9321478558    -3.6793980030    -0.2117858077
   47      H      -0.5645384333    -2.1871022804    -0.7959066142
   48      H      -3.5445059326     3.4206025631     2.0100248265
   49      H      -4.4007107993     3.6930513624     0.4382150289
   50      H       6.7704686216    -2.1339598379    -0.3647568757
   51      H       6.1423222045    -0.9068688330    -1.5380221814
   52      H       5.4548850449    -2.5709625521    -1.5281884472
   53      H       0.6471844975    -0.5801298386    -3.8152763246
   54      H       0.9253440317     1.1520402354    -4.3099403271
   55      H      -1.2287123810     1.7794905902    -3.0034022400
   56      H      -1.5294249179     0.7083212840    -4.4436830966
 ----------------------------------------------------------------

    9   -1510.3063025008      5.82E-09 Convergence criterion met
 Total energy in the final basis set = -1510.30630250
 Final energy is   -1510.30630250085
 **  OPTIMIZATION CONVERGED  **

                    Orbital Energies (a.u.)
 --------------------------------------------------------------

 Alpha MOs
 -- Occupied --
-18.941 -18.936 -18.928 -18.921 -18.896 -18.885 -18.877 -18.869
-18.866 -18.856 -10.107 -10.098 -10.096 -10.089 -10.073 -10.066
-10.063 -10.062 -10.058 -10.048 -10.045 -10.039 -10.037 -10.033
-10.025 -10.021 -10.019 -10.004 -10.001  -9.987  -1.021  -1.011
 -1.005  -0.997  -0.975  -0.951  -0.944  -0.935  -0.931  -0.923
 -0.764  -0.745  -0.725  -0.714  -0.703  -0.700  -0.684  -0.658
 -0.658  -0.614  -0.590  -0.572  -0.545  -0.538  -0.528  -0.517
 -0.511  -0.500  -0.485  -0.470  -0.462  -0.455  -0.449  -0.438
 -0.430  -0.426  -0.417  -0.414  -0.408  -0.406  -0.401  -0.395
 -0.391  -0.378  -0.368  -0.366  -0.358  -0.355  -0.351  -0.345
 -0.343  -0.340  -0.332  -0.328  -0.324  -0.316  -0.313  -0.306
 -0.305  -0.302  -0.293  -0.287  -0.282  -0.276  -0.273  -0.271
 -0.260  -0.254  -0.250  -0.248  -0.234  -0.233  -0.213  -0.191
 -0.177  -0.170  -0.164  -0.154  -0.152  -0.150  -0.149  -0.140
 -0.125

          Ground-State Mulliken Net Atomic Charges

     Atom                 Charge (a.u.)
  ----------------------------------------
      1 O                    -0.218714
      2 C                     0.219553
      3 C                    -0.082218
      4 C                    -0.079952
      5 C                     0.211985
      6 O                    -0.168808
      7 C                    -0.053683
      8 C                    -0.052060
      9 O                    -0.169604
     10 C                     0.216699
     11 C                    -0.099695
     12 C                    -0.078070
     13 C                     0.214934
     14 O                    -0.206945
     15 O                    -0.173139
     16 O                    -0.167745
     17 O                    -0.234800
     18 C                    -0.128055
     19 C                     0.021861
     20 C                    -0.152157
     21 C                    -0.144900
     22 C                     0.024002
     23 O                    -0.196645
     24 H                     0.112439
     25 H                     0.086542
     26 H                     0.090915
     27 H                     0.069791
     28 H                     0.095924
     29 H                     0.072558
     30 H                     0.071268
     31 H                     0.079448
     32 O                    -0.211337
     33 C                    -0.128210
     34 C                     0.025813
     35 C                    -0.143694
     36 C                    -0.143929
     37 C                     0.010520
     38 O                    -0.192864
     39 H                     0.085449
     40 H                     0.088219
     41 H                     0.093842
     42 H                     0.088574
     43 H                     0.078229
     44 H                     0.073706
     45 H                     0.079569
     46 H                     0.074317
     47 H                     0.114371
     48 H                     0.088058
     49 H                     0.087714
     50 H                     0.090954
     51 H                     0.091087
     52 H                     0.090195
     53 H                     0.102013
     54 H                     0.089679
     55 H                     0.097916
     56 H                     0.089079
  ----------------------------------------
  Sum of atomic charges =    -0.000000

                    Cartesian Multipole Moments
 -----------------------------------------------------------------
    Charge (ESU x 10^10)
                -0.0000
    Dipole Moment (Debye)
         X      -1.9173      Y      -1.2032      Z      -0.2935
       Tot       2.2825
    Quadrupole Moments (Debye-Ang)
        XX    -146.2874     XY      -4.9313     YY    -157.0699
        XZ      -0.0508     YZ      -4.3853     ZZ    -153.4934

 Total job time:  178.51s(wall), 8487.69s(cpu)
        *  Thank you very much for using Q-Chem.  Have a nice day.  *
