 Q-Chem 5.0, Q-Chem, Inc., Pleasanton, CA (2017)
 Q-Chem 5.0.1 for Intel X86 EM64T Linux

User input:
--------------------------------------------------------------
$molecule
0  1
O -3.94934 -3.66094 2.70899
C -3.26408 -4.56952 2.26188
C -3.36658 -6.02376 2.66595
C -2.28993 -6.56531 3.62063
C -1.33401 -5.54912 4.20514
O -0.83572 -6.0091 5.3907
C 0.08492 -5.10106 6.00481
C 0.8453 -5.80163 7.12604
O 0.15727 -5.61765 8.3733
C -0.85914 -6.4832 8.61177
C -1.5101 -6.26984 9.95764
C -0.81877 -6.97963 11.1309
C 0.5841 -7.48629 10.86264
O 1.1653 -7.42853 9.78865
O -2.30315 -4.27625 1.34572
O 1.22466 -8.05098 11.92031
O -1.11203 -7.45387 7.909
C 2.50711 -8.55596 11.87301
C -1.48441 -4.81153 10.46883
C -2.61372 -4.60218 11.478
C -2.09525 -5.40682 12.65243
C -0.71359 -5.80747 12.12269
O -0.34235 -4.73883 11.28598
H -2.57835 -6.56166 9.83971
H -1.41005 -7.84149 11.51074
H -1.55659 -4.05896 9.65324
H -2.60548 -3.52362 11.75512
H -3.63115 -4.87924 11.12664
H -2.00262 -4.72756 13.52873
H -2.70051 -6.29937 12.92252
H -0.02426 -6.02321 12.96837
O -1.11896 -4.42331 3.7735
C -2.06492 -3.01258 0.84708
C -4.64705 -6.28109 3.49015
C -5.04077 -7.75336 3.40256
C -3.96391 -8.37591 4.25693
C -3.22821 -7.11796 4.73282
O -4.23494 -6.14506 4.82278
H -3.45134 -6.60583 1.72097
H -1.67638 -7.39045 3.19724
H -1.78321 -2.32206 1.67047
H -5.5086 -5.65005 3.17866
H -6.01831 -7.86741 3.92405
H -5.12484 -8.15888 2.37131
H -4.4529 -8.88666 5.11664
H -3.28648 -9.08351 3.73181
H -2.71562 -7.36182 5.68604
H -2.96994 -2.62972 0.32854
H -1.22963 -3.0605 0.11879
H 2.7787 -8.95325 12.87245
H 3.22442 -7.75235 11.60063
H 2.567 -9.38071 11.13109
H 1.15025 -6.84944 6.90647
H 1.78878 -5.22699 7.25017
H -0.38497 -4.14645 6.33179
H 0.86826 -4.86527 5.24527
$end

$opt
CONSTRAINT
tors           1           2           3           4    -102.960
tors           3           4           5           6    +154.781
tors           4           5           6           7    +179.751
tors           5           6           7           8    -166.484
tors           6           7           8           9     -91.836
tors           7           8           9          10     +83.389
tors           8           9          10          11    +177.976
tors           9          10          11          12     -85.035
tors          11          12          13          14      -3.609
ENDCONSTRAINT
$end

$rem
JOBTYPE                   OPT
METHOD                    B3LYP
DFT_D                     d3_op
BASIS                     STO-3G
GEOM_OPT_MAX_CYCLES       100
GEOM_OPT_TOL_GRADIENT     300
GEOM_OPT_TOL_DISPLACEMENT 1200
GEOM_OPT_TOL_ENERGY       100
SYMMETRY                  False
THRESH                    12
SCF_CONVERGENCE           8
MAX_SUB_FILE_NUM          128
MEM_STATIC                400
MEM_TOTAL                 4000
$end
--------------------------------------------------------------

   15   -1510.1533593058      1.00E-08 Convergence criterion met
 Total energy in the final basis set = -1510.15335931
   13   -1510.2228282559      7.19E-09 Convergence criterion met
 Total energy in the final basis set = -1510.22282826
   13   -1510.2599565298      8.69E-09 Convergence criterion met
 Total energy in the final basis set = -1510.25995653
   14   -1510.2762133343      4.48E-09 Convergence criterion met
 Total energy in the final basis set = -1510.27621333
   14   -1510.2819448302      3.68E-09 Convergence criterion met
 Total energy in the final basis set = -1510.28194483
   13   -1510.2842479919      3.51E-09 Convergence criterion met
 Total energy in the final basis set = -1510.28424799
   12   -1510.2853140033      6.78E-09 Convergence criterion met
 Total energy in the final basis set = -1510.28531400
   12   -1510.2856966981      5.27E-09 Convergence criterion met
   11   -1510.2862649231      8.27E-09 Convergence criterion met
 Total energy in the final basis set = -1510.28626492
   11   -1510.2862953928      3.93E-09 Convergence criterion met
 Total energy in the final basis set = -1510.28629539
   11   -1510.2863232176      6.06E-09 Convergence criterion met
 Total energy in the final basis set = -1510.28632322
   10   -1510.2863374287      9.06E-09 Convergence criterion met
 Total energy in the final basis set = -1510.28633743
    9   -1510.2863461896      9.55E-09 Convergence criterion met
 Total energy in the final basis set = -1510.28634619
    9   -1510.2863490972      5.75E-09 Convergence criterion met
 Total energy in the final basis set = -1510.28634910

             Standard Nuclear Orientation (Angstroms)
    I     Atom           X                Y                Z
 ----------------------------------------------------------------
    1      O      -5.2060790201    -0.2536859486     1.7905767550
    2      C      -5.2122131411     0.2310149720     0.6389604121
    3      C      -4.6206165944    -0.4026337757    -0.6718473619
    4      C      -3.2370604783     0.2174882960    -1.1274189630
    5      C      -2.6133133614     1.1629050120    -0.0371439017
    6      O      -1.2077449976     1.1802052010    -0.2484664330
    7      C      -0.5012161266     2.0473745762     0.7196564532
    8      C       0.9503857146     2.2374714510     0.1480377599
    9      O       1.8819097925     1.2160228190     0.6760331755
   10      C       1.7849899885     0.0019355192    -0.0881050256
   11      C       2.8272588336    -1.0356601287     0.4739349275
   12      C       4.2857928889    -0.8852434833    -0.1235686880
   13      C       4.4165482458     0.2944437688    -1.1439119585
   14      O       3.5066323210     1.0480927979    -1.5574385131
   15      O      -5.9148092920     1.4266075844     0.2662819451
   16      O       5.7800403434     0.3874600964    -1.5595286541
   17      O       0.9376741452    -0.2178010052    -0.9808297208
   18      C       5.9421857754     1.5007829612    -2.5239453326
   19      C       3.1211860071    -0.8403132395     2.0220504073
   20      C       3.8205499598    -2.1492424114     2.5658177124
   21      C       5.2707630290    -1.9884993295     1.9760897906
   22      C       5.1308741857    -0.6210555988     1.1980744214
   23      O       4.2076605927     0.1675809095     2.0426866887
   24      H       2.4264109410    -2.0422044750     0.2601068929
   25      H       4.6188394121    -1.8127734436    -0.6236583798
   26      H       2.2544265222    -0.4878749166     2.6128918081
   27      H       3.8298398428    -2.1507239656     3.6673717897
   28      H       3.3168640140    -3.0642391126     2.2154005010
   29      H       6.0244078436    -1.8997808726     2.7747571372
   30      H       5.5567649985    -2.8184594221     1.3103560617
   31      H       6.0771825515    -0.0719766802     1.0267501559
   32      O      -3.2011918926     1.7717620878     0.8849574631
   33      C      -6.4278759382     2.1001845619     1.4789534980
   34      C      -4.2198285995    -1.9294581159    -0.4974652972
   35      C      -4.1655316665    -2.5799887241    -1.9346172595
   36      C      -2.8500202868    -1.9301917845    -2.5056339153
   37      C      -2.3497527106    -1.0932464210    -1.2630187082
   38      O      -2.7950453855    -1.8876438056    -0.0934155902
   39      H      -5.3743309227    -0.2763781788    -1.4694865217
   40      H      -3.3219113011     0.7705857982    -2.0808693325
   41      H      -5.5961663012     2.4157042278     2.1415057503
   42      H      -4.8192440798    -2.4742861829     0.2574885773
   43      H      -4.0728198567    -3.6751267974    -1.8568123219
   44      H      -5.0567842486    -2.3420387231    -2.5371396894
   45      H      -2.1061193213    -2.6939144665    -2.7824274201
   46      H      -3.0406908847    -1.2905390839    -3.3822242059
   47      H      -1.2579455867    -0.8947962615    -1.2180199191
   48      H      -7.1106662191     1.4433050378     2.0562591345
   49      H      -6.9799043168     2.9909318287     1.1266249143
   50      H       7.0098114702     1.5020192406    -2.8107435550
   51      H       5.6785281962     2.4763368293    -2.0667667824
   52      H       5.3142535138     1.3530511521    -3.4262522258
   53      H       0.9110387041     2.2108516014    -0.9619299781
   54      H       1.3598091023     3.2111205071     0.4856483917
   55      H      -0.4614329039     1.5728280085     1.7251772733
   56      H      -1.0189929132     3.0265713734     0.8184908167
 ----------------------------------------------------------------

    9   -1510.2863483790      8.26E-09 Convergence criterion met
 Total energy in the final basis set = -1510.28634838
 Final energy is   -1510.28634837896
 **  OPTIMIZATION CONVERGED  **

                    Orbital Energies (a.u.)
 --------------------------------------------------------------

 Alpha MOs
 -- Occupied --
-18.944 -18.934 -18.922 -18.914 -18.888 -18.887 -18.875 -18.874
-18.864 -18.854 -10.108 -10.097 -10.093 -10.083 -10.072 -10.071
-10.069 -10.061 -10.058 -10.048 -10.048 -10.043 -10.041 -10.034
-10.030 -10.024 -10.021 -10.019 -10.011 -10.010  -1.021  -1.013
 -0.999  -0.991  -0.970  -0.958  -0.945  -0.936  -0.927  -0.918
 -0.763  -0.753  -0.725  -0.719  -0.710  -0.701  -0.688  -0.668
 -0.648  -0.612  -0.593  -0.575  -0.546  -0.537  -0.534  -0.527
 -0.513  -0.506  -0.485  -0.475  -0.463  -0.449  -0.445  -0.444
 -0.433  -0.422  -0.417  -0.416  -0.412  -0.406  -0.398  -0.395
 -0.392  -0.380  -0.375  -0.364  -0.358  -0.355  -0.349  -0.340
 -0.338  -0.334  -0.331  -0.327  -0.325  -0.323  -0.314  -0.313
 -0.306  -0.304  -0.300  -0.297  -0.291  -0.281  -0.276  -0.268
 -0.264  -0.261  -0.248  -0.243  -0.238  -0.234  -0.223  -0.187
 -0.176  -0.167  -0.161  -0.159  -0.152  -0.145  -0.140  -0.135
 -0.133

          Ground-State Mulliken Net Atomic Charges

     Atom                 Charge (a.u.)
  ----------------------------------------
      1 O                    -0.218844
      2 C                     0.213475
      3 C                    -0.082513
      4 C                    -0.076800
      5 C                     0.214371
      6 O                    -0.166983
      7 C                    -0.048155
      8 C                    -0.046561
      9 O                    -0.171437
     10 C                     0.216636
     11 C                    -0.081524
     12 C                    -0.078586
     13 C                     0.214485
     14 O                    -0.207944
     15 O                    -0.174143
     16 O                    -0.169080
     17 O                    -0.216044
     18 C                    -0.128075
     19 C                     0.026735
     20 C                    -0.144312
     21 C                    -0.143618
     22 C                     0.025135
     23 O                    -0.187732
     24 H                     0.084406
     25 H                     0.087033
     26 H                     0.086810
     27 H                     0.078227
     28 H                     0.074465
     29 H                     0.078132
     30 H                     0.073566
     31 H                     0.086259
     32 O                    -0.212867
     33 C                    -0.127922
     34 C                     0.023909
     35 C                    -0.143620
     36 C                    -0.144806
     37 C                     0.018421
     38 O                    -0.193611
     39 H                     0.082308
     40 H                     0.084811
     41 H                     0.092177
     42 H                     0.085760
     43 H                     0.075648
     44 H                     0.071290
     45 H                     0.076879
     46 H                     0.071610
     47 H                     0.105388
     48 H                     0.085199
     49 H                     0.085041
     50 H                     0.092325
     51 H                     0.091008
     52 H                     0.091022
     53 H                     0.102652
     54 H                     0.089432
     55 H                     0.090777
     56 H                     0.089786
  ----------------------------------------
  Sum of atomic charges =    -0.000000

                    Cartesian Multipole Moments
 -----------------------------------------------------------------
    Charge (ESU x 10^10)
                 0.0000
    Dipole Moment (Debye)
         X       2.6806      Y       0.2106      Z      -2.0281
       Tot       3.3680
    Quadrupole Moments (Debye-Ang)
        XX    -145.8152     XY      -3.8692     YY    -151.6856
        XZ       2.3888     YZ      -0.7058     ZZ    -158.4007

 Total job time:  48.93s(wall), 2327.63s(cpu)
        *  Thank you very much for using Q-Chem.  Have a nice day.  *
