 Q-Chem 5.0, Q-Chem, Inc., Pleasanton, CA (2017)
 Q-Chem 5.0.1 for Intel X86 EM64T Linux

User input:
--------------------------------------------------------------
$molecule
0  1
O -5.2060790201 -0.2536859486 1.790576755
C -5.2122131411 0.231014972 0.6389604121
C -4.6206165944 -0.4026337757 -0.6718473619
C -3.2370604783 0.217488296 -1.127418963
C -2.6133133614 1.162905012 -0.0371439017
O -1.2077449976 1.180205201 -0.248466433
C -0.5012161266 2.0473745762 0.7196564532
C 0.9503857146 2.237471451 0.1480377599
O 1.8819097925 1.216022819 0.6760331755
C 1.7849899885 0.0019355192 -0.0881050256
C 2.8272588336 -1.0356601287 0.4739349275
C 4.2857928889 -0.8852434833 -0.123568688
C 4.4165482458 0.2944437688 -1.1439119585
O 3.506632321 1.0480927979 -1.5574385131
O -5.914809292 1.4266075844 0.2662819451
O 5.7800403434 0.3874600964 -1.5595286541
O 0.9376741452 -0.2178010052 -0.9808297208
C 5.9421857754 1.5007829612 -2.5239453326
C 3.1211860071 -0.8403132395 2.0220504073
C 3.8205499598 -2.1492424114 2.5658177124
C 5.270763029 -1.9884993295 1.9760897906
C 5.1308741857 -0.6210555988 1.1980744214
O 4.2076605927 0.1675809095 2.0426866887
H 2.426410941 -2.042204475 0.2601068929
H 4.6188394121 -1.8127734436 -0.6236583798
H 2.2544265222 -0.4878749166 2.6128918081
H 3.8298398428 -2.1507239656 3.6673717897
H 3.316864014 -3.0642391126 2.215400501
H 6.0244078436 -1.8997808726 2.7747571372
H 5.5567649985 -2.8184594221 1.3103560617
H 6.0771825515 -0.0719766802 1.0267501559
O -3.2011918926 1.7717620878 0.8849574631
C -6.4278759382 2.1001845619 1.478953498
C -4.2198285995 -1.9294581159 -0.4974652972
C -4.1655316665 -2.5799887241 -1.9346172595
C -2.8500202868 -1.9301917845 -2.5056339153
C -2.3497527106 -1.093246421 -1.2630187082
O -2.7950453855 -1.8876438056 -0.0934155902
H -5.3743309227 -0.2763781788 -1.4694865217
H -3.3219113011 0.7705857982 -2.0808693325
H -5.5961663012 2.4157042278 2.1415057503
H -4.8192440798 -2.4742861829 0.2574885773
H -4.0728198567 -3.6751267974 -1.8568123219
H -5.0567842486 -2.3420387231 -2.5371396894
H -2.1061193213 -2.6939144665 -2.7824274201
H -3.0406908847 -1.2905390839 -3.3822242059
H -1.2579455867 -0.8947962615 -1.2180199191
H -7.1106662191 1.4433050378 2.0562591345
H -6.9799043168 2.9909318287 1.1266249143
H 7.0098114702 1.5020192406 -2.810743555
H 5.6785281962 2.4763368293 -2.0667667824
H 5.3142535138 1.3530511521 -3.4262522258
H 0.9110387041 2.2108516014 -0.9619299781
H 1.3598091023 3.2111205071 0.4856483917
H -0.4614329039 1.5728280085 1.7251772733
H -1.0189929132 3.0265713734 0.8184908167
$end

$rem
JOBTYPE                   OPT
METHOD                    B3LYP
DFT_D                     d3_op
BASIS                     STO-3G
GEOM_OPT_MAX_CYCLES       100
GEOM_OPT_TOL_GRADIENT     300
GEOM_OPT_TOL_DISPLACEMENT 1200
GEOM_OPT_TOL_ENERGY       100
SYMMETRY                  False
THRESH                    12
SCF_CONVERGENCE           8
MAX_SUB_FILE_NUM          128
MEM_STATIC                400
MEM_TOTAL                 4000
$end
--------------------------------------------------------------

   16   -1510.2861507937      5.23E-09 Convergence criterion met
 Total energy in the final basis set = -1510.28615079
   14   -1510.2872001486      1.71E-09 Convergence criterion met
 Total energy in the final basis set = -1510.28720015
   14   -1510.2884320520      3.15E-09 Convergence criterion met
 Total energy in the final basis set = -1510.28843205
   14   -1510.2895654489      2.21E-09 Convergence criterion met
 Total energy in the final basis set = -1510.28956545
   14   -1510.2904082157      2.76E-09 Convergence criterion met
 Total energy in the final basis set = -1510.29040822
   14   -1510.2913269452      2.71E-09 Convergence criterion met
 Total energy in the final basis set = -1510.29132695
   14   -1510.2926250572      2.38E-09 Convergence criterion met
 Total energy in the final basis set = -1510.29262506
   14   -1510.2937464018      3.45E-09 Convergence criterion met
   13   -1510.3064234055      6.56E-09 Convergence criterion met
 Total energy in the final basis set = -1510.30642341
   13   -1510.3064544480      1.88E-09 Convergence criterion met
 Total energy in the final basis set = -1510.30645445
   11   -1510.3064821763      5.90E-09 Convergence criterion met
 Total energy in the final basis set = -1510.30648218
    9   -1510.3064848649      9.28E-09 Convergence criterion met
 Total energy in the final basis set = -1510.30648486
    9   -1510.3064898157      8.96E-09 Convergence criterion met
 Total energy in the final basis set = -1510.30648982
   11   -1510.3064996424      2.84E-09 Convergence criterion met
 Total energy in the final basis set = -1510.30649964

             Standard Nuclear Orientation (Angstroms)
    I     Atom           X                Y                Z
 ----------------------------------------------------------------
    1      O      -1.9651991522    -0.3736196528     2.5137463138
    2      C      -2.7907673577    -0.2546780877     1.5812512235
    3      C      -2.9498233986    -1.1956144024     0.3299423329
    4      C      -2.4301580603    -0.5741745898    -1.0316514176
    5      C      -1.8768018054     0.8813402895    -0.8671507864
    6      O      -1.7418825689     1.4602326272    -2.1666147510
    7      C      -1.1196266714     2.8069633342    -2.0965407512
    8      C       0.4401962145     2.7236856269    -2.3078121467
    9      O       1.0777706436     2.1285854603    -1.1144476536
   10      C       1.1337276129     0.6989579904    -1.2486212039
   11      C       1.3422218674     0.0266176737     0.1548554986
   12      C       2.7358204445    -0.6938026069     0.3281029280
   13      C       3.7369601011    -0.2496378540    -0.7873604919
   14      O       3.5366350741     0.6413544079    -1.6464489221
   15      O      -3.8667438233     0.6897912370     1.5708472337
   16      O       4.9510253183    -0.9907934908    -0.6737488434
   17      O       0.8486041032     0.1023297706    -2.3185262368
   18      C       5.9149807285    -0.5413253771    -1.7060221604
   19      C       1.3650556151     1.0416303737     1.3754847746
   20      C       0.9658549612     0.2465209153     2.6720829572
   21      C       2.2338343959    -0.6672373724     2.8547359944
   22      C       3.1911940054    -0.0983018114     1.7284214043
   23      O       2.8064230394     1.3243766419     1.5950171332
   24      H       0.5142905116    -0.7166764016     0.2609218752
   25      H       2.6546284374    -1.7954744460     0.3425443313
   26      H       0.8042964435     1.9773107748     1.1909542560
   27      H       0.8639256851     0.9456890368     3.5174917270
   28      H       0.0115292200    -0.3002933822     2.5552637973
   29      H       2.6886834249    -0.5447819382     3.8504622329
   30      H       2.0148480018    -1.7358376045     2.6975440515
   31      H       4.2756666684    -0.1964457451     1.9312727948
   32      O      -1.5928545382     1.4609583139     0.2067012020
   33      C      -3.7143018471     1.6311572746     2.7028512636
   34      C      -2.0132766383    -2.4627004282     0.4641134891
   35      C      -2.4801825128    -3.5516297640    -0.5778357417
   36      C      -1.9495286969    -2.9346389780    -1.9276065872
   37      C      -1.2755746713    -1.6050539909    -1.4195489185
   38      O      -0.7240435448    -1.9947108052    -0.0989628103
   39      H      -4.0151903883    -1.4753959126     0.2467405345
   40      H      -3.2197067782    -0.5577818879    -1.8041369630
   41      H      -2.7913744888     2.2368311601     2.5938282417
   42      H      -1.8738624895    -2.8154255318     1.5043436745
   43      H      -2.0030404051    -4.5209624193    -0.3629939443
   44      H      -3.5735987849    -3.6860507588    -0.5721100302
   45      H      -1.1988010760    -3.5878120939    -2.4003601917
   46      H      -2.7547937396    -2.7417233866    -2.6539941976
   47      H      -0.4593825127    -1.1587094483    -2.0402655777
   48      H      -3.6760715305     1.0992358204     3.6752928671
   49      H      -4.5992048784     2.2930305667     2.6742045121
   50      H       6.8171009222    -1.1664491581    -1.5737259095
   51      H       6.1806949828     0.5277056898    -1.5760704766
   52      H       5.5105826350    -0.6816804320    -2.7291993400
   53      H       0.6636473937     2.1146947166    -3.2098208965
   54      H       0.8519846404     3.7470310433    -2.4206867189
   55      H      -1.3376026054     3.2723984133    -1.1115782367
   56      H      -1.5772793192     3.4047074980    -2.9113605256
 ----------------------------------------------------------------

    9   -1510.3065003401      7.26E-09 Convergence criterion met
 Total energy in the final basis set = -1510.30650034
 Final energy is   -1510.30650034006
 **  OPTIMIZATION CONVERGED  **

                    Orbital Energies (a.u.)
 --------------------------------------------------------------

 Alpha MOs
 -- Occupied --
-18.941 -18.936 -18.928 -18.921 -18.897 -18.885 -18.877 -18.869
-18.866 -18.855 -10.107 -10.098 -10.096 -10.089 -10.073 -10.066
-10.063 -10.062 -10.058 -10.049 -10.045 -10.039 -10.037 -10.032
-10.025 -10.022 -10.019 -10.004 -10.001  -9.987  -1.021  -1.011
 -1.005  -0.996  -0.976  -0.951  -0.944  -0.935  -0.931  -0.923
 -0.765  -0.745  -0.725  -0.714  -0.703  -0.700  -0.683  -0.658
 -0.658  -0.614  -0.590  -0.572  -0.545  -0.539  -0.528  -0.516
 -0.511  -0.500  -0.485  -0.470  -0.462  -0.455  -0.449  -0.438
 -0.430  -0.426  -0.417  -0.414  -0.408  -0.406  -0.401  -0.395
 -0.391  -0.378  -0.368  -0.366  -0.358  -0.355  -0.351  -0.345
 -0.343  -0.340  -0.333  -0.328  -0.324  -0.316  -0.312  -0.306
 -0.305  -0.302  -0.293  -0.287  -0.282  -0.276  -0.273  -0.271
 -0.260  -0.255  -0.250  -0.248  -0.234  -0.232  -0.212  -0.191
 -0.177  -0.170  -0.164  -0.154  -0.152  -0.150  -0.149  -0.140
 -0.125

          Ground-State Mulliken Net Atomic Charges

     Atom                 Charge (a.u.)
  ----------------------------------------
      1 O                    -0.218854
      2 C                     0.219543
      3 C                    -0.082219
      4 C                    -0.079929
      5 C                     0.211946
      6 O                    -0.168475
      7 C                    -0.053645
      8 C                    -0.052023
      9 O                    -0.169567
     10 C                     0.216467
     11 C                    -0.099701
     12 C                    -0.077922
     13 C                     0.215000
     14 O                    -0.207025
     15 O                    -0.173209
     16 O                    -0.167679
     17 O                    -0.235319
     18 C                    -0.128025
     19 C                     0.021834
     20 C                    -0.152278
     21 C                    -0.144871
     22 C                     0.023886
     23 O                    -0.196947
     24 H                     0.112427
     25 H                     0.086506
     26 H                     0.090702
     27 H                     0.069747
     28 H                     0.096145
     29 H                     0.072454
     30 H                     0.071225
     31 H                     0.079312
     32 O                    -0.210972
     33 C                    -0.128385
     34 C                     0.025933
     35 C                    -0.143772
     36 C                    -0.143929
     37 C                     0.010963
     38 O                    -0.192475
     39 H                     0.085518
     40 H                     0.088146
     41 H                     0.093452
     42 H                     0.088539
     43 H                     0.078271
     44 H                     0.073801
     45 H                     0.079580
     46 H                     0.074495
     47 H                     0.114038
     48 H                     0.088498
     49 H                     0.087667
     50 H                     0.090891
     51 H                     0.090718
     52 H                     0.090588
     53 H                     0.101981
     54 H                     0.089698
     55 H                     0.098036
     56 H                     0.089212
  ----------------------------------------
  Sum of atomic charges =    -0.000000

                    Cartesian Multipole Moments
 -----------------------------------------------------------------
    Charge (ESU x 10^10)
                -0.0000
    Dipole Moment (Debye)
         X      -1.9090      Y      -0.8001      Z      -1.1031
       Tot       2.3454
    Quadrupole Moments (Debye-Ang)
        XX    -146.0409     XY      -3.3904     YY    -151.2977
        XZ      -3.0525     YZ      -2.5736     ZZ    -159.4843

 Total job time:  168.73s(wall), 8040.44s(cpu)
        *  Thank you very much for using Q-Chem.  Have a nice day.  *
