 Q-Chem 5.0, Q-Chem, Inc., Pleasanton, CA (2017)
 Q-Chem 5.0.1 for Intel X86 EM64T Linux

User input:
--------------------------------------------------------------
$molecule
0  1
O -3.94934 -3.66094 2.70899
C -3.26408 -4.56952 2.26188
C -3.36658 -6.02376 2.66595
C -2.1637 -6.92746 2.34928
C -0.92277 -6.23941 1.8251
O 0.16193 -7.05384 1.98498
C 1.08529 -6.98272 0.89338
C 2.30859 -6.16382 1.2922
O 3.42033 -7.0369 1.54644
C 3.97821 -6.92725 2.77766
C 3.27501 -7.76502 3.81896
C 3.5467 -7.35258 5.27305
C 4.16903 -5.98439 5.46655
O 4.16298 -5.34378 6.50777
O -2.96252 -4.41456 0.94018
O 4.66709 -5.24579 4.4408
O 5.20288 -6.89763 2.80451
C 5.20411 -3.97411 4.52437
C 1.81706 -8.13834 3.90416
C 1.57245 -9.36292 4.81523
C 1.64824 -8.72517 6.17669
C 2.08226 -7.32337 5.78636
O 1.29612 -7.06541 4.6389
H 3.77385 -8.74637 3.64304
H 4.16136 -8.07179 5.85961
H 1.46077 -8.46474 2.93055
H 0.54908 -9.77842 4.67974
H 2.31883 -10.16733 4.637
H 0.61747 -8.63781 6.59063
H 2.2995 -9.2468 6.9105
H 1.91827 -6.63672 6.64601
O -0.76017 -5.06408 1.53965
C -3.02472 -3.22514 0.24001
C -3.44622 -6.17059 4.19902
C -4.11664 -7.49354 4.55969
C -3.02772 -8.46838 4.17677
C -1.91627 -7.49498 3.76799
O -2.11606 -6.37941 4.5969
H -4.30933 -6.40516 2.21271
H -2.40799 -7.74087 1.63106
H -2.34052 -2.47869 0.69731
H -3.97815 -5.33252 4.70035
H -4.23635 -7.51204 5.66685
H -5.10351 -7.66975 4.08016
H -2.73068 -9.03595 5.08708
H -3.28471 -9.17356 3.35698
H -0.94675 -8.01208 3.87524
H -4.0637 -2.83189 0.23671
H -2.70934 -3.40411 -0.80818
H 5.52534 -3.64925 3.51359
H 6.08844 -3.97629 5.19681
H 4.44244 -3.25964 4.9031
H 2.6188 -5.56958 0.40533
H 2.08151 -5.42935 2.10007
H 0.62453 -6.4552 0.02168
H 1.34471 -7.9873 0.49621
$end

$opt
CONSTRAINT
tors           1           2           3           4    -161.053
tors           3           4           5           6    +161.053
tors           4           5           6           7    +142.105
tors           5           6           7           8    +104.211
tors           6           7           8           9    +104.211
tors           7           8           9          10    -123.158
tors           8           9          10          11     +85.263
tors           9          10          11          12    -161.053
tors          11          12          13          14    +161.053
ENDCONSTRAINT
$end

$rem
JOBTYPE                   OPT
METHOD                    B3LYP
DFT_D                     d3_op
BASIS                     STO-3G
GEOM_OPT_MAX_CYCLES       100
GEOM_OPT_TOL_GRADIENT     300
GEOM_OPT_TOL_DISPLACEMENT 1200
GEOM_OPT_TOL_ENERGY       100
SYMMETRY                  False
THRESH                    12
SCF_CONVERGENCE           8
MAX_SUB_FILE_NUM          128
MEM_STATIC                400
MEM_TOTAL                 4000
$end
--------------------------------------------------------------

   15   -1510.0375421855      8.09E-09 Convergence criterion met
 Total energy in the final basis set = -1510.03754219
   14   -1510.1201687619      6.40E-09 Convergence criterion met
 Total energy in the final basis set = -1510.12016876
   14   -1510.1669526608      7.97E-09 Convergence criterion met
 Total energy in the final basis set = -1510.16695266
   14   -1510.1938377603      1.57E-09 Convergence criterion met
 Total energy in the final basis set = -1510.19383776
   14   -1510.2080666780      3.53E-09 Convergence criterion met
 Total energy in the final basis set = -1510.20806668
   13   -1510.2155092725      9.21E-09 Convergence criterion met
 Total energy in the final basis set = -1510.21550927
   13   -1510.2203496460      5.07E-09 Convergence criterion met
 Total energy in the final basis set = -1510.22034965
   12   -1510.2236811670      8.49E-09 Convergence criterion met
   11   -1510.2341257523      8.75E-09 Convergence criterion met
 Total energy in the final basis set = -1510.23412575
   11   -1510.2341429801      6.45E-09 Convergence criterion met
 Total energy in the final basis set = -1510.23414298
   10   -1510.2341459436      9.31E-09 Convergence criterion met
 Total energy in the final basis set = -1510.23414594
   10   -1510.2341509705      4.74E-09 Convergence criterion met
 Total energy in the final basis set = -1510.23415097
    9   -1510.2341556298      7.06E-09 Convergence criterion met
 Total energy in the final basis set = -1510.23415563
    9   -1510.2341614569      7.83E-09 Convergence criterion met
 Total energy in the final basis set = -1510.23416146

             Standard Nuclear Orientation (Angstroms)
    I     Atom           X                Y                Z
 ----------------------------------------------------------------
    1      O      -4.9423175630     1.5387057468     1.9179265484
    2      C      -4.3323331480     1.2971679911     0.8530280870
    3      C      -3.8469740735    -0.1159227092     0.3703809576
    4      C      -2.7255346296    -0.2054549508    -0.7366489657
    5      C      -1.6528067489     0.9494801169    -0.6672586867
    6      O      -0.4763532645     0.5264969542    -1.3994954827
    7      C       0.1304554228     1.6500041575    -2.1469879960
    8      C       1.4441288397     2.1848101521    -1.4365890685
    9      O       2.6573684759     1.7272935284    -2.1513674191
   10      C       3.5473314386     0.9854993564    -1.2644915351
   11      C       3.2593918740    -0.5624487962    -1.0815812918
   12      C       3.9278367272    -1.1766047730     0.2069323496
   13      C       3.7188095649    -0.3012839015     1.5094849820
   14      O       3.8455930863    -0.7072940169     2.6852084253
   15      O      -4.2638890290     2.2142562134    -0.2449655511
   16      O       3.1264028264     0.9638886368     1.1882070239
   17      O       4.6532242834     1.4853625222    -0.9676440303
   18      C       2.7674446863     1.6896289894     2.4269044559
   19      C       1.8021018047    -1.2115278567    -1.0048527440
   20      C       1.9179797612    -2.5887687237    -1.7649061967
   21      C       2.8890772846    -3.3667616834    -0.7970902126
   22      C       2.9393715690    -2.3952991134     0.4484956823
   23      O       1.6465955318    -1.6632873884     0.4001602511
   24      H       3.7660279086    -1.0029887892    -1.9630966028
   25      H       4.9890804594    -1.4504457075     0.0713461681
   26      H       0.9374560254    -0.5655216207    -1.2729370099
   27      H       0.9327606554    -3.0802969552    -1.8172747676
   28      H       2.3176970138    -2.4861540942    -2.7864198264
   29      H       2.4815108690    -4.3480531628    -0.5075985958
   30      H       3.8887008761    -3.5181276854    -1.2357497775
   31      H       3.0729734553    -2.8867673938     1.4318274334
   32      O      -1.7227645750     2.0622683089    -0.1105852033
   33      C      -4.8303444752     3.5226272406     0.1510978315
   34      C      -3.2866354798    -1.1020818579     1.4855569797
   35      C      -3.7735618920    -2.5470774716     1.0886499366
   36      C      -2.9413824441    -2.7691482833    -0.2306069419
   37      C      -1.9795260150    -1.5148050461    -0.2159236899
   38      O      -1.8299333048    -1.1788388182     1.2232408789
   39      H      -4.7625740400    -0.5693362034    -0.0585964482
   40      H      -3.1265033100    -0.2799947829    -1.7635293272
   41      H      -4.2133496366     4.0097580976     0.9334211484
   42      H      -3.4893120309    -0.7858935481     2.5273063590
   43      H      -3.4909991033    -3.2739291634     1.8672900968
   44      H      -4.8620237084    -2.6013478685     0.9267210926
   45      H      -2.3571453531    -3.7018821444    -0.1932898523
   46      H      -3.5754185154    -2.7885943130    -1.1318138709
   47      H      -0.9880694319    -1.6808342959    -0.6764044824
   48      H      -5.8676442426     3.4214610873     0.5309095434
   49      H      -4.8253978467     4.1459093880    -0.7618715158
   50      H       2.3017734058     2.6372742020     2.0990315529
   51      H       3.6611639396     1.9099084002     3.0453898751
   52      H       2.0458723326     1.1103167117     3.0385060786
   53      H       1.4368192986     3.2972943554    -1.4588579719
   54      H       1.4353943527     1.8602096109    -0.3740045026
   55      H      -0.5968475779     2.4796481655    -2.2601980189
   56      H       0.4009696528     1.2567249090    -3.1502772546
 ----------------------------------------------------------------

    9   -1510.2341623639      3.46E-09 Convergence criterion met
 Total energy in the final basis set = -1510.23416236
 Final energy is   -1510.23416236392
 **  OPTIMIZATION CONVERGED  **

                    Orbital Energies (a.u.)
 --------------------------------------------------------------

 Alpha MOs
 -- Occupied --
-18.934 -18.933 -18.933 -18.900 -18.896 -18.887 -18.885 -18.877
-18.872 -18.868 -10.114 -10.101 -10.100 -10.095 -10.077 -10.068
-10.063 -10.061 -10.060 -10.060 -10.053 -10.046 -10.040 -10.039
-10.034 -10.028 -10.022 -10.020 -10.017 -10.015  -1.021  -1.010
 -1.009  -0.995  -0.971  -0.963  -0.949  -0.934  -0.932  -0.926
 -0.766  -0.757  -0.728  -0.719  -0.712  -0.698  -0.692  -0.661
 -0.658  -0.613  -0.597  -0.584  -0.548  -0.543  -0.538  -0.533
 -0.517  -0.507  -0.487  -0.480  -0.467  -0.461  -0.453  -0.439
 -0.433  -0.432  -0.419  -0.410  -0.409  -0.407  -0.403  -0.399
 -0.395  -0.389  -0.378  -0.371  -0.368  -0.359  -0.354  -0.346
 -0.343  -0.334  -0.334  -0.330  -0.326  -0.322  -0.315  -0.313
 -0.310  -0.309  -0.304  -0.301  -0.296  -0.289  -0.286  -0.274
 -0.267  -0.257  -0.256  -0.248  -0.234  -0.226  -0.222  -0.188
 -0.180  -0.174  -0.158  -0.154  -0.152  -0.148  -0.146  -0.145
 -0.135

          Ground-State Mulliken Net Atomic Charges

     Atom                 Charge (a.u.)
  ----------------------------------------
      1 O                    -0.215482
      2 C                     0.212006
      3 C                    -0.080915
      4 C                    -0.074247
      5 C                     0.225126
      6 O                    -0.187421
      7 C                    -0.050147
      8 C                    -0.050386
      9 O                    -0.198096
     10 C                     0.226514
     11 C                    -0.086082
     12 C                    -0.074753
     13 C                     0.215327
     14 O                    -0.214888
     15 O                    -0.168282
     16 O                    -0.171968
     17 O                    -0.188038
     18 C                    -0.126629
     19 C                     0.001190
     20 C                    -0.142000
     21 C                    -0.146661
     22 C                     0.022347
     23 O                    -0.196038
     24 H                     0.081234
     25 H                     0.086848
     26 H                     0.105019
     27 H                     0.071959
     28 H                     0.070844
     29 H                     0.076778
     30 H                     0.072747
     31 H                     0.086996
     32 O                    -0.192187
     33 C                    -0.127145
     34 C                     0.023328
     35 C                    -0.140877
     36 C                    -0.146029
     37 C                     0.022951
     38 O                    -0.188487
     39 H                     0.083555
     40 H                     0.087890
     41 H                     0.090900
     42 H                     0.090124
     43 H                     0.079226
     44 H                     0.073449
     45 H                     0.079271
     46 H                     0.072233
     47 H                     0.093422
     48 H                     0.088946
     49 H                     0.088867
     50 H                     0.089666
     51 H                     0.090862
     52 H                     0.094325
     53 H                     0.083598
     54 H                     0.096481
     55 H                     0.089867
     56 H                     0.092864
  ----------------------------------------
  Sum of atomic charges =     0.000000

                    Cartesian Multipole Moments
 -----------------------------------------------------------------
    Charge (ESU x 10^10)
                 0.0000
    Dipole Moment (Debye)
         X      -2.7387      Y      -1.0563      Z      -2.8904
       Tot       4.1196
    Quadrupole Moments (Debye-Ang)
        XX    -164.4911     XY      -4.8264     YY    -151.3344
        XZ       5.6512     YZ       4.4960     ZZ    -163.6386

 Total job time:  75.17s(wall), 3582.13s(cpu)
        *  Thank you very much for using Q-Chem.  Have a nice day.  *
