 Q-Chem 5.0, Q-Chem, Inc., Pleasanton, CA (2017)
 Q-Chem 5.0.1 for Intel X86 EM64T Linux

User input:
--------------------------------------------------------------
$molecule
0  1
O -4.942317563 1.5387057468 1.9179265484
C -4.332333148 1.2971679911 0.853028087
C -3.8469740735 -0.1159227092 0.3703809576
C -2.7255346296 -0.2054549508 -0.7366489657
C -1.6528067489 0.9494801169 -0.6672586867
O -0.4763532645 0.5264969542 -1.3994954827
C 0.1304554228 1.6500041575 -2.146987996
C 1.4441288397 2.1848101521 -1.4365890685
O 2.6573684759 1.7272935284 -2.1513674191
C 3.5473314386 0.9854993564 -1.2644915351
C 3.259391874 -0.5624487962 -1.0815812918
C 3.9278367272 -1.176604773 0.2069323496
C 3.7188095649 -0.3012839015 1.509484982
O 3.8455930863 -0.7072940169 2.6852084253
O -4.263889029 2.2142562134 -0.2449655511
O 3.1264028264 0.9638886368 1.1882070239
O 4.6532242834 1.4853625222 -0.9676440303
C 2.7674446863 1.6896289894 2.4269044559
C 1.8021018047 -1.2115278567 -1.004852744
C 1.9179797612 -2.5887687237 -1.7649061967
C 2.8890772846 -3.3667616834 -0.7970902126
C 2.939371569 -2.3952991134 0.4484956823
O 1.6465955318 -1.6632873884 0.4001602511
H 3.7660279086 -1.0029887892 -1.9630966028
H 4.9890804594 -1.4504457075 0.0713461681
H 0.9374560254 -0.5655216207 -1.2729370099
H 0.9327606554 -3.0802969552 -1.8172747676
H 2.3176970138 -2.4861540942 -2.7864198264
H 2.481510869 -4.3480531628 -0.5075985958
H 3.8887008761 -3.5181276854 -1.2357497775
H 3.0729734553 -2.8867673938 1.4318274334
O -1.722764575 2.0622683089 -0.1105852033
C -4.8303444752 3.5226272406 0.1510978315
C -3.2866354798 -1.1020818579 1.4855569797
C -3.773561892 -2.5470774716 1.0886499366
C -2.9413824441 -2.7691482833 -0.2306069419
C -1.979526015 -1.5148050461 -0.2159236899
O -1.8299333048 -1.1788388182 1.2232408789
H -4.76257404 -0.5693362034 -0.0585964482
H -3.12650331 -0.2799947829 -1.7635293272
H -4.2133496366 4.0097580976 0.9334211484
H -3.4893120309 -0.7858935481 2.527306359
H -3.4909991033 -3.2739291634 1.8672900968
H -4.8620237084 -2.6013478685 0.9267210926
H -2.3571453531 -3.7018821444 -0.1932898523
H -3.5754185154 -2.788594313 -1.1318138709
H -0.9880694319 -1.6808342959 -0.6764044824
H -5.8676442426 3.4214610873 0.5309095434
H -4.8253978467 4.145909388 -0.7618715158
H 2.3017734058 2.637274202 2.0990315529
H 3.6611639396 1.9099084002 3.0453898751
H 2.0458723326 1.1103167117 3.0385060786
H 1.4368192986 3.2972943554 -1.4588579719
H 1.4353943527 1.8602096109 -0.3740045026
H -0.5968475779 2.4796481655 -2.2601980189
H 0.4009696528 1.256724909 -3.1502772546
$end

$rem
JOBTYPE                   OPT
METHOD                    B3LYP
DFT_D                     d3_op
BASIS                     STO-3G
GEOM_OPT_MAX_CYCLES       100
GEOM_OPT_TOL_GRADIENT     300
GEOM_OPT_TOL_DISPLACEMENT 1200
GEOM_OPT_TOL_ENERGY       100
SYMMETRY                  False
THRESH                    12
SCF_CONVERGENCE           8
MAX_SUB_FILE_NUM          128
MEM_STATIC                400
MEM_TOTAL                 4000
$end
--------------------------------------------------------------

   16   -1510.2342049571      5.18E-09 Convergence criterion met
 Total energy in the final basis set = -1510.23420496
   13   -1510.2406834106      6.30E-09 Convergence criterion met
 Total energy in the final basis set = -1510.24068341
   13   -1510.2463335473      6.72E-09 Convergence criterion met
 Total energy in the final basis set = -1510.24633355
   13   -1510.2516443416      6.10E-09 Convergence criterion met
 Total energy in the final basis set = -1510.25164434
   15   -1510.2567894182      1.90E-09 Convergence criterion met
 Total energy in the final basis set = -1510.25678942
   14   -1510.2608640892      5.47E-09 Convergence criterion met
 Total energy in the final basis set = -1510.26086409
   13   -1510.2634658865      6.75E-09 Convergence criterion met
 Total energy in the final basis set = -1510.26346589
   14   -1510.2666230857      6.82E-09 Convergence criterion met
   10   -1510.3039607506      9.78E-09 Convergence criterion met
 Total energy in the final basis set = -1510.30396075
   11   -1510.3039643633      4.88E-09 Convergence criterion met
 Total energy in the final basis set = -1510.30396436
   11   -1510.3039672382      3.98E-09 Convergence criterion met
 Total energy in the final basis set = -1510.30396724
    9   -1510.3039671639      6.34E-09 Convergence criterion met
 Total energy in the final basis set = -1510.30396716
    9   -1510.3039664584      3.36E-09 Convergence criterion met
 Total energy in the final basis set = -1510.30396646
    9   -1510.3039665554      3.20E-09 Convergence criterion met
 Total energy in the final basis set = -1510.30396656

             Standard Nuclear Orientation (Angstroms)
    I     Atom           X                Y                Z
 ----------------------------------------------------------------
    1      O      -3.0588352319     1.0084930163     2.3581070426
    2      C      -3.5493268966     0.7476948377     1.2389375654
    3      C      -3.3765080183    -0.5806535884     0.4111900923
    4      C      -2.2836370385    -0.4833223909    -0.7322831729
    5      C      -1.7368458775     0.9648486926    -0.9401000478
    6      O      -1.1376706252     1.0379052285    -2.2349717721
    7      C      -0.5693576721     2.3867156398    -2.4795947048
    8      C       0.7268736408     2.6376889071    -1.6328890365
    9      O       1.5158000869     1.3887860969    -1.7237247967
   10      C       2.6138165525     1.4249709958    -0.8063852617
   11      C       3.3424395894     0.0283461266    -0.8224925449
   12      C       3.2260751900    -0.7547002395     0.5547247468
   13      C       2.3335921865    -0.0667042319     1.6426927012
   14      O       2.5534360104    -0.0298625833     2.8737101983
   15      O      -4.4825845289     1.5867381234     0.5428025618
   16      O       1.1782341417     0.4614568666     0.9989442497
   17      O       2.9489272419     2.4371276425    -0.1543526091
   18      C       0.1896760187     0.9622917684     1.9898036607
   19      C       2.6885455090    -1.0137572704    -1.8223080100
   20      C       3.7137839220    -2.1900460605    -2.0632579525
   21      C       3.6138130138    -2.9698967879    -0.6991294886
   22      C       2.5386377912    -2.1064078206     0.0679664888
   23      O       1.6292296256    -1.6570562135    -1.0092645038
   24      H       4.4050183279     0.2077485365    -1.0683829040
   25      H       4.2183341125    -0.9473184454     0.9982454084
   26      H       2.2529603286    -0.5613399760    -2.7327720020
   27      H       3.3905012150    -2.8157550484    -2.9103956149
   28      H       4.7301662663    -1.8172083045    -2.2673505735
   29      H       3.2499969475    -3.9991715146    -0.8466543971
   30      H       4.5730901684    -3.0066783266    -0.1591285918
   31      H       1.9697265394    -2.6411389667     0.8534405724
   32      O      -1.8092953815     1.9298774054    -0.1450593822
   33      C      -4.6189820919     2.8758107231     1.2556547503
   34      C      -2.7558930229    -1.7146921851     1.3213751850
   35      C      -2.8619180935    -3.0980266024     0.5687608800
   36      C      -1.7037961446    -2.9610475194    -0.4886387000
   37      C      -1.1780418785    -1.5025416406    -0.1932768820
   38      O      -1.3065438031    -1.4087612579     1.2810214646
   39      H      -4.3588249326    -0.8632124479    -0.0070883556
   40      H      -2.6827038172    -0.8331780315    -1.7007831339
   41      H      -3.6566013707     3.4273493680     1.2703902684
   42      H      -3.1195955331    -1.7073833388     2.3670699101
   43      H      -2.6798863177    -3.9322895903     1.2646208164
   44      H      -3.8498488160    -3.2380775439     0.1016184797
   45      H      -0.9023846378    -3.6945186680    -0.3055556744
   46      H      -2.0552126435    -3.0768753159    -1.5262534836
   47      H      -0.1239460660    -1.3104810048    -0.5187676642
   48      H      -4.9606151993     2.7329721157     2.3012447041
   49      H      -5.3726988157     3.4594897718     0.6956915719
   50      H      -0.1716490188     1.9476759648     1.6421393116
   51      H       0.6628196744     1.0428849308     2.9871310804
   52      H      -0.6494820968     0.2273484826     1.9965639855
   53      H       1.2867909503     3.5073804640    -2.0428514614
   54      H       0.4616845939     2.8554160353    -0.5770005384
   55      H      -1.3132830955     3.1814521421    -2.2539939870
   56      H      -0.3305902146     2.4014197653    -3.5616454331
 ----------------------------------------------------------------

    9   -1510.3039666763      4.84E-09 Convergence criterion met
 Total energy in the final basis set = -1510.30396668
 Final energy is   -1510.30396667630
 **  OPTIMIZATION CONVERGED  **

                    Orbital Energies (a.u.)
 --------------------------------------------------------------

 Alpha MOs
 -- Occupied --
-18.941 -18.929 -18.920 -18.920 -18.901 -18.889 -18.880 -18.865
-18.863 -18.860 -10.104 -10.097 -10.089 -10.089 -10.079 -10.072
-10.065 -10.063 -10.056 -10.054 -10.042 -10.037 -10.035 -10.034
-10.031 -10.024 -10.023 -10.023 -10.016 -10.013  -1.019  -1.008
 -0.998  -0.996  -0.978  -0.968  -0.943  -0.930  -0.924  -0.923
 -0.765  -0.759  -0.728  -0.721  -0.714  -0.705  -0.693  -0.654
 -0.639  -0.616  -0.595  -0.577  -0.548  -0.540  -0.540  -0.532
 -0.515  -0.502  -0.485  -0.467  -0.465  -0.451  -0.448  -0.443
 -0.436  -0.430  -0.428  -0.409  -0.407  -0.403  -0.402  -0.395
 -0.386  -0.373  -0.368  -0.362  -0.357  -0.355  -0.348  -0.344
 -0.338  -0.338  -0.335  -0.331  -0.329  -0.323  -0.321  -0.310
 -0.306  -0.304  -0.299  -0.296  -0.295  -0.287  -0.277  -0.273
 -0.270  -0.258  -0.247  -0.243  -0.236  -0.233  -0.227  -0.182
 -0.174  -0.165  -0.161  -0.157  -0.155  -0.148  -0.142  -0.141
 -0.139

          Ground-State Mulliken Net Atomic Charges

     Atom                 Charge (a.u.)
  ----------------------------------------
      1 O                    -0.217681
      2 C                     0.214445
      3 C                    -0.081901
      4 C                    -0.080531
      5 C                     0.217158
      6 O                    -0.164205
      7 C                    -0.045912
      8 C                    -0.048836
      9 O                    -0.173576
     10 C                     0.216962
     11 C                    -0.078834
     12 C                    -0.079223
     13 C                     0.210515
     14 O                    -0.214614
     15 O                    -0.175740
     16 O                    -0.176933
     17 O                    -0.219081
     18 C                    -0.150008
     19 C                     0.027017
     20 C                    -0.143895
     21 C                    -0.143534
     22 C                     0.027105
     23 O                    -0.188225
     24 H                     0.083878
     25 H                     0.085672
     26 H                     0.094576
     27 H                     0.078177
     28 H                     0.074729
     29 H                     0.078334
     30 H                     0.076322
     31 H                     0.087416
     32 O                    -0.215530
     33 C                    -0.128536
     34 C                     0.025780
     35 C                    -0.145131
     36 C                    -0.142832
     37 C                     0.010531
     38 O                    -0.190790
     39 H                     0.083852
     40 H                     0.086294
     41 H                     0.091495
     42 H                     0.086617
     43 H                     0.076541
     44 H                     0.072330
     45 H                     0.075890
     46 H                     0.072286
     47 H                     0.118787
     48 H                     0.086984
     49 H                     0.085852
     50 H                     0.084091
     51 H                     0.092921
     52 H                     0.114972
     53 H                     0.086045
     54 H                     0.099038
     55 H                     0.091827
     56 H                     0.091110
  ----------------------------------------
  Sum of atomic charges =    -0.000000

                    Cartesian Multipole Moments
 -----------------------------------------------------------------
    Charge (ESU x 10^10)
                -0.0000
    Dipole Moment (Debye)
         X      -0.6365      Y      -1.4061      Z      -3.8506
       Tot       4.1485
    Quadrupole Moments (Debye-Ang)
        XX    -149.6748     XY      -6.6196     YY    -150.6150
        XZ      -6.8649     YZ      -4.6595     ZZ    -165.0048

 Total job time:  139.10s(wall), 6630.62s(cpu)
        *  Thank you very much for using Q-Chem.  Have a nice day.  *
