 Q-Chem 5.0, Q-Chem, Inc., Pleasanton, CA (2017)
 Q-Chem 5.0.1 for Intel X86 EM64T Linux

User input:
--------------------------------------------------------------
$molecule
0  1
O 2.981706359 1.6119877474 2.2445870836
C 3.3312085736 0.5972700047 1.602929906
C 3.680321177 0.4880159425 0.0853573487
C 3.2093290557 -0.8231757602 -0.6606544364
C 2.4395944338 -2.0190331857 0.0543578524
O 1.1338143099 -2.10739145 0.6517097415
C 0.4029855366 -1.2424826095 1.6023947891
C 0.1868294869 0.3396807075 1.6109208052
O 0.1772976145 1.1026809514 0.3605787342
C -1.091593771 1.1639221204 -0.3263687604
C -1.8798716831 -0.2071559308 -0.509016293
C -3.1202223602 -0.4268612204 0.4477397941
C -3.2930828467 0.7281737192 1.4888034392
O -2.4790926678 1.6546807385 1.717418784
O 3.5082022114 -0.6995962274 2.189076387
O -4.5447976569 0.582237143 2.1530331623
O -1.3546440614 2.2010521618 -0.9707470328
C -4.7404613676 1.6871590896 3.1224220277
C -2.6104083615 -0.1947609131 -1.922221424
C -3.0374821503 -1.6713069205 -2.2866708699
C -4.2669508429 -1.8789136189 -1.3265293002
C -4.3179812053 -0.4802915817 -0.5949101866
O -3.899113935 0.4793694654 -1.6384907714
H -1.1638672636 -1.0427130464 -0.4402992387
H -3.0417739871 -1.3806208296 1.0023761035
H -2.057751032 0.3509710211 -2.7108305996
H -3.3367911444 -1.7341352516 -3.3449607165
H -2.2275460911 -2.3957781619 -2.1054253039
H -5.1974559744 -2.0525225342 -1.8901437273
H -4.1200947915 -2.7112954878 -0.6199071301
H -5.3000631257 -0.1987875941 -0.1677910649
O 2.953874174 -3.1585334362 -0.0942802093
C 3.3199437879 -0.6355318021 3.6567522723
C 3.0545076385 1.6163374384 -0.8456708124
C 3.9652342096 1.721721633 -2.1348687768
C 3.5694654163 0.3972499687 -2.8910770804
C 2.4656308858 -0.1921805857 -1.9202816171
O 1.8158652903 1.0150233278 -1.3827122043
H 4.7846962267 0.5388964265 0.0335627738
H 4.1076962899 -1.3592720228 -1.0149676181
H 2.3541714686 -0.1644515828 3.9294303733
H 2.8308568876 2.5672527058 -0.3240378551
H 3.6931459437 2.6143766454 -2.7204530029
H 5.038835536 1.7711376739 -1.8928450291
H 3.1339072268 0.6109692337 -3.8800612871
H 4.4200139863 -0.2907443462 -3.0215262112
H 1.7212252982 -0.8569599556 -2.3999278814
H 4.1369569753 -0.0634621043 4.1421972065
H 3.3394931908 -1.681773859 4.0131580647
H -5.7360464377 1.522125099 3.5735178857
H -4.7160943567 2.6754341497 2.6200284052
H -3.9653585778 1.6742936471 3.9157697407
H -0.758772271 0.5061420483 2.1714506779
H 1.0103952934 0.8033417157 2.1877972338
H 0.811920521 -1.4577817401 2.6171116744
H -0.6022790997 -1.7120344071 1.5712379109
$end

$rem
JOBTYPE                   OPT
METHOD                    B3LYP
DFT_D                     d3_op
BASIS                     STO-3G
GEOM_OPT_MAX_CYCLES       100
GEOM_OPT_TOL_GRADIENT     300
GEOM_OPT_TOL_DISPLACEMENT 1200
GEOM_OPT_TOL_ENERGY       100
SYMMETRY                  False
THRESH                    12
SCF_CONVERGENCE           8
MAX_SUB_FILE_NUM          128
MEM_STATIC                400
MEM_TOTAL                 4000
$end
--------------------------------------------------------------

   16   -1510.2180650574      6.72E-09 Convergence criterion met
 Total energy in the final basis set = -1510.21806506
   14   -1510.2195664406      3.08E-09 Convergence criterion met
 Total energy in the final basis set = -1510.21956644
   14   -1510.2237599946      5.90E-09 Convergence criterion met
 Total energy in the final basis set = -1510.22375999
   14   -1510.2301634299      4.71E-09 Convergence criterion met
 Total energy in the final basis set = -1510.23016343
   14   -1510.2323010048      5.97E-09 Convergence criterion met
 Total energy in the final basis set = -1510.23230100
   14   -1510.2358163747      5.69E-09 Convergence criterion met
 Total energy in the final basis set = -1510.23581637
   15   -1510.2308530995      4.69E-09 Convergence criterion met
 Total energy in the final basis set = -1510.23085310
   14   -1510.2360772409      6.31E-09 Convergence criterion met
   12   -1510.2833408334      4.26E-09 Convergence criterion met
 Total energy in the final basis set = -1510.28334083
   12   -1510.2833615093      2.43E-09 Convergence criterion met
 Total energy in the final basis set = -1510.28336151
   11   -1510.2833691473      9.43E-09 Convergence criterion met
 Total energy in the final basis set = -1510.28336915
   11   -1510.2833674749      3.81E-09 Convergence criterion met
 Total energy in the final basis set = -1510.28336747
   10   -1510.2833662883      6.14E-09 Convergence criterion met
 Total energy in the final basis set = -1510.28336629
   11   -1510.2833691979      5.01E-09 Convergence criterion met
 Total energy in the final basis set = -1510.28336920

             Standard Nuclear Orientation (Angstroms)
    I     Atom           X                Y                Z
 ----------------------------------------------------------------
    1      O       3.8638336253    -2.0899654237    -1.0175328650
    2      C       3.6905682618    -0.8739882340    -1.2456033943
    3      C       3.8685844818     0.3274093446    -0.2508567009
    4      C       2.5005897573     1.0778311546     0.0582730922
    5      C       1.3046346916     0.7032041476    -0.9106066582
    6      O       0.7679145344    -0.6361581317    -1.0056687858
    7      C       0.9083662961    -1.4952801337     0.1942977755
    8      C      -0.3189874246    -1.3229809962     1.1763026128
    9      O      -0.4482456003     0.0596162907     1.6863545746
   10      C      -1.2940026754     0.9523286291     0.9058686045
   11      C      -1.8928241996     0.4277089835    -0.4645755340
   12      C      -3.2284132437    -0.4073298237    -0.3609228102
   13      C      -3.7542345136    -0.4964165816     1.1094153336
   14      O      -3.2284185360     0.0213594779     2.1217161584
   15      O       3.2622221460    -0.3323181769    -2.4988727414
   16      O      -4.9572706074    -1.2642297083     1.1336257389
   17      O      -1.3458495959     2.1358898610     1.2984438081
   18      C      -5.4885000605    -1.3325676760     2.5157172944
   19      C      -2.3736814369     1.6589890504    -1.3415224985
   20      C      -2.4772693612     1.1777627842    -2.8391383532
   21      C      -3.7695857061     0.2813681665    -2.7774255940
   22      C      -4.2000987221     0.4682662088    -1.2671370039
   23      O      -3.7898927867     1.8512264483    -0.9444509116
   24      H      -1.0891157042    -0.1363557127    -0.9798090846
   25      H      -3.1192198585    -1.4302393572    -0.7658055000
   26      H      -1.7926416786     2.5855451422    -1.1713173662
   27      H      -2.6164568348     2.0399169425    -3.5105479704
   28      H      -1.5787834567     0.6243118571    -3.1550166631
   29      H      -4.5570369861     0.6548347359    -3.4512039264
   30      H      -3.5686625057    -0.7743811283    -3.0200185701
   31      H      -5.2762876352     0.3134609460    -1.0559927059
   32      O       0.8218391662     1.5407996882    -1.7061013707
   33      C       2.8933824625    -1.4223410491    -3.4309096804
   34      C       4.2738334244    -0.1646347983     1.1942927050
   35      C       4.7126680962     1.0808136001     2.0573632700
   36      C       3.3191246351     1.7431170684     2.3872381989
   37      C       2.3330412273     0.7939663901     1.6152228480
   38      O       2.9683184401    -0.5401850784     1.7955754701
   39      H       4.6095989113     1.0288532217    -0.6749957713
   40      H       2.6306463320     2.1619084678    -0.1055251858
   41      H       1.9544111202    -1.9131473794    -3.1013268500
   42      H       4.9631049234    -1.0314367744     1.2034082113
   43      H       5.2305675362     0.7519908566     2.9722307759
   44      H       5.3803082739     1.7536758462     1.4956011667
   45      H       3.1088955950     1.7167167602     3.4683297400
   46      H       3.2504581061     2.7858635730     2.0387107642
   47      H       1.2667848232     0.7456631395     1.9459873614
   48      H       3.6927245483    -2.1869993969    -3.5050931144
   49      H       2.7346041169    -0.9451815609    -4.4152324146
   50      H      -6.4266459241    -1.9139283866     2.4521944222
   51      H      -5.7014893494    -0.3220813025     2.9198152492
   52      H      -4.7799699693    -1.8437333825     3.1991371872
   53      H      -1.2558415574    -1.6817767261     0.7091498702
   54      H      -0.1195883955    -1.9515467317     2.0700197835
   55      H       1.8575980092    -1.2996596374     0.7657442958
   56      H       0.9033933326    -2.5374931596    -0.1858477484
 ----------------------------------------------------------------

   11   -1510.2833693324      3.96E-09 Convergence criterion met
 Total energy in the final basis set = -1510.28336933
 Final energy is   -1510.28336933237
 **  OPTIMIZATION CONVERGED  **

                    Orbital Energies (a.u.)
 --------------------------------------------------------------

 Alpha MOs
 -- Occupied --
-18.943 -18.941 -18.930 -18.922 -18.910 -18.887 -18.884 -18.879
-18.876 -18.862 -10.106 -10.105 -10.102 -10.090 -10.070 -10.069
-10.069 -10.067 -10.056 -10.054 -10.050 -10.046 -10.046 -10.040
-10.037 -10.027 -10.024 -10.018 -10.014 -10.009  -1.020  -1.019
 -1.007  -0.992  -0.986  -0.963  -0.944  -0.943  -0.938  -0.925
 -0.770  -0.757  -0.728  -0.716  -0.710  -0.703  -0.697  -0.666
 -0.665  -0.605  -0.596  -0.589  -0.555  -0.546  -0.541  -0.531
 -0.518  -0.507  -0.489  -0.476  -0.467  -0.461  -0.451  -0.446
 -0.439  -0.426  -0.422  -0.415  -0.415  -0.412  -0.409  -0.405
 -0.394  -0.384  -0.379  -0.376  -0.371  -0.358  -0.355  -0.353
 -0.347  -0.340  -0.333  -0.332  -0.322  -0.319  -0.318  -0.310
 -0.309  -0.306  -0.305  -0.299  -0.293  -0.287  -0.281  -0.278
 -0.274  -0.261  -0.258  -0.253  -0.237  -0.233  -0.226  -0.186
 -0.184  -0.182  -0.163  -0.162  -0.159  -0.151  -0.149  -0.138
 -0.136

          Ground-State Mulliken Net Atomic Charges

     Atom                 Charge (a.u.)
  ----------------------------------------
      1 O                    -0.211855
      2 C                     0.207550
      3 C                    -0.082044
      4 C                    -0.086602
      5 C                     0.206557
      6 O                    -0.185955
      7 C                    -0.081518
      8 C                    -0.054945
      9 O                    -0.179508
     10 C                     0.213655
     11 C                    -0.100106
     12 C                    -0.082424
     13 C                     0.209972
     14 O                    -0.201801
     15 O                    -0.168443
     16 O                    -0.168598
     17 O                    -0.204690
     18 C                    -0.128246
     19 C                     0.027861
     20 C                    -0.142944
     21 C                    -0.144351
     22 C                     0.025387
     23 O                    -0.190956
     24 H                     0.101794
     25 H                     0.081944
     26 H                     0.093711
     27 H                     0.077305
     28 H                     0.080054
     29 H                     0.076557
     30 H                     0.071259
     31 H                     0.083788
     32 O                    -0.201104
     33 C                    -0.128513
     34 C                     0.024974
     35 C                    -0.143262
     36 C                    -0.142414
     37 C                     0.007576
     38 O                    -0.188737
     39 H                     0.089602
     40 H                     0.091604
     41 H                     0.091647
     42 H                     0.091576
     43 H                     0.080423
     44 H                     0.075723
     45 H                     0.082566
     46 H                     0.078633
     47 H                     0.115927
     48 H                     0.091534
     49 H                     0.093237
     50 H                     0.092229
     51 H                     0.093816
     52 H                     0.089926
     53 H                     0.080075
     54 H                     0.090291
     55 H                     0.119740
     56 H                     0.080522
  ----------------------------------------
  Sum of atomic charges =     0.000000

                    Cartesian Multipole Moments
 -----------------------------------------------------------------
    Charge (ESU x 10^10)
                 0.0000
    Dipole Moment (Debye)
         X       1.2409      Y      -3.0327      Z      -0.7299
       Tot       3.3571
    Quadrupole Moments (Debye-Ang)
        XX    -143.5321     XY      15.4513     YY    -165.9502
        XZ      -0.3080     YZ      -0.1069     ZZ    -157.6237

 Total job time:  150.36s(wall), 7175.25s(cpu)
        *  Thank you very much for using Q-Chem.  Have a nice day.  *
