 Q-Chem 5.0, Q-Chem, Inc., Pleasanton, CA (2017)
 Q-Chem 5.0.1 for Intel X86 EM64T Linux

User input:
--------------------------------------------------------------
$molecule
0  1
O -3.94934 -3.66094 2.70899
C -3.26408 -4.56952 2.26188
C -3.36658 -6.02376 2.66595
C -2.05424 -6.81773 2.77194
C -0.77335 -6.02476 2.63554
O -0.64115 -5.1712 3.69356
C -1.83412 -4.43059 3.97207
C -3.03987 -5.36434 3.9921
O -2.631 -6.68321 4.38744
C -2.57262 -6.89918 5.72501
C -1.84818 -5.80143 6.46718
C -2.75663 -4.83264 7.23817
C -4.18447 -5.2937 7.45126
O -4.69891 -6.27187 6.92867
O -2.40222 -4.23594 1.2327
O -4.95893 -4.49884 8.23758
O -2.68006 -8.03384 6.16755
C -6.28619 -4.74227 8.52218
C -1.06421 -6.38176 7.69797
C 0.08013 -5.44622 8.10659
C -0.70614 -4.2705 8.63661
C -2.11511 -4.8758 8.6364
O -1.91864 -6.25405 8.80238
H -0.94863 -5.49126 5.93404
H -2.7962 -3.80811 6.81405
H -0.64984 -7.40042 7.52848
H 0.59732 -5.94497 8.95854
H 0.83618 -5.19611 7.33145
H -0.3424 -4.0398 9.66217
H -0.67977 -3.35789 8.00196
H -2.74002 -4.38316 9.41385
O 0.23976 -6.47032 2.09973
C -2.2859 -2.97836 0.6766
C -4.37614 -7.2962 2.45988
C -4.33922 -8.00578 1.06606
C -2.98862 -8.7239 1.13395
C -2.53986 -8.3428 2.56649
O -3.79938 -8.34212 3.22016
H -3.68835 -5.91582 1.60851
H -1.86501 -6.78436 1.68094
H -1.9692 -2.24146 1.44411
H -5.41605 -7.03268 2.75282
H -5.14164 -8.77787 1.06401
H -4.48554 -7.35286 0.17833
H -3.17383 -9.82002 1.08406
H -2.25679 -8.4481 0.34421
H -1.79983 -9.05458 2.98958
H -3.25658 -2.66589 0.23637
H -1.52157 -3.0063 -0.12664
H -6.6695 -3.93901 9.1842
H -6.39265 -5.71743 9.04377
H -6.88348 -4.74966 7.5854
H -3.53234 -4.81558 4.84169
H -4.04417 -5.08824 4.54657
H -1.76055 -3.40905 3.51611
H -1.66227 -3.91382 4.9308
$end

$opt
CONSTRAINT
tors           1           2           3           4    -142.105
tors           3           4           5           6     +66.316
tors           4           5           6           7     -47.368
tors           5           6           7           8     +47.368
tors           6           7           8           9     +28.421
tors           7           8           9          10     +85.263
tors           8           9          10          11     -47.368
tors           9          10          11          12    +104.211
tors          11          12          13          14      -9.474
ENDCONSTRAINT
$end

$rem
JOBTYPE                   OPT
METHOD                    B3LYP
DFT_D                     d3_op
BASIS                     STO-3G
GEOM_OPT_MAX_CYCLES       100
GEOM_OPT_TOL_GRADIENT     300
GEOM_OPT_TOL_DISPLACEMENT 1200
GEOM_OPT_TOL_ENERGY       100
SYMMETRY                  False
THRESH                    12
SCF_CONVERGENCE           8
MAX_SUB_FILE_NUM          128
MEM_STATIC                400
MEM_TOTAL                 4000
$end
--------------------------------------------------------------

   21   -1509.1240129795      7.40E-09 Convergence criterion met
 Total energy in the final basis set = -1509.12401298
   15   -1509.2657342282      9.96E-09 Convergence criterion met
 Total energy in the final basis set = -1509.26573423
   15   -1509.3754899438      7.84E-09 Convergence criterion met
 Total energy in the final basis set = -1509.37548994
   15   -1509.4683070945      4.75E-09 Convergence criterion met
 Total energy in the final basis set = -1509.46830709
   14   -1509.5481018300      7.29E-09 Convergence criterion met
 Total energy in the final basis set = -1509.54810183
   14   -1509.6135396948      3.94E-09 Convergence criterion met
 Total energy in the final basis set = -1509.61353969
   14   -1509.6660330726      4.48E-09 Convergence criterion met
 Total energy in the final basis set = -1509.66603307
   14   -1509.7091558096      3.92E-09 Convergence criterion met
   10   -1510.2179192119      9.51E-09 Convergence criterion met
 Total energy in the final basis set = -1510.21791921
   10   -1510.2179282126      7.16E-09 Convergence criterion met
 Total energy in the final basis set = -1510.21792821
    9   -1510.2179349883      9.85E-09 Convergence criterion met
 Total energy in the final basis set = -1510.21793499
    9   -1510.2179386263      9.27E-09 Convergence criterion met
 Total energy in the final basis set = -1510.21793863
    9   -1510.2179405748      5.71E-09 Convergence criterion met
 Total energy in the final basis set = -1510.21794057
    9   -1510.2179421226      5.52E-09 Convergence criterion met
 Total energy in the final basis set = -1510.21794212

             Standard Nuclear Orientation (Angstroms)
    I     Atom           X                Y                Z
 ----------------------------------------------------------------
    1      O       2.9817063590     1.6119877474     2.2445870836
    2      C       3.3312085736     0.5972700047     1.6029299060
    3      C       3.6803211770     0.4880159425     0.0853573487
    4      C       3.2093290557    -0.8231757602    -0.6606544364
    5      C       2.4395944338    -2.0190331857     0.0543578524
    6      O       1.1338143099    -2.1073914500     0.6517097415
    7      C       0.4029855366    -1.2424826095     1.6023947891
    8      C       0.1868294869     0.3396807075     1.6109208052
    9      O       0.1772976145     1.1026809514     0.3605787342
   10      C      -1.0915937710     1.1639221204    -0.3263687604
   11      C      -1.8798716831    -0.2071559308    -0.5090162930
   12      C      -3.1202223602    -0.4268612204     0.4477397941
   13      C      -3.2930828467     0.7281737192     1.4888034392
   14      O      -2.4790926678     1.6546807385     1.7174187840
   15      O       3.5082022114    -0.6995962274     2.1890763870
   16      O      -4.5447976569     0.5822371430     2.1530331623
   17      O      -1.3546440614     2.2010521618    -0.9707470328
   18      C      -4.7404613676     1.6871590896     3.1224220277
   19      C      -2.6104083615    -0.1947609131    -1.9222214240
   20      C      -3.0374821503    -1.6713069205    -2.2866708699
   21      C      -4.2669508429    -1.8789136189    -1.3265293002
   22      C      -4.3179812053    -0.4802915817    -0.5949101866
   23      O      -3.8991139350     0.4793694654    -1.6384907714
   24      H      -1.1638672636    -1.0427130464    -0.4402992387
   25      H      -3.0417739871    -1.3806208296     1.0023761035
   26      H      -2.0577510320     0.3509710211    -2.7108305996
   27      H      -3.3367911444    -1.7341352516    -3.3449607165
   28      H      -2.2275460911    -2.3957781619    -2.1054253039
   29      H      -5.1974559744    -2.0525225342    -1.8901437273
   30      H      -4.1200947915    -2.7112954878    -0.6199071301
   31      H      -5.3000631257    -0.1987875941    -0.1677910649
   32      O       2.9538741740    -3.1585334362    -0.0942802093
   33      C       3.3199437879    -0.6355318021     3.6567522723
   34      C       3.0545076385     1.6163374384    -0.8456708124
   35      C       3.9652342096     1.7217216330    -2.1348687768
   36      C       3.5694654163     0.3972499687    -2.8910770804
   37      C       2.4656308858    -0.1921805857    -1.9202816171
   38      O       1.8158652903     1.0150233278    -1.3827122043
   39      H       4.7846962267     0.5388964265     0.0335627738
   40      H       4.1076962899    -1.3592720228    -1.0149676181
   41      H       2.3541714686    -0.1644515828     3.9294303733
   42      H       2.8308568876     2.5672527058    -0.3240378551
   43      H       3.6931459437     2.6143766454    -2.7204530029
   44      H       5.0388355360     1.7711376739    -1.8928450291
   45      H       3.1339072268     0.6109692337    -3.8800612871
   46      H       4.4200139863    -0.2907443462    -3.0215262112
   47      H       1.7212252982    -0.8569599556    -2.3999278814
   48      H       4.1369569753    -0.0634621043     4.1421972065
   49      H       3.3394931908    -1.6817738590     4.0131580647
   50      H      -5.7360464377     1.5221250990     3.5735178857
   51      H      -4.7160943567     2.6754341497     2.6200284052
   52      H      -3.9653585778     1.6742936471     3.9157697407
   53      H      -0.7587722710     0.5061420483     2.1714506779
   54      H       1.0103952934     0.8033417157     2.1877972338
   55      H       0.8119205210    -1.4577817401     2.6171116744
   56      H      -0.6022790997    -1.7120344071     1.5712379109
 ----------------------------------------------------------------

    9   -1510.2179425869      4.31E-09 Convergence criterion met
 Total energy in the final basis set = -1510.21794259
 Final energy is   -1510.21794258692
 **  OPTIMIZATION CONVERGED  **

                    Orbital Energies (a.u.)
 --------------------------------------------------------------

 Alpha MOs
 -- Occupied --
-18.952 -18.945 -18.916 -18.908 -18.893 -18.887 -18.887 -18.886
-18.863 -18.860 -10.113 -10.110 -10.098 -10.086 -10.074 -10.074
-10.072 -10.061 -10.059 -10.059 -10.058 -10.055 -10.043 -10.041
-10.037 -10.029 -10.020 -10.018 -10.018 -10.017  -1.026  -1.022
 -0.994  -0.987  -0.970  -0.968  -0.950  -0.947  -0.924  -0.917
 -0.763  -0.762  -0.722  -0.721  -0.708  -0.704  -0.702  -0.671
 -0.671  -0.610  -0.599  -0.590  -0.547  -0.545  -0.537  -0.536
 -0.514  -0.509  -0.488  -0.476  -0.469  -0.460  -0.452  -0.439
 -0.436  -0.431  -0.430  -0.420  -0.416  -0.413  -0.410  -0.404
 -0.396  -0.385  -0.383  -0.382  -0.366  -0.355  -0.355  -0.352
 -0.350  -0.333  -0.332  -0.326  -0.325  -0.318  -0.316  -0.313
 -0.309  -0.305  -0.304  -0.297  -0.291  -0.287  -0.281  -0.276
 -0.273  -0.264  -0.259  -0.234  -0.233  -0.216  -0.216  -0.191
 -0.188  -0.172  -0.166  -0.162  -0.151  -0.143  -0.139  -0.136
 -0.126

          Ground-State Mulliken Net Atomic Charges

     Atom                 Charge (a.u.)
  ----------------------------------------
      1 O                    -0.209357
      2 C                     0.213231
      3 C                    -0.081047
      4 C                    -0.079068
      5 C                     0.208573
      6 O                    -0.185085
      7 C                    -0.052530
      8 C                    -0.062798
      9 O                    -0.168541
     10 C                     0.220456
     11 C                    -0.089460
     12 C                    -0.081563
     13 C                     0.213722
     14 O                    -0.205601
     15 O                    -0.169529
     16 O                    -0.166109
     17 O                    -0.199092
     18 C                    -0.127886
     19 C                     0.026735
     20 C                    -0.145066
     21 C                    -0.143664
     22 C                     0.025275
     23 O                    -0.187191
     24 H                     0.083192
     25 H                     0.082703
     26 H                     0.089759
     27 H                     0.078212
     28 H                     0.074463
     29 H                     0.078337
     30 H                     0.072853
     31 H                     0.087458
     32 O                    -0.202463
     33 C                    -0.129589
     34 C                     0.027995
     35 C                    -0.143397
     36 C                    -0.143865
     37 C                     0.023811
     38 O                    -0.179472
     39 H                     0.087100
     40 H                     0.090532
     41 H                     0.088504
     42 H                     0.095191
     43 H                     0.079857
     44 H                     0.071799
     45 H                     0.078412
     46 H                     0.073200
     47 H                     0.081516
     48 H                     0.090090
     49 H                     0.094755
     50 H                     0.094044
     51 H                     0.096037
     52 H                     0.090216
     53 H                     0.087842
     54 H                     0.089650
     55 H                     0.076819
     56 H                     0.080034
  ----------------------------------------
  Sum of atomic charges =     0.000000

                    Cartesian Multipole Moments
 -----------------------------------------------------------------
    Charge (ESU x 10^10)
                -0.0000
    Dipole Moment (Debye)
         X      -0.1534      Y      -1.5903      Z       2.4446
       Tot       2.9204
    Quadrupole Moments (Debye-Ang)
        XX    -144.4559     XY      10.0279     YY    -177.3682
        XZ      -8.9584     YZ       2.3321     ZZ    -145.4247

 Total job time:  220.06s(wall), 10505.50s(cpu)
        *  Thank you very much for using Q-Chem.  Have a nice day.  *
