 Q-Chem 5.0, Q-Chem, Inc., Pleasanton, CA (2017)
 Q-Chem 5.0.1 for Intel X86 EM64T Linux

User input:
--------------------------------------------------------------
$molecule
0  1
O -3.94934 -3.66094 2.70899
C -3.26408 -4.56952 2.26188
C -3.36658 -6.02376 2.66595
C -2.09215 -6.69516 3.20345
C -0.90361 -5.79095 3.44399
O -1.33324 -4.52844 3.73882
C -2.37481 -4.50293 4.72051
C -3.39473 -3.42231 4.37678
O -3.52318 -2.50393 5.47357
C -3.66886 -3.07246 6.69615
C -4.33085 -4.42863 6.63926
C -5.80088 -4.45051 7.08292
C -6.48486 -3.10098 7.17033
O -7.64647 -2.91531 7.50313
O -2.35193 -4.25312 1.29004
O -5.8917 -1.98833 6.6605
O -3.5021 -2.44055 7.72958
C -6.44317 -0.72239 6.61946
C -4.70417 -5.7253 5.75926
C -4.98462 -6.99895 6.63371
C -6.45278 -6.81987 6.87415
C -6.62495 -5.43746 6.28205
O -5.9161 -5.48024 5.10633
H -3.67245 -4.92677 7.38412
H -5.82934 -4.73355 8.16229
H -3.99614 -6.04512 5.09914
H -4.87589 -7.98011 6.13337
H -4.35709 -7.01285 7.55023
H -7.03505 -7.51476 6.22602
H -6.76791 -6.94067 7.93314
H -7.70356 -5.18365 6.18385
O 0.24752 -6.02676 3.10101
C -2.14819 -2.98432 0.7891
C -4.36067 -7.22886 2.85356
C -4.11553 -8.40921 1.87405
C -2.83848 -9.02818 2.46856
C -2.5859 -8.08709 3.66617
O -3.9174 -7.86012 4.03684
H -3.41695 -6.19316 1.56888
H -1.61705 -7.00405 2.24271
H -1.8183 -2.29999 1.59892
H -5.41967 -6.89472 2.85979
H -4.94214 -9.14397 2.00091
H -4.05695 -8.1321 0.79947
H -3.09078 -10.03847 2.86223
H -1.98326 -9.12658 1.76566
H -1.93317 -8.53207 4.44619
H -3.08347 -2.60024 0.32897
H -1.35714 -3.0233 0.0126
H -5.71775 -0.02624 6.15087
H -6.66417 -0.3689 7.64918
H -7.37438 -0.7285 6.01381
H -2.72437 -2.59889 3.89289
H -4.52986 -3.6643 4.54582
H -1.7686 -3.95079 5.47186
H -2.26137 -5.31059 5.47531
$end

$opt
CONSTRAINT
tors           1           2           3           4    -123.158
tors           3           4           5           6     +28.421
tors           4           5           6           7     +47.368
tors           5           6           7           8    -142.105
tors           6           7           8           9    -123.158
tors           7           8           9          10     -47.368
tors           8           9          10          11     -28.421
tors           9          10          11          12    -104.211
tors          11          12          13          14    -180.000
ENDCONSTRAINT
$end

$rem
JOBTYPE                   OPT
METHOD                    B3LYP
DFT_D                     d3_op
BASIS                     STO-3G
GEOM_OPT_MAX_CYCLES       100
GEOM_OPT_TOL_GRADIENT     300
GEOM_OPT_TOL_DISPLACEMENT 1200
GEOM_OPT_TOL_ENERGY       100
SYMMETRY                  False
THRESH                    12
SCF_CONVERGENCE           8
MAX_SUB_FILE_NUM          128
MEM_STATIC                400
MEM_TOTAL                 4000
$end
--------------------------------------------------------------

   16   -1509.7089879126      5.81E-09 Convergence criterion met
 Total energy in the final basis set = -1509.70898791
   14   -1509.8173060590      6.46E-09 Convergence criterion met
 Total energy in the final basis set = -1509.81730606
   14   -1509.8968366801      8.67E-09 Convergence criterion met
 Total energy in the final basis set = -1509.89683668
   13   -1509.9565748379      8.43E-09 Convergence criterion met
 Total energy in the final basis set = -1509.95657484
   13   -1510.0031239773      8.08E-09 Convergence criterion met
 Total energy in the final basis set = -1510.00312398
   13   -1510.0399109669      7.38E-09 Convergence criterion met
 Total energy in the final basis set = -1510.03991097
   13   -1510.0702921764      7.31E-09 Convergence criterion met
 Total energy in the final basis set = -1510.07029218
   13   -1510.0961280116      5.97E-09 Convergence criterion met
   11   -1510.2397391079      6.16E-09 Convergence criterion met
 Total energy in the final basis set = -1510.23973911
   11   -1510.2397456279      3.21E-09 Convergence criterion met
 Total energy in the final basis set = -1510.23974563
    9   -1510.2397500758      6.45E-09 Convergence criterion met
 Total energy in the final basis set = -1510.23975008
    9   -1510.2397526834      3.94E-09 Convergence criterion met
 Total energy in the final basis set = -1510.23975268
    9   -1510.2397540140      3.87E-09 Convergence criterion met
 Total energy in the final basis set = -1510.23975401
    9   -1510.2397553777      2.91E-09 Convergence criterion met
 Total energy in the final basis set = -1510.23975538

             Standard Nuclear Orientation (Angstroms)
    I     Atom           X                Y                Z
 ----------------------------------------------------------------
    1      O      -1.0662904055    -1.3960575072    -2.0017446750
    2      C      -2.2325576883    -1.4426211305    -1.5515097978
    3      C      -3.1223235576    -0.2316169025    -1.1167007461
    4      C      -3.6858521480    -0.2212789923     0.3669884219
    5      C      -3.2095121698    -1.2688633964     1.4736557950
    6      O      -1.9189591873    -1.8976219658     1.5016788080
    7      C      -0.7733537583    -0.9594410166     1.3082060659
    8      C       0.3093032144    -1.7020501964     0.4262086168
    9      O       1.6640593111    -1.8268739140     0.9943580580
   10      C       2.3843044532    -0.7444341538     1.5989385450
   11      C       2.2735026472     0.8282959284     1.2915861037
   12      C       3.5207120521     1.3448130936     0.4262132711
   13      C       4.3113379892     0.3114480266    -0.4581574004
   14      O       5.2985604926     0.5823346803    -1.1771824409
   15      O      -2.9941146434    -2.6355264651    -1.3800967636
   16      O       3.6737987496    -0.9604928748    -0.4376711816
   17      O       3.2529532521    -1.1005940053     2.4314846857
   18      C       4.3887670149    -1.9299799737    -1.2951731387
   19      C       1.0940922240     1.5444499643     0.4982321621
   20      C       1.0658381746     3.0552030274     0.9634877189
   21      C       2.3233889351     3.6300873905     0.2182538634
   22      C       2.8101751351     2.3547100259    -0.5723201672
   23      O       1.5604477439     1.6345549987    -0.9027306853
   24      H       2.3498628667     1.2811986401     2.2966882893
   25      H       4.2576988397     1.8625136256     1.0667295356
   26      H       0.0998196269     1.0836317348     0.5279749074
   27      H       0.1346057237     3.5311466002     0.6169274665
   28      H       1.1291561547     3.1587726558     2.0581583413
   29      H       2.0512808996     4.4366343399    -0.4811461223
   30      H       3.0946808209     4.0082995557     0.9083437681
   31      H       3.3989333928     2.5637424117    -1.4870022638
   32      O      -4.0618079728    -1.6918869183     2.2909944671
   33      C      -2.1945438143    -3.8215943445    -1.7673151741
   34      C      -2.3534038586     1.1522336067    -1.1920551545
   35      C      -3.4139729822     2.2886889416    -1.4259244688
   36      C      -4.1436187027     2.3059563128    -0.0290700740
   37      C      -3.2898521893     1.2624896591     0.7913138530
   38      O      -1.9299835902     1.4050647030     0.2101080707
   39      H      -3.9842413782    -0.2168180613    -1.8093459095
   40      H      -4.7838079852    -0.3366003620     0.3568055127
   41      H      -1.3651243198    -3.9966936473    -1.0523113625
   42      H      -1.4703947011     1.1464120821    -1.8614143738
   43      H      -2.9109221100     3.2476985044    -1.6289739713
   44      H      -4.0950102134     2.0599858250    -2.2609845023
   45      H      -4.0959207284     3.3005753929     0.4419133908
   46      H      -5.1995036711     1.9997008647    -0.0998832717
   47      H      -3.2603848274     1.4342881118     1.8850022314
   48      H      -1.7696568661    -3.7127906145    -2.7856129535
   49      H      -2.8901681316    -4.6802109421    -1.7399330087
   50      H       3.8385481644    -2.8831977050    -1.1909898631
   51      H       5.4393546774    -2.0667927768    -0.9674705369
   52      H       4.3858106047    -1.6085478602    -2.3569393651
   53      H      -0.0187421686    -2.7564107362     0.3080574564
   54      H       0.3362820602    -1.2445441267    -0.5891313765
   55      H      -0.3494114152    -0.7206898057     2.3085965409
   56      H      -1.1453359520    -0.0224448034     0.8254635045
 ----------------------------------------------------------------

    9   -1510.2397553671      1.82E-09 Convergence criterion met
 Total energy in the final basis set = -1510.23975537
 Final energy is   -1510.23975536715
 **  OPTIMIZATION CONVERGED  **

                    Orbital Energies (a.u.)
 --------------------------------------------------------------

 Alpha MOs
 -- Occupied --
-18.951 -18.937 -18.929 -18.922 -18.910 -18.892 -18.883 -18.879
-18.867 -18.850 -10.116 -10.102 -10.096 -10.090 -10.083 -10.081
-10.073 -10.061 -10.059 -10.057 -10.055 -10.051 -10.051 -10.049
-10.040 -10.038 -10.033 -10.029 -10.018 -10.015  -1.027  -1.010
 -1.007  -1.000  -0.985  -0.968  -0.952  -0.934  -0.932  -0.915
 -0.782  -0.756  -0.738  -0.725  -0.717  -0.701  -0.695  -0.674
 -0.658  -0.614  -0.600  -0.588  -0.566  -0.558  -0.542  -0.536
 -0.528  -0.505  -0.493  -0.478  -0.477  -0.465  -0.454  -0.450
 -0.432  -0.430  -0.425  -0.423  -0.420  -0.411  -0.408  -0.403
 -0.394  -0.387  -0.379  -0.374  -0.373  -0.363  -0.360  -0.357
 -0.350  -0.345  -0.334  -0.332  -0.328  -0.326  -0.322  -0.319
 -0.312  -0.310  -0.305  -0.302  -0.297  -0.294  -0.288  -0.282
 -0.269  -0.267  -0.265  -0.239  -0.234  -0.232  -0.212  -0.191
 -0.181  -0.174  -0.171  -0.165  -0.154  -0.149  -0.145  -0.143
 -0.128

          Ground-State Mulliken Net Atomic Charges

     Atom                 Charge (a.u.)
  ----------------------------------------
      1 O                    -0.211838
      2 C                     0.211451
      3 C                    -0.084666
      4 C                    -0.082686
      5 C                     0.204330
      6 O                    -0.178103
      7 C                    -0.078677
      8 C                    -0.054986
      9 O                    -0.176095
     10 C                     0.214649
     11 C                    -0.084176
     12 C                    -0.077961
     13 C                     0.211265
     14 O                    -0.218504
     15 O                    -0.165002
     16 O                    -0.162689
     17 O                    -0.213702
     18 C                    -0.123991
     19 C                     0.010133
     20 C                    -0.143099
     21 C                    -0.145140
     22 C                     0.023804
     23 O                    -0.196827
     24 H                     0.082866
     25 H                     0.085871
     26 H                     0.094955
     27 H                     0.076237
     28 H                     0.071418
     29 H                     0.075944
     30 H                     0.074104
     31 H                     0.084578
     32 O                    -0.196172
     33 C                    -0.127537
     34 C                     0.023339
     35 C                    -0.141480
     36 C                    -0.143448
     37 C                     0.023990
     38 O                    -0.188266
     39 H                     0.090139
     40 H                     0.093384
     41 H                     0.091745
     42 H                     0.101747
     43 H                     0.083213
     44 H                     0.078819
     45 H                     0.082722
     46 H                     0.079766
     47 H                     0.089024
     48 H                     0.092519
     49 H                     0.095528
     50 H                     0.096312
     51 H                     0.091220
     52 H                     0.089547
     53 H                     0.088411
     54 H                     0.098452
     55 H                     0.077937
     56 H                     0.105624
  ----------------------------------------
  Sum of atomic charges =    -0.000000

                    Cartesian Multipole Moments
 -----------------------------------------------------------------
    Charge (ESU x 10^10)
                -0.0000
    Dipole Moment (Debye)
         X      -3.6211      Y       2.7940      Z      -2.8468
       Tot       5.3873
    Quadrupole Moments (Debye-Ang)
        XX    -167.4409     XY      -6.0050     YY    -152.8479
        XZ       7.1924     YZ      14.3168     ZZ    -166.0996

 Total job time:  115.33s(wall), 5504.01s(cpu)
        *  Thank you very much for using Q-Chem.  Have a nice day.  *
