 Q-Chem 5.0, Q-Chem, Inc., Pleasanton, CA (2017)
 Q-Chem 5.0.1 for Intel X86 EM64T Linux

User input:
--------------------------------------------------------------
$molecule
0  1
O -1.0662904055 -1.3960575072 -2.001744675
C -2.2325576883 -1.4426211305 -1.5515097978
C -3.1223235576 -0.2316169025 -1.1167007461
C -3.685852148 -0.2212789923 0.3669884219
C -3.2095121698 -1.2688633964 1.473655795
O -1.9189591873 -1.8976219658 1.501678808
C -0.7733537583 -0.9594410166 1.3082060659
C 0.3093032144 -1.7020501964 0.4262086168
O 1.6640593111 -1.826873914 0.994358058
C 2.3843044532 -0.7444341538 1.598938545
C 2.2735026472 0.8282959284 1.2915861037
C 3.5207120521 1.3448130936 0.4262132711
C 4.3113379892 0.3114480266 -0.4581574004
O 5.2985604926 0.5823346803 -1.1771824409
O -2.9941146434 -2.6355264651 -1.3800967636
O 3.6737987496 -0.9604928748 -0.4376711816
O 3.2529532521 -1.1005940053 2.4314846857
C 4.3887670149 -1.9299799737 -1.2951731387
C 1.094092224 1.5444499643 0.4982321621
C 1.0658381746 3.0552030274 0.9634877189
C 2.3233889351 3.6300873905 0.2182538634
C 2.8101751351 2.3547100259 -0.5723201672
O 1.5604477439 1.6345549987 -0.9027306853
H 2.3498628667 1.2811986401 2.2966882893
H 4.2576988397 1.8625136256 1.0667295356
H 0.0998196269 1.0836317348 0.5279749074
H 0.1346057237 3.5311466002 0.6169274665
H 1.1291561547 3.1587726558 2.0581583413
H 2.0512808996 4.4366343399 -0.4811461223
H 3.0946808209 4.0082995557 0.9083437681
H 3.3989333928 2.5637424117 -1.4870022638
O -4.0618079728 -1.6918869183 2.2909944671
C -2.1945438143 -3.8215943445 -1.7673151741
C -2.3534038586 1.1522336067 -1.1920551545
C -3.4139729822 2.2886889416 -1.4259244688
C -4.1436187027 2.3059563128 -0.029070074
C -3.2898521893 1.2624896591 0.791313853
O -1.9299835902 1.405064703 0.2101080707
H -3.9842413782 -0.2168180613 -1.8093459095
H -4.7838079852 -0.336600362 0.3568055127
H -1.3651243198 -3.9966936473 -1.0523113625
H -1.4703947011 1.1464120821 -1.8614143738
H -2.91092211 3.2476985044 -1.6289739713
H -4.0950102134 2.059985825 -2.2609845023
H -4.0959207284 3.3005753929 0.4419133908
H -5.1995036711 1.9997008647 -0.0998832717
H -3.2603848274 1.4342881118 1.8850022314
H -1.7696568661 -3.7127906145 -2.7856129535
H -2.8901681316 -4.6802109421 -1.7399330087
H 3.8385481644 -2.883197705 -1.1909898631
H 5.4393546774 -2.0667927768 -0.9674705369
H 4.3858106047 -1.6085478602 -2.3569393651
H -0.0187421686 -2.7564107362 0.3080574564
H 0.3362820602 -1.2445441267 -0.5891313765
H -0.3494114152 -0.7206898057 2.3085965409
H -1.145335952 -0.0224448034 0.8254635045
$end

$rem
JOBTYPE                   OPT
METHOD                    B3LYP
DFT_D                     d3_op
BASIS                     STO-3G
GEOM_OPT_MAX_CYCLES       100
GEOM_OPT_TOL_GRADIENT     300
GEOM_OPT_TOL_DISPLACEMENT 1200
GEOM_OPT_TOL_ENERGY       100
SYMMETRY                  False
THRESH                    12
SCF_CONVERGENCE           8
MAX_SUB_FILE_NUM          128
MEM_STATIC                400
MEM_TOTAL                 4000
$end
--------------------------------------------------------------

   16   -1510.2394770000      6.35E-09 Convergence criterion met
 Total energy in the final basis set = -1510.23947700
   15   -1510.2419559924      6.39E-09 Convergence criterion met
 Total energy in the final basis set = -1510.24195599
   14   -1510.2465067582      7.24E-09 Convergence criterion met
 Total energy in the final basis set = -1510.24650676
   14   -1510.2435466913      3.39E-09 Convergence criterion met
 Total energy in the final basis set = -1510.24354669
   14   -1510.2498375001      9.03E-09 Convergence criterion met
 Total energy in the final basis set = -1510.24983750
   14   -1510.2495627022      3.39E-09 Convergence criterion met
 Total energy in the final basis set = -1510.24956270
   14   -1510.2509365497      9.56E-09 Convergence criterion met
 Total energy in the final basis set = -1510.25093655
   14   -1510.2531826612      2.31E-09 Convergence criterion met
   11   -1510.2789043863      4.94E-09 Convergence criterion met
 Total energy in the final basis set = -1510.27890439
   11   -1510.2789087910      7.64E-09 Convergence criterion met
 Total energy in the final basis set = -1510.27890879
   10   -1510.2789064721      7.85E-09 Convergence criterion met
 Total energy in the final basis set = -1510.27890647
   10   -1510.2789094439      6.75E-09 Convergence criterion met
 Total energy in the final basis set = -1510.27890944
    9   -1510.2789126262      7.27E-09 Convergence criterion met
 Total energy in the final basis set = -1510.27891263
    9   -1510.2789140192      8.31E-09 Convergence criterion met
 Total energy in the final basis set = -1510.27891402

             Standard Nuclear Orientation (Angstroms)
    I     Atom           X                Y                Z
 ----------------------------------------------------------------
    1      O       1.1371765300     1.9523030185     1.0928375796
    2      C       2.1009200694     1.1628291226     1.2352642225
    3      C       3.4288239629     1.1673235840     0.3953450614
    4      C       3.7511275381    -0.2003890500    -0.3510243721
    5      C       2.8221647545    -1.4248434242     0.0702261246
    6      O       1.4010917976    -1.4021715758    -0.1051415277
    7      C       0.9166662547    -0.6671751060    -1.3019404768
    8      C      -0.6312552537    -0.4898446020    -1.1334249672
    9      O      -0.9808644407     0.8041192759    -1.7724646902
   10      C      -2.1675749747     1.4598802667    -1.3157860748
   11      C      -2.7244809800     1.3185045573     0.1786688629
   12      C      -3.6171689492     0.0470678324     0.5078147414
   13      C      -3.7292128670    -0.9613026775    -0.6852772132
   14      O      -3.5277186863    -0.7120466659    -1.8946372171
   15      O       2.2144861439     0.1481109303     2.2194517028
   16      O      -4.1317208736    -2.2364907141    -0.1826091786
   17      O      -2.6666337447     2.3167194993    -2.0822846361
   18      C      -4.2466483797    -3.2086891106    -1.2947895157
   19      C      -1.6621881469     1.2515446455     1.3503027088
   20      C      -2.3740321063     1.6698376679     2.6935299943
   21      C      -3.2323764529     0.3884864144     3.0189249668
   22      C      -2.8861372969    -0.5344356740     1.7895808976
   23      O      -1.4576951505    -0.2128261702     1.5422779607
   24      H      -3.3406495761     2.2270211230     0.2967041823
   25      H      -4.6466272050     0.3545158689     0.7706090406
   26      H      -0.6643612023     1.7186032578     1.1663607372
   27      H      -1.6284534556     1.8633015469     3.4805146749
   28      H      -2.9921289940     2.5724231820     2.5656655740
   29      H      -2.9080367776    -0.0857476322     3.9589852113
   30      H      -4.3112331049     0.6016220405     3.0835677672
   31      H      -3.0228148191    -1.6228841341     1.9413430887
   32      O       3.3100250493    -2.3982420822     0.6909314704
   33      C       1.0083347219     0.0699737328     3.0822427264
   34      C       3.3485810843     2.1785410090    -0.8163173254
   35      C       4.8051971301     2.4489988415    -1.3518770350
   36      C       5.1142189177     1.0950606259    -2.0970949910
   37      C       3.7752781849     0.2951658177    -1.8622792782
   38      O       2.7457426557     1.3669687841    -1.9048711771
   39      H       4.2554130705     1.4255363985     1.0823100744
   40      H       4.7619878313    -0.5416710884    -0.0654575290
   41      H       0.0900764071    -0.2079470374     2.5058554502
   42      H       2.7240589511     3.0714446247    -0.6181973698
   43      H       4.8065705868     3.3015781096    -2.0495097755
   44      H       5.5154487995     2.6584800530    -0.5361471346
   45      H       5.2779912843     1.2575106493    -3.1743994912
   46      H       5.9890077994     0.5701272263    -1.6812343302
   47      H       3.5538511623    -0.4823301421    -2.6181612911
   48      H       0.8365823532     1.0348275155     3.6010163697
   49      H       1.2369296745    -0.7104845317     3.8302350863
   50      H      -4.5541448886    -4.1646625245    -0.8325204253
   51      H      -3.2777061914    -3.3436409601    -1.8175825230
   52      H      -5.0074316790    -2.8919407413    -2.0371625087
   53      H      -1.1675498601    -1.3022476730    -1.6679742259
   54      H      -0.9087266011    -0.5218989124    -0.0460583233
   55      H       1.1343676537    -1.2744363502    -2.2073029276
   56      H       1.4215380622     0.3273802077    -1.4319215538
 ----------------------------------------------------------------

    9   -1510.2789146725      4.19E-09 Convergence criterion met
 Total energy in the final basis set = -1510.27891467
 Final energy is   -1510.27891467253
 **  OPTIMIZATION CONVERGED  **

                    Orbital Energies (a.u.)
 --------------------------------------------------------------

 Alpha MOs
 -- Occupied --
-18.945 -18.944 -18.923 -18.912 -18.912 -18.905 -18.887 -18.886
-18.863 -18.847 -10.111 -10.109 -10.091 -10.082 -10.076 -10.071
-10.070 -10.070 -10.055 -10.049 -10.046 -10.045 -10.038 -10.036
-10.032 -10.032 -10.031 -10.029 -10.028 -10.026  -1.021  -1.019
 -0.994  -0.993  -0.985  -0.980  -0.946  -0.945  -0.923  -0.911
 -0.771  -0.770  -0.729  -0.727  -0.712  -0.711  -0.684  -0.669
 -0.660  -0.602  -0.600  -0.570  -0.557  -0.554  -0.545  -0.544
 -0.520  -0.513  -0.487  -0.477  -0.474  -0.461  -0.452  -0.444
 -0.441  -0.439  -0.422  -0.419  -0.412  -0.409  -0.406  -0.404
 -0.390  -0.388  -0.381  -0.365  -0.363  -0.357  -0.354  -0.348
 -0.346  -0.343  -0.339  -0.334  -0.327  -0.320  -0.319  -0.315
 -0.311  -0.309  -0.306  -0.305  -0.296  -0.287  -0.282  -0.279
 -0.269  -0.265  -0.260  -0.251  -0.245  -0.226  -0.221  -0.187
 -0.184  -0.171  -0.165  -0.164  -0.160  -0.147  -0.144  -0.136
 -0.125

          Ground-State Mulliken Net Atomic Charges

     Atom                 Charge (a.u.)
  ----------------------------------------
      1 O                    -0.218570
      2 C                     0.218435
      3 C                    -0.081580
      4 C                    -0.085801
      5 C                     0.206101
      6 O                    -0.180422
      7 C                    -0.073404
      8 C                    -0.075379
      9 O                    -0.175595
     10 C                     0.211277
     11 C                    -0.087134
     12 C                    -0.081376
     13 C                     0.210943
     14 O                    -0.203306
     15 O                    -0.163352
     16 O                    -0.170064
     17 O                    -0.210409
     18 C                    -0.127922
     19 C                     0.005777
     20 C                    -0.144274
     21 C                    -0.143321
     22 C                     0.026754
     23 O                    -0.187200
     24 H                     0.087374
     25 H                     0.088793
     26 H                     0.118485
     27 H                     0.077859
     28 H                     0.077898
     29 H                     0.079587
     30 H                     0.077374
     31 H                     0.095888
     32 O                    -0.204110
     33 C                    -0.145323
     34 C                     0.024888
     35 C                    -0.142838
     36 C                    -0.142183
     37 C                     0.022538
     38 O                    -0.180518
     39 H                     0.088355
     40 H                     0.088035
     41 H                     0.115972
     42 H                     0.095451
     43 H                     0.081905
     44 H                     0.076169
     45 H                     0.081457
     46 H                     0.077358
     47 H                     0.087308
     48 H                     0.076775
     49 H                     0.088056
     50 H                     0.092963
     51 H                     0.091738
     52 H                     0.092158
     53 H                     0.070264
     54 H                     0.110563
     55 H                     0.067069
     56 H                     0.112510
  ----------------------------------------
  Sum of atomic charges =    -0.000000

                    Cartesian Multipole Moments
 -----------------------------------------------------------------
    Charge (ESU x 10^10)
                -0.0000
    Dipole Moment (Debye)
         X       0.3264      Y      -0.0948      Z       2.7574
       Tot       2.7783
    Quadrupole Moments (Debye-Ang)
        XX    -140.3294     XY      18.2612     YY    -163.5798
        XZ     -15.2347     YZ      13.3364     ZZ    -161.2771

 Total job time:  300.43s(wall), 14340.01s(cpu)
        *  Thank you very much for using Q-Chem.  Have a nice day.  *
