 Q-Chem 5.0, Q-Chem, Inc., Pleasanton, CA (2017)
 Q-Chem 5.0.1 for Intel X86 EM64T Linux

User input:
--------------------------------------------------------------
$molecule
0  1
O -3.94934 -3.66094 2.70899
C -3.26408 -4.56952 2.26188
C -3.36658 -6.02376 2.66595
C -2.27333 -6.57303 3.59705
C -1.29943 -5.56331 4.16282
O -0.10303 -5.65673 3.51066
C 0.31183 -4.4226 2.91562
C 0.09109 -4.46603 1.40714
O 1.34571 -4.65565 0.73418
C 1.27894 -4.71112 -0.61918
C 1.42018 -6.11476 -1.15819
C 0.90999 -6.3115 -2.59321
C 0.67432 -5.04428 -3.39028
O -0.41842 -4.5539 -3.63522
O -2.73681 -4.3657 1.02784
O 1.78186 -4.343 -3.76198
O 0.83294 -3.74738 -1.22246
C 1.75684 -3.15613 -4.46419
C 2.86788 -6.6189 -1.2968
C 2.87772 -8.14651 -1.24788
C 2.22825 -8.47886 -2.57954
C 2.10807 -7.07498 -3.18645
O 3.20462 -6.37624 -2.64173
H 0.86441 -6.78102 -0.45812
H -0.04679 -6.8796 -2.60334
H 3.55572 -6.19701 -0.53208
H 3.94541 -8.46136 -1.28501
H 2.39474 -8.60508 -0.35825
H 2.93334 -9.10904 -3.16552
H 1.23546 -8.97459 -2.51325
H 2.06108 -7.1249 -4.29668
O -1.63289 -4.61198 4.85992
C -2.84928 -3.19051 0.30892
C -4.61011 -6.2974 3.54443
C -4.98954 -7.77735 3.47697
C -3.87822 -8.3917 4.30088
C -3.13183 -7.12984 4.74351
O -4.14598 -6.16303 4.86545
H -3.47221 -6.61909 1.73027
H -1.68842 -7.37604 3.092
H -2.40445 -2.34583 0.87743
H -5.48868 -5.67411 3.26783
H -5.94777 -7.90084 4.03088
H -5.10433 -8.1871 2.45044
H -4.33177 -8.89665 5.18278
H -3.21809 -9.10093 3.75618
H -2.53406 -7.33268 5.65977
H -3.91766 -2.97293 0.09667
H -2.30949 -3.30019 -0.65418
H 2.79762 -2.81082 -4.63122
H 1.21052 -2.38014 -3.88673
H 1.2669 -3.30613 -5.44997
H -0.61626 -5.27467 1.13432
H -0.28189 -3.4694 1.08821
H 1.35452 -4.15833 3.1927
H -0.29634 -3.55951 3.27566
$end

$opt
CONSTRAINT
tors           1           2           3           4    -104.211
tors           3           4           5           6    -104.211
tors           4           5           6           7    +123.158
tors           5           6           7           8    -104.211
tors           6           7           8           9    -104.211
tors           7           8           9          10    -180.000
tors           8           9          10          11    -104.211
tors           9          10          11          12    +161.053
tors          11          12          13          14    -104.211
ENDCONSTRAINT
$end

$rem
JOBTYPE                   OPT
METHOD                    B3LYP
DFT_D                     d3_op
BASIS                     STO-3G
GEOM_OPT_MAX_CYCLES       100
GEOM_OPT_TOL_GRADIENT     300
GEOM_OPT_TOL_DISPLACEMENT 1200
GEOM_OPT_TOL_ENERGY       100
SYMMETRY                  False
THRESH                    12
SCF_CONVERGENCE           8
MAX_SUB_FILE_NUM          128
MEM_STATIC                400
MEM_TOTAL                 4000
$end
--------------------------------------------------------------

   15   -1510.1017009105      7.96E-09 Convergence criterion met
 Total energy in the final basis set = -1510.10170091
   13   -1510.1742402303      7.81E-09 Convergence criterion met
 Total energy in the final basis set = -1510.17424023
   14   -1510.2124606417      8.38E-09 Convergence criterion met
 Total energy in the final basis set = -1510.21246064
   14   -1510.2282700713      7.37E-09 Convergence criterion met
 Total energy in the final basis set = -1510.22827007
   14   -1510.2372545770      6.78E-09 Convergence criterion met
 Total energy in the final basis set = -1510.23725458
   13   -1510.2402888120      4.06E-09 Convergence criterion met
 Total energy in the final basis set = -1510.24028881
   13   -1510.2417679614      3.90E-09 Convergence criterion met
 Total energy in the final basis set = -1510.24176796
   12   -1510.2420888251      6.32E-09 Convergence criterion met
   10   -1510.2467030349      9.65E-09 Convergence criterion met
 Total energy in the final basis set = -1510.24670303
   10   -1510.2467177893      8.91E-09 Convergence criterion met
 Total energy in the final basis set = -1510.24671779
   10   -1510.2467281768      7.17E-09 Convergence criterion met
 Total energy in the final basis set = -1510.24672818
    9   -1510.2467346639      8.00E-09 Convergence criterion met
 Total energy in the final basis set = -1510.24673466
    9   -1510.2467390270      6.00E-09 Convergence criterion met
 Total energy in the final basis set = -1510.24673903
    9   -1510.2467401935      6.14E-09 Convergence criterion met
 Total energy in the final basis set = -1510.24674019

             Standard Nuclear Orientation (Angstroms)
    I     Atom           X                Y                Z
 ----------------------------------------------------------------
    1      O       4.2557000371    -2.6759038714    -0.4705999891
    2      C       3.3084539814    -1.8686165589    -0.3693940958
    3      C       3.2225013028    -0.4258134256    -0.9901561411
    4      C       3.4451124628     0.7406555405     0.0676192209
    5      C       3.2209589533     0.2892882498     1.5542397336
    6      O       1.9438693332     0.7885225386     2.0264878719
    7      C       1.0625931216    -0.2950039927     2.5062380131
    8      C      -0.0645726436    -0.5928527671     1.4410805958
    9      O      -1.3173263799     0.0042305989     1.9540328649
   10      C      -2.3707914271    -0.2626748929     0.9794871647
   11      C      -2.7121004859     1.0189629477     0.1424201056
   12      C      -3.4723743296     0.7300010782    -1.2171840890
   13      C      -3.9172531752    -0.7702394521    -1.4009178237
   14      O      -3.3688778830    -1.6149798813    -2.1430820831
   15      O       2.1053776654    -2.1443123930     0.3558156476
   16      O      -5.1455861980    -0.9903909154    -0.7003259839
   17      O      -2.8943301531    -1.3893176663     0.8475945336
   18      C      -5.5492013659    -2.4075021867    -0.8339100815
   19      C      -3.7326355051     2.0080298771     0.8662218380
   20      C      -3.5611580750     3.4320305642     0.2063387278
   21      C      -4.2351458038     3.1927305924    -1.1960098713
   22      C      -4.7232216460     1.6948048511    -1.0545089689
   23      O      -5.0574316596     1.5674077843     0.3840319682
   24      H      -1.7552950742     1.5403769381    -0.0414182107
   25      H      -2.8428670057     0.9976150541    -2.0840980425
   26      H      -3.6892518019     1.9884835336     1.9726676379
   27      H      -4.1056602351     4.1908632602     0.7908986624
   28      H      -2.5049443748     3.7351535169     0.1293262124
   29      H      -5.0923325567     3.8659765548    -1.3545764047
   30      H      -3.5290911362     3.3173396045    -2.0326157582
   31      H      -5.5961572230     1.4221621836    -1.6779713775
   32      O       3.9593398429    -0.4605045517     2.2281211836
   33      C       2.1879323200    -3.4894184653     0.9709089628
   34      C       4.5025136729    -0.2206015132    -1.9020884948
   35      C       4.3943098763     1.1495464377    -2.6809031562
   36      C       4.7819755912     2.1799634173    -1.5552006834
   37      C       4.9157969318     1.2171855374    -0.3110197002
   38      O       5.5593198940     0.0172389649    -0.8898486386
   39      H       2.2640963433    -0.3069191588    -1.5271157372
   40      H       2.7192159959     1.5510939275    -0.1228878167
   41      H       3.0118193500    -3.5459337669     1.7115762558
   42      H       4.7561912689    -1.1036049994    -2.5196860538
   43      H       5.1083753186     1.1749965063    -3.5190884547
   44      H       3.3801777461     1.3173872747    -3.0781057905
   45      H       5.7483036154     2.6639788809    -1.7692705588
   46      H       4.0188512349     2.9600554355    -1.4055220569
   47      H       5.5105791198     1.6073856574     0.5373408514
   48      H       2.3450881075    -4.2777284005     0.2073325784
   49      H       1.2201368553    -3.6549602201     1.4792210673
   50      H      -6.5270034140    -2.4958081450    -0.3258447930
   51      H      -4.8147863716    -3.0796215709    -0.3447759495
   52      H      -5.6515802178    -2.7074731506    -1.8970086607
   53      H       0.2322359351    -0.1434791828     0.4657071272
   54      H      -0.1756752898    -1.6898503890     1.2912237425
   55      H       0.5698306735     0.0519652104     3.4407961848
   56      H       1.6427132868    -1.2142058245     2.7306750000
 ----------------------------------------------------------------

    9   -1510.2467391984      2.88E-09 Convergence criterion met
 Total energy in the final basis set = -1510.24673920
 Final energy is   -1510.24673919844
 **  OPTIMIZATION CONVERGED  **

                    Orbital Energies (a.u.)
 --------------------------------------------------------------

 Alpha MOs
 -- Occupied --
-18.940 -18.925 -18.913 -18.913 -18.904 -18.895 -18.892 -18.891
-18.883 -18.862 -10.114 -10.108 -10.104 -10.093 -10.075 -10.073
-10.070 -10.066 -10.063 -10.063 -10.062 -10.055 -10.046 -10.042
-10.041 -10.038 -10.024 -10.024 -10.023 -10.023  -1.019  -1.015
 -1.008  -1.000  -0.974  -0.973  -0.946  -0.942  -0.936  -0.926
 -0.768  -0.765  -0.728  -0.725  -0.714  -0.708  -0.697  -0.669
 -0.653  -0.615  -0.601  -0.584  -0.550  -0.550  -0.541  -0.541
 -0.516  -0.514  -0.489  -0.480  -0.466  -0.462  -0.457  -0.443
 -0.437  -0.436  -0.424  -0.421  -0.412  -0.410  -0.406  -0.403
 -0.395  -0.385  -0.382  -0.369  -0.366  -0.361  -0.355  -0.352
 -0.348  -0.341  -0.338  -0.336  -0.332  -0.332  -0.330  -0.317
 -0.312  -0.310  -0.310  -0.303  -0.302  -0.290  -0.286  -0.280
 -0.277  -0.263  -0.249  -0.244  -0.243  -0.237  -0.237  -0.185
 -0.173  -0.168  -0.165  -0.163  -0.159  -0.155  -0.147  -0.147
 -0.143

          Ground-State Mulliken Net Atomic Charges

     Atom                 Charge (a.u.)
  ----------------------------------------
      1 O                    -0.201930
      2 C                     0.209987
      3 C                    -0.078594
      4 C                    -0.081781
      5 C                     0.214313
      6 O                    -0.192391
      7 C                    -0.043861
      8 C                    -0.044628
      9 O                    -0.198423
     10 C                     0.221813
     11 C                    -0.082174
     12 C                    -0.081756
     13 C                     0.210825
     14 O                    -0.222407
     15 O                    -0.179551
     16 O                    -0.165450
     17 O                    -0.177396
     18 C                    -0.126960
     19 C                     0.026985
     20 C                    -0.142662
     21 C                    -0.144999
     22 C                     0.027282
     23 O                    -0.183325
     24 H                     0.082456
     25 H                     0.082116
     26 H                     0.086548
     27 H                     0.079071
     28 H                     0.073868
     29 H                     0.078507
     30 H                     0.072906
     31 H                     0.086632
     32 O                    -0.192822
     33 C                    -0.130343
     34 C                     0.026376
     35 C                    -0.145447
     36 C                    -0.142343
     37 C                     0.024742
     38 O                    -0.184207
     39 H                     0.084243
     40 H                     0.084261
     41 H                     0.094158
     42 H                     0.089498
     43 H                     0.079467
     44 H                     0.072633
     45 H                     0.079153
     46 H                     0.073283
     47 H                     0.086275
     48 H                     0.092723
     49 H                     0.088667
     50 H                     0.088990
     51 H                     0.091741
     52 H                     0.086242
     53 H                     0.077899
     54 H                     0.084326
     55 H                     0.093892
     56 H                     0.091572
  ----------------------------------------
  Sum of atomic charges =    -0.000000

                    Cartesian Multipole Moments
 -----------------------------------------------------------------
    Charge (ESU x 10^10)
                -0.0000
    Dipole Moment (Debye)
         X      -1.1710      Y       2.2531      Z      -1.6757
       Tot       3.0423
    Quadrupole Moments (Debye-Ang)
        XX    -182.1167     XY       6.0042     YY    -152.5547
        XZ      -1.3511     YZ      -6.5451     ZZ    -160.2720

 Total job time:  88.60s(wall), 4225.44s(cpu)
        *  Thank you very much for using Q-Chem.  Have a nice day.  *
