 Q-Chem 5.0, Q-Chem, Inc., Pleasanton, CA (2017)
 Q-Chem 5.0.1 for Intel X86 EM64T Linux

User input:
--------------------------------------------------------------
$molecule
0  1
O 4.2557000371 -2.6759038714 -0.4705999891
C 3.3084539814 -1.8686165589 -0.3693940958
C 3.2225013028 -0.4258134256 -0.9901561411
C 3.4451124628 0.7406555405 0.0676192209
C 3.2209589533 0.2892882498 1.5542397336
O 1.9438693332 0.7885225386 2.0264878719
C 1.0625931216 -0.2950039927 2.5062380131
C -0.0645726436 -0.5928527671 1.4410805958
O -1.3173263799 0.0042305989 1.9540328649
C -2.3707914271 -0.2626748929 0.9794871647
C -2.7121004859 1.0189629477 0.1424201056
C -3.4723743296 0.7300010782 -1.217184089
C -3.9172531752 -0.7702394521 -1.4009178237
O -3.368877883 -1.6149798813 -2.1430820831
O 2.1053776654 -2.144312393 0.3558156476
O -5.145586198 -0.9903909154 -0.7003259839
O -2.8943301531 -1.3893176663 0.8475945336
C -5.5492013659 -2.4075021867 -0.8339100815
C -3.7326355051 2.0080298771 0.866221838
C -3.561158075 3.4320305642 0.2063387278
C -4.2351458038 3.1927305924 -1.1960098713
C -4.723221646 1.6948048511 -1.0545089689
O -5.0574316596 1.5674077843 0.3840319682
H -1.7552950742 1.5403769381 -0.0414182107
H -2.8428670057 0.9976150541 -2.0840980425
H -3.6892518019 1.9884835336 1.9726676379
H -4.1056602351 4.1908632602 0.7908986624
H -2.5049443748 3.7351535169 0.1293262124
H -5.0923325567 3.8659765548 -1.3545764047
H -3.5290911362 3.3173396045 -2.0326157582
H -5.596157223 1.4221621836 -1.6779713775
O 3.9593398429 -0.4605045517 2.2281211836
C 2.18793232 -3.4894184653 0.9709089628
C 4.5025136729 -0.2206015132 -1.9020884948
C 4.3943098763 1.1495464377 -2.6809031562
C 4.7819755912 2.1799634173 -1.5552006834
C 4.9157969318 1.2171855374 -0.3110197002
O 5.559319894 0.0172389649 -0.8898486386
H 2.2640963433 -0.3069191588 -1.5271157372
H 2.7192159959 1.5510939275 -0.1228878167
H 3.01181935 -3.5459337669 1.7115762558
H 4.7561912689 -1.1036049994 -2.5196860538
H 5.1083753186 1.1749965063 -3.5190884547
H 3.3801777461 1.3173872747 -3.0781057905
H 5.7483036154 2.6639788809 -1.7692705588
H 4.0188512349 2.9600554355 -1.4055220569
H 5.5105791198 1.6073856574 0.5373408514
H 2.3450881075 -4.2777284005 0.2073325784
H 1.2201368553 -3.6549602201 1.4792210673
H -6.527003414 -2.495808145 -0.325844793
H -4.8147863716 -3.0796215709 -0.3447759495
H -5.6515802178 -2.7074731506 -1.8970086607
H 0.2322359351 -0.1434791828 0.4657071272
H -0.1756752898 -1.689850389 1.2912237425
H 0.5698306735 0.0519652104 3.4407961848
H 1.6427132868 -1.2142058245 2.730675
$end

$rem
JOBTYPE                   OPT
METHOD                    B3LYP
DFT_D                     d3_op
BASIS                     STO-3G
GEOM_OPT_MAX_CYCLES       100
GEOM_OPT_TOL_GRADIENT     300
GEOM_OPT_TOL_DISPLACEMENT 1200
GEOM_OPT_TOL_ENERGY       100
SYMMETRY                  False
THRESH                    12
SCF_CONVERGENCE           8
MAX_SUB_FILE_NUM          128
MEM_STATIC                400
MEM_TOTAL                 4000
$end
--------------------------------------------------------------

   16   -1510.2468156146      5.56E-09 Convergence criterion met
 Total energy in the final basis set = -1510.24681561
   14   -1510.2517260212      9.67E-09 Convergence criterion met
 Total energy in the final basis set = -1510.25172602
   15   -1510.2573970533      2.00E-09 Convergence criterion met
 Total energy in the final basis set = -1510.25739705
   15   -1510.2629174260      2.10E-09 Convergence criterion met
 Total energy in the final basis set = -1510.26291743
   14   -1510.2678686399      9.73E-09 Convergence criterion met
 Total energy in the final basis set = -1510.26786864
   14   -1510.2721687628      5.37E-09 Convergence criterion met
 Total energy in the final basis set = -1510.27216876
   14   -1510.2763356962      6.10E-09 Convergence criterion met
 Total energy in the final basis set = -1510.27633570
   14   -1510.2799042061      2.08E-09 Convergence criterion met
   12   -1510.2924191410      5.84E-09 Convergence criterion met
 Total energy in the final basis set = -1510.29241914
   13   -1510.2924283715      4.04E-09 Convergence criterion met
 Total energy in the final basis set = -1510.29242837
   12   -1510.2925089169      3.70E-09 Convergence criterion met
 Total energy in the final basis set = -1510.29250892
   10   -1510.2925061552      5.17E-09 Convergence criterion met
 Total energy in the final basis set = -1510.29250616
   10   -1510.2925023297      3.47E-09 Convergence criterion met
 Total energy in the final basis set = -1510.29250233
    9   -1510.2925058983      8.00E-09 Convergence criterion met
 Total energy in the final basis set = -1510.29250590

             Standard Nuclear Orientation (Angstroms)
    I     Atom           X                Y                Z
 ----------------------------------------------------------------
    1      O       3.0811092815    -2.4050387678    -1.4995938157
    2      C       2.6176990102    -1.2736022920    -1.2432855732
    3      C       3.3623125667     0.1046770703    -1.3606606434
    4      C       3.3571725384     0.9707814879    -0.0322267478
    5      C       2.6896842989     0.2427176866     1.1811295544
    6      O       1.8257523802     1.1803162128     1.8440151334
    7      C       1.1681161697     0.5422836475     3.0078264653
    8      C      -0.1154961729    -0.2475210076     2.5828333919
    9      O      -1.0604651190     0.7227790975     1.9729665703
   10      C      -1.8813925302     0.0946968687     0.9933327422
   11      C      -2.8501700647     1.1648435150     0.3941121224
   12      C      -3.5390338563     0.6993487742    -0.9567962999
   13      C      -3.0274291446    -0.6945168917    -1.4840027330
   14      O      -2.0207978854    -0.8870321917    -2.2009986414
   15      O       1.2745654450    -1.0200019555    -0.8270454422
   16      O      -3.9549488780    -1.7176341845    -1.1045124427
   17      O      -1.8325009723    -1.1227528640     0.6959279114
   18      C      -3.4498725392    -3.0384737079    -1.5387528255
   19      C      -4.1262687054     1.3580688699     1.3277517007
   20      C      -4.8731109561     2.6749523378     0.8760054765
   21      C      -5.5680357302     2.1899492207    -0.4499416141
   22      C      -5.0671145177     0.6935672240    -0.5266458558
   23      O      -5.0287900942     0.2707936373     0.8935273993
   24      H      -2.2950096428     2.1121247963     0.2743357667
   25      H      -3.3464247049     1.4404731326    -1.7529770095
   26      H      -3.9141861426     1.2837878444     2.4121652228
   27      H      -5.6123323637     2.9781017915     1.6345259784
   28      H      -4.1742336774     3.5101670600     0.7096431013
   29      H      -6.6658615855     2.2238413983    -0.3652176283
   30      H      -5.2627329632     2.7762268139    -1.3312712362
   31      H      -5.7046088659     0.0077024700    -1.1161256857
   32      O       2.8752639971    -0.9312764287     1.5682368041
   33      C       0.5216648415    -2.2919898200    -0.7147577746
   34      C       4.9150763072    -0.1004672167    -1.5935225961
   35      C       5.5113336692     1.2446704341    -2.1622489166
   36      C       5.4854423001     2.1509826041    -0.8751476141
   37      C       4.9229473519     1.1406782930     0.2026248003
   38      O       5.4676040209    -0.1677503449    -0.2194991685
   39      H       2.9005001777     0.6735630287    -2.1885914755
   40      H       2.8528059727     1.9421847208    -0.1753781509
   41      H       1.0800359613    -3.0358633705    -0.1117592603
   42      H       5.1630956646    -1.0223712704    -2.1548231718
   43      H       6.5401053267     1.0893398137    -2.5243826158
   44      H       4.9040286854     1.6534437109    -2.9854247896
   45      H       6.4967508087     2.4866639706    -0.5954018421
   46      H       4.8389916046     3.0360632987    -0.9889558475
   47      H       5.2091196707     1.3622013724     1.2491953493
   48      H       0.3174492876    -2.7234960576    -1.7152270771
   49      H      -0.4340878361    -2.0250695545    -0.2162449048
   50      H      -4.2540942214    -3.7632302422    -1.3149254014
   51      H      -2.5340177028    -3.3180564921    -0.9793799001
   52      H      -3.2208529145    -3.0551533784    -2.6238667856
   53      H       0.1405296867    -1.0486043244     1.8593300575
   54      H      -0.5819046327    -0.7158475595     3.4779671425
   55      H       0.8957128354     1.3674869243     3.6962611448
   56      H       1.8628760711    -0.1616988565     3.5155245918
 ----------------------------------------------------------------

    9   -1510.2925052275      6.43E-09 Convergence criterion met
 Total energy in the final basis set = -1510.29250523
 Final energy is   -1510.29250522748
 **  OPTIMIZATION CONVERGED  **

                    Orbital Energies (a.u.)
 --------------------------------------------------------------

 Alpha MOs
 -- Occupied --
-18.948 -18.935 -18.924 -18.920 -18.892 -18.890 -18.884 -18.874
-18.864 -18.860 -10.114 -10.099 -10.092 -10.089 -10.080 -10.078
-10.065 -10.059 -10.059 -10.055 -10.053 -10.043 -10.038 -10.036
-10.035 -10.031 -10.023 -10.021 -10.019 -10.017  -1.026  -1.012
 -1.000  -0.998  -0.972  -0.967  -0.950  -0.936  -0.925  -0.924
 -0.765  -0.760  -0.731  -0.722  -0.715  -0.706  -0.698  -0.654
 -0.647  -0.620  -0.598  -0.579  -0.548  -0.541  -0.539  -0.534
 -0.518  -0.505  -0.489  -0.469  -0.464  -0.454  -0.451  -0.447
 -0.437  -0.433  -0.428  -0.418  -0.409  -0.406  -0.400  -0.399
 -0.396  -0.380  -0.371  -0.368  -0.362  -0.355  -0.352  -0.343
 -0.341  -0.338  -0.333  -0.332  -0.328  -0.326  -0.321  -0.314
 -0.309  -0.307  -0.303  -0.300  -0.289  -0.280  -0.279  -0.278
 -0.268  -0.264  -0.251  -0.245  -0.241  -0.235  -0.231  -0.189
 -0.177  -0.166  -0.166  -0.164  -0.155  -0.148  -0.143  -0.141
 -0.140

          Ground-State Mulliken Net Atomic Charges

     Atom                 Charge (a.u.)
  ----------------------------------------
      1 O                    -0.212016
      2 C                     0.213013
      3 C                    -0.079190
      4 C                    -0.078532
      5 C                     0.211691
      6 O                    -0.170376
      7 C                    -0.048473
      8 C                    -0.051223
      9 O                    -0.167969
     10 C                     0.221992
     11 C                    -0.077893
     12 C                    -0.080708
     13 C                     0.212775
     14 O                    -0.221802
     15 O                    -0.176918
     16 O                    -0.168018
     17 O                    -0.211606
     18 C                    -0.127222
     19 C                     0.025653
     20 C                    -0.143604
     21 C                    -0.144316
     22 C                     0.025983
     23 O                    -0.187121
     24 H                     0.089103
     25 H                     0.083501
     26 H                     0.083267
     27 H                     0.078340
     28 H                     0.074098
     29 H                     0.078122
     30 H                     0.073612
     31 H                     0.090034
     32 O                    -0.214322
     33 C                    -0.142444
     34 C                     0.024263
     35 C                    -0.143865
     36 C                    -0.143916
     37 C                     0.025649
     38 O                    -0.187158
     39 H                     0.084370
     40 H                     0.086436
     41 H                     0.085579
     42 H                     0.091496
     43 H                     0.077787
     44 H                     0.073126
     45 H                     0.077549
     46 H                     0.073143
     47 H                     0.081263
     48 H                     0.084567
     49 H                     0.105306
     50 H                     0.088458
     51 H                     0.090241
     52 H                     0.087451
     53 H                     0.104652
     54 H                     0.087050
     55 H                     0.091851
     56 H                     0.097273
  ----------------------------------------
  Sum of atomic charges =    -0.000000

                    Cartesian Multipole Moments
 -----------------------------------------------------------------
    Charge (ESU x 10^10)
                -0.0000
    Dipole Moment (Debye)
         X      -1.8141      Y       3.6825      Z       0.5296
       Tot       4.1391
    Quadrupole Moments (Debye-Ang)
        XX    -164.2813     XY       7.4175     YY    -156.8915
        XZ       1.3112     YZ      -0.7670     ZZ    -151.9078

 Total job time:  108.79s(wall), 5185.30s(cpu)
        *  Thank you very much for using Q-Chem.  Have a nice day.  *
