 Q-Chem 5.0, Q-Chem, Inc., Pleasanton, CA (2017)
 Q-Chem 5.0.1 for Intel X86 EM64T Linux

User input:
--------------------------------------------------------------
$molecule
0  1
O -3.94934 -3.66094 2.70899
C -3.26408 -4.56952 2.26188
C -3.36658 -6.02376 2.66595
C -2.57813 -6.46456 3.91009
C -1.91791 -5.36653 4.71416
O -2.00712 -5.64989 6.04727
C -0.95503 -6.50127 6.51364
C -1.07847 -7.88382 5.88162
O -0.33327 -8.8415 6.65001
C 0.46352 -8.32091 7.61605
C 0.85679 -9.33474 8.66398
C 2.08666 -10.18472 8.31297
C 2.93892 -9.67301 7.16907
O 2.51791 -9.29599 6.08501
O -2.4233 -4.29966 1.22825
O 4.27134 -9.52174 7.40656
O 1.25709 -7.40682 7.41823
C 5.17931 -9.02692 6.49349
C 1.31178 -8.7294 10.01002
C 1.06171 -9.73935 11.1272
C 2.09454 -10.79565 10.78641
C 2.84885 -10.08782 9.65126
O 2.71859 -8.71873 9.94953
H -0.04561 -9.95985 8.85779
H 1.7813 -11.21543 8.02942
H 0.82293 -7.75907 10.24644
H 1.36186 -9.2389 12.07611
H 0.02013 -10.11285 11.22931
H 2.74245 -10.95057 11.67739
H 1.68191 -11.76722 10.43762
H 3.88607 -10.48225 9.58985
O -1.04667 -4.63979 4.25972
C -2.2269 -3.04393 0.69287
C -4.81169 -6.4157 2.95951
C -4.98575 -7.92849 2.83953
C -4.27761 -8.38255 4.09178
C -3.85067 -7.03185 4.67419
O -4.90984 -6.17581 4.3273
H -3.02231 -6.59449 1.77108
H -1.86645 -7.21295 3.53996
H -1.83109 -2.35521 1.46973
H -5.54664 -5.88786 2.31212
H -6.06863 -8.16944 2.93371
H -4.59057 -8.35103 1.89055
H -5.03328 -8.84488 4.7665
H -3.43052 -9.08518 3.93876
H -3.77309 -7.13726 5.77229
H -3.18208 -2.6458 0.28862
H -1.48992 -3.11193 -0.13339
H 6.18856 -9.01633 6.95364
H 4.90617 -7.98912 6.20597
H 5.20433 -9.67351 5.59038
H -2.0917 -8.28868 5.93228
H -0.62054 -7.92498 4.88422
H -1.15618 -6.54701 7.60766
H 0.00621 -5.98554 6.29852
$end

$opt
CONSTRAINT
tors           1           2           3           4     -85.263
tors           3           4           5           6    +142.105
tors           4           5           6           7     +85.263
tors           5           6           7           8     -66.316
tors           6           7           8           9    -161.053
tors           7           8           9          10      -9.474
tors           8           9          10          11    +161.053
tors           9          10          11          12     +85.263
tors          11          12          13          14     -47.368
ENDCONSTRAINT
$end

$rem
JOBTYPE                   OPT
METHOD                    B3LYP
DFT_D                     d3_op
BASIS                     STO-3G
GEOM_OPT_MAX_CYCLES       100
GEOM_OPT_TOL_GRADIENT     300
GEOM_OPT_TOL_DISPLACEMENT 1200
GEOM_OPT_TOL_ENERGY       100
SYMMETRY                  False
THRESH                    12
SCF_CONVERGENCE           8
MAX_SUB_FILE_NUM          128
MEM_STATIC                400
MEM_TOTAL                 4000
$end
--------------------------------------------------------------

   16   -1510.0676556831      2.73E-09 Convergence criterion met
 Total energy in the final basis set = -1510.06765568
   14   -1510.1476891098      1.82E-09 Convergence criterion met
 Total energy in the final basis set = -1510.14768911
   14   -1510.1929801364      2.90E-09 Convergence criterion met
 Total energy in the final basis set = -1510.19298014
   14   -1510.2194563844      5.11E-09 Convergence criterion met
 Total energy in the final basis set = -1510.21945638
   14   -1510.2328645244      5.17E-09 Convergence criterion met
 Total energy in the final basis set = -1510.23286452
   14   -1510.2403507679      7.02E-09 Convergence criterion met
 Total energy in the final basis set = -1510.24035077
   13   -1510.2446940518      2.89E-09 Convergence criterion met
 Total energy in the final basis set = -1510.24469405
   13   -1510.2470998973      6.09E-09 Convergence criterion met
   11   -1510.2481863095      3.27E-09 Convergence criterion met
 Total energy in the final basis set = -1510.24818631
   11   -1510.2482240673      4.57E-09 Convergence criterion met
 Total energy in the final basis set = -1510.24822407
   11   -1510.2482593170      3.32E-09 Convergence criterion met
 Total energy in the final basis set = -1510.24825932
   11   -1510.2482797884      5.13E-09 Convergence criterion met
 Total energy in the final basis set = -1510.24827979
   10   -1510.2482874238      9.01E-09 Convergence criterion met
 Total energy in the final basis set = -1510.24828742
    9   -1510.2482897855      4.86E-09 Convergence criterion met
 Total energy in the final basis set = -1510.24828979

             Standard Nuclear Orientation (Angstroms)
    I     Atom           X                Y                Z
 ----------------------------------------------------------------
    1      O      -6.0678655515     0.4380621146     1.2624510866
    2      C      -5.5029654489     0.8687958926     0.2345293029
    3      C      -4.7075133174     0.0405251329    -0.8387379189
    4      C      -3.1795806494    -0.2097079828    -0.4741410192
    5      C      -2.7755850196     0.3816590832     0.9382468255
    6      O      -1.8430119237    -0.4115185659     1.7306321402
    7      C      -0.4285570547    -0.1374835932     1.3789252956
    8      C       0.0024131099    -0.5810911748    -0.0794130428
    9      O       1.4508092343    -0.7488830966    -0.3823451764
   10      C       2.3842361531    -0.2994226405     0.6031605261
   11      C       3.7522411540    -1.0099011737     0.2926333606
   12      C       4.6517212637    -0.2662218652    -0.7869860127
   13      C       4.0875068342     1.1562842429    -1.1642418658
   14      O       2.9025436421     1.4351811581    -1.4522595319
   15      O      -5.5531339679     2.2309085844    -0.2103316839
   16      O       5.1499731375     2.1117227735    -1.1887961316
   17      O       2.1583352209     0.4996501021     1.5359587716
   18      C       4.6215033159     3.4446615862    -1.5610741797
   19      C       4.7299696543    -1.0300810587     1.5425903287
   20      C       5.7607692051    -2.2045966749     1.3215632483
   21      C       6.6445318778    -1.6063479418     0.1651397048
   22      C       6.0192135741    -0.1637248441     0.0063548743
   23      O       5.5620714644     0.1832694367     1.3734461248
   24      H       3.5235518085    -2.0343981908    -0.0505229935
   25      H       4.7382109663    -0.8624594550    -1.7143058852
   26      H       4.2185059282    -1.0136516894     2.5244435616
   27      H       6.3528018288    -2.3717903624     2.2356962655
   28      H       5.2686573675    -3.1492695847     1.0401824447
   29      H       7.7035621341    -1.5362329910     0.4591677289
   30      H       6.5757857965    -2.1904824568    -0.7666997198
   31      H       6.7047494851     0.6129748815    -0.3818033938
   32      O      -3.3350489171     1.3749253484     1.4508927025
   33      C      -6.2322074469     3.0633011220     0.8078469001
   34      C      -5.2435833220    -1.4471602322    -0.9454242683
   35      C      -4.7178002892    -2.0761863105    -2.2959652458
   36      C      -3.2025227517    -2.3229349424    -1.9462694598
   37      C      -3.1474049993    -1.8005224782    -0.4577669637
   38      O      -4.4710271906    -2.1633453797     0.0936107533
   39      H      -4.7872994563     0.5761121427    -1.8014335344
   40      H      -2.5149507279     0.2121374772    -1.2491340334
   41      H      -5.6880492766     3.0377843227     1.7739620699
   42      H      -6.3299872234    -1.5544331821    -0.7610553227
   43      H      -5.2413730937    -3.0219359740    -2.5080238155
   44      H      -4.8524200434    -1.3968750419    -3.1527498997
   45      H      -2.9466210947    -3.3936157608    -1.9892637389
   46      H      -2.5165080123    -1.7697310736    -2.6077482718
   47      H      -2.3505632261    -2.2274244032     0.1792963339
   48      H      -7.2759455349     2.7292852208     0.9807587873
   49      H      -6.2344906632     4.0946772916     0.4097674835
   50      H       5.4892403960     4.1294302009    -1.5487383470
   51      H       3.8593191927     3.7960299640    -0.8360746138
   52      H       4.1680758616     3.4355067940    -2.5734185568
   53      H      -0.4494908466    -1.5693212117    -0.3039256024
   54      H      -0.3973147741     0.1498124224    -0.8147803290
   55      H       0.1427128018    -0.7247662663     2.1256607189
   56      H      -0.1841941371     0.9360278563     1.5274902983
 ----------------------------------------------------------------

    9   -1510.2482903230      6.63E-09 Convergence criterion met
 Total energy in the final basis set = -1510.24829032
 Final energy is   -1510.24829032298
 **  OPTIMIZATION CONVERGED  **

                    Orbital Energies (a.u.)
 --------------------------------------------------------------

 Alpha MOs
 -- Occupied --
-18.941 -18.933 -18.922 -18.912 -18.911 -18.888 -18.887 -18.878
-18.878 -18.861 -10.112 -10.105 -10.103 -10.090 -10.076 -10.074
-10.068 -10.061 -10.060 -10.059 -10.059 -10.054 -10.042 -10.041
-10.038 -10.034 -10.023 -10.022 -10.021 -10.021  -1.017  -1.013
 -1.008  -0.997  -0.971  -0.970  -0.943  -0.940  -0.939  -0.924
 -0.765  -0.763  -0.727  -0.723  -0.714  -0.707  -0.700  -0.664
 -0.655  -0.620  -0.600  -0.588  -0.547  -0.547  -0.539  -0.538
 -0.515  -0.509  -0.481  -0.480  -0.463  -0.458  -0.454  -0.449
 -0.434  -0.433  -0.432  -0.416  -0.413  -0.406  -0.404  -0.400
 -0.392  -0.382  -0.378  -0.371  -0.363  -0.356  -0.353  -0.350
 -0.348  -0.343  -0.338  -0.335  -0.330  -0.329  -0.328  -0.313
 -0.311  -0.309  -0.308  -0.298  -0.294  -0.290  -0.280  -0.278
 -0.276  -0.263  -0.256  -0.245  -0.238  -0.235  -0.232  -0.182
 -0.177  -0.171  -0.166  -0.161  -0.157  -0.150  -0.145  -0.144
 -0.141

          Ground-State Mulliken Net Atomic Charges

     Atom                 Charge (a.u.)
  ----------------------------------------
      1 O                    -0.214849
      2 C                     0.211421
      3 C                    -0.080987
      4 C                    -0.082987
      5 C                     0.221158
      6 O                    -0.185991
      7 C                    -0.050478
      8 C                    -0.055723
      9 O                    -0.170142
     10 C                     0.213396
     11 C                    -0.080202
     12 C                    -0.076536
     13 C                     0.210332
     14 O                    -0.213937
     15 O                    -0.171917
     16 O                    -0.167071
     17 O                    -0.211497
     18 C                    -0.127257
     19 C                     0.024115
     20 C                    -0.143058
     21 C                    -0.145225
     22 C                     0.022953
     23 O                    -0.188871
     24 H                     0.083698
     25 H                     0.085759
     26 H                     0.086932
     27 H                     0.078474
     28 H                     0.072866
     29 H                     0.078311
     30 H                     0.072658
     31 H                     0.092770
     32 O                    -0.172227
     33 C                    -0.128233
     34 C                     0.025613
     35 C                    -0.143873
     36 C                    -0.145280
     37 C                     0.022212
     38 O                    -0.186619
     39 H                     0.084239
     40 H                     0.082985
     41 H                     0.093839
     42 H                     0.086942
     43 H                     0.078502
     44 H                     0.073810
     45 H                     0.078037
     46 H                     0.072363
     47 H                     0.086014
     48 H                     0.086273
     49 H                     0.087164
     50 H                     0.092094
     51 H                     0.092982
     52 H                     0.088926
     53 H                     0.084891
     54 H                     0.081167
     55 H                     0.094381
     56 H                     0.095679
  ----------------------------------------
  Sum of atomic charges =     0.000000

                    Cartesian Multipole Moments
 -----------------------------------------------------------------
    Charge (ESU x 10^10)
                -0.0000
    Dipole Moment (Debye)
         X       2.6055      Y      -0.8519      Z      -4.1455
       Tot       4.9699
    Quadrupole Moments (Debye-Ang)
        XX    -158.2046     XY      -8.9107     YY    -152.0353
        XZ       6.3123     YZ      -1.0705     ZZ    -163.7643

 Total job time:  50.18s(wall), 2382.48s(cpu)
        *  Thank you very much for using Q-Chem.  Have a nice day.  *
