 Q-Chem 5.0, Q-Chem, Inc., Pleasanton, CA (2017)
 Q-Chem 5.0.1 for Intel X86 EM64T Linux

User input:
--------------------------------------------------------------
$molecule
0  1
O -6.0678655515 0.4380621146 1.2624510866
C -5.5029654489 0.8687958926 0.2345293029
C -4.7075133174 0.0405251329 -0.8387379189
C -3.1795806494 -0.2097079828 -0.4741410192
C -2.7755850196 0.3816590832 0.9382468255
O -1.8430119237 -0.4115185659 1.7306321402
C -0.4285570547 -0.1374835932 1.3789252956
C 0.0024131099 -0.5810911748 -0.0794130428
O 1.4508092343 -0.7488830966 -0.3823451764
C 2.3842361531 -0.2994226405 0.6031605261
C 3.752241154 -1.0099011737 0.2926333606
C 4.6517212637 -0.2662218652 -0.7869860127
C 4.0875068342 1.1562842429 -1.1642418658
O 2.9025436421 1.4351811581 -1.4522595319
O -5.5531339679 2.2309085844 -0.2103316839
O 5.1499731375 2.1117227735 -1.1887961316
O 2.1583352209 0.4996501021 1.5359587716
C 4.6215033159 3.4446615862 -1.5610741797
C 4.7299696543 -1.0300810587 1.5425903287
C 5.7607692051 -2.2045966749 1.3215632483
C 6.6445318778 -1.6063479418 0.1651397048
C 6.0192135741 -0.1637248441 0.0063548743
O 5.5620714644 0.1832694367 1.3734461248
H 3.5235518085 -2.0343981908 -0.0505229935
H 4.7382109663 -0.862459455 -1.7143058852
H 4.2185059282 -1.0136516894 2.5244435616
H 6.3528018288 -2.3717903624 2.2356962655
H 5.2686573675 -3.1492695847 1.0401824447
H 7.7035621341 -1.536232991 0.4591677289
H 6.5757857965 -2.1904824568 -0.7666997198
H 6.7047494851 0.6129748815 -0.3818033938
O -3.3350489171 1.3749253484 1.4508927025
C -6.2322074469 3.063301122 0.8078469001
C -5.243583322 -1.4471602322 -0.9454242683
C -4.7178002892 -2.0761863105 -2.2959652458
C -3.2025227517 -2.3229349424 -1.9462694598
C -3.1474049993 -1.8005224782 -0.4577669637
O -4.4710271906 -2.1633453797 0.0936107533
H -4.7872994563 0.5761121427 -1.8014335344
H -2.5149507279 0.2121374772 -1.2491340334
H -5.6880492766 3.0377843227 1.7739620699
H -6.3299872234 -1.5544331821 -0.7610553227
H -5.2413730937 -3.021935974 -2.5080238155
H -4.8524200434 -1.3968750419 -3.1527498997
H -2.9466210947 -3.3936157608 -1.9892637389
H -2.5165080123 -1.7697310736 -2.6077482718
H -2.3505632261 -2.2274244032 0.1792963339
H -7.2759455349 2.7292852208 0.9807587873
H -6.2344906632 4.0946772916 0.4097674835
H 5.489240396 4.1294302009 -1.548738347
H 3.8593191927 3.796029964 -0.8360746138
H 4.1680758616 3.435506794 -2.5734185568
H -0.4494908466 -1.5693212117 -0.3039256024
H -0.3973147741 0.1498124224 -0.814780329
H 0.1427128018 -0.7247662663 2.1256607189
H -0.1841941371 0.9360278563 1.5274902983
$end

$rem
JOBTYPE                   OPT
METHOD                    B3LYP
DFT_D                     d3_op
BASIS                     STO-3G
GEOM_OPT_MAX_CYCLES       100
GEOM_OPT_TOL_GRADIENT     300
GEOM_OPT_TOL_DISPLACEMENT 1200
GEOM_OPT_TOL_ENERGY       100
SYMMETRY                  False
THRESH                    12
SCF_CONVERGENCE           8
MAX_SUB_FILE_NUM          128
MEM_STATIC                400
MEM_TOTAL                 4000
$end
--------------------------------------------------------------

   16   -1510.2482835441      5.07E-09 Convergence criterion met
 Total energy in the final basis set = -1510.24828354
   14   -1510.2509367142      7.58E-09 Convergence criterion met
 Total energy in the final basis set = -1510.25093671
   14   -1510.2537710544      4.33E-09 Convergence criterion met
 Total energy in the final basis set = -1510.25377105
   13   -1510.2563922466      7.10E-09 Convergence criterion met
 Total energy in the final basis set = -1510.25639225
   13   -1510.2591399447      5.87E-09 Convergence criterion met
 Total energy in the final basis set = -1510.25913994
   13   -1510.2619506177      5.59E-09 Convergence criterion met
 Total energy in the final basis set = -1510.26195062
   13   -1510.2645853975      6.09E-09 Convergence criterion met
 Total energy in the final basis set = -1510.26458540
   13   -1510.2669092085      7.23E-09 Convergence criterion met
    9   -1510.2927481393      9.80E-09 Convergence criterion met
 Total energy in the final basis set = -1510.29274814
   10   -1510.2927509318      2.85E-09 Convergence criterion met
 Total energy in the final basis set = -1510.29275093
   11   -1510.2927520720      7.97E-09 Convergence criterion met
 Total energy in the final basis set = -1510.29275207
   13   -1510.2926421944      3.68E-09 Convergence criterion met
 Total energy in the final basis set = -1510.29264219
   13   -1510.2927668082      2.31E-09 Convergence criterion met
 Total energy in the final basis set = -1510.29276681
   10   -1510.2927681880      4.14E-09 Convergence criterion met
 Total energy in the final basis set = -1510.29276819

             Standard Nuclear Orientation (Angstroms)
    I     Atom           X                Y                Z
 ----------------------------------------------------------------
    1      O      -3.1593278603     1.6512902641     0.7360327882
    2      C      -2.9475712722     0.8983153071    -0.2379676737
    3      C      -3.9969900245    -0.0398734231    -0.9428715648
    4      C      -3.6457126490    -1.5857572601    -0.8476747939
    5      C      -2.2762267617    -1.8477698929    -0.1420113167
    6      O      -1.5054610740    -2.7237156606    -0.9804381081
    7      C      -0.1018113744    -2.7736814593    -0.5057873461
    8      C       0.7250418598    -1.7717084885    -1.3976964966
    9      O       2.1463306610    -1.6478645405    -1.0008308676
   10      C       2.2673229738    -0.8582230279     0.1927287577
   11      C       3.7982586240    -0.6106172939     0.4505770198
   12      C       4.3635195908     0.7158337460    -0.2059892349
   13      C       3.2738441414     1.5329622501    -0.9797738029
   14      O       2.1186909144     1.1532258036    -1.2840260838
   15      O      -1.6898368591     0.7909709728    -0.9161213030
   16      O       3.8029202654     2.8111029354    -1.3217622686
   17      O       1.3160913886    -0.5295086605     0.9329942907
   18      C       2.7878562588     3.6020313947    -2.0586097969
   19      C       4.0797215535    -0.3246561417     1.9857608601
   20      C       5.6245755243    -0.5130893663     2.2500277149
   21      C       6.2057318844     0.7890859829     1.5843636041
   22      C       4.8842602529     1.4920123771     1.0803709756
   23      O       3.8817654435     1.1393042346     2.1094342072
   24      H       4.3548690686    -1.4915937839     0.0856635530
   25      H       5.1920744242     0.5017600459    -0.9062125640
   26      H       3.4040689649    -0.8623186023     2.6786156621
   27      H       5.8312810840    -0.5407396505     3.3316438892
   28      H       6.0131521710    -1.4360025674     1.7907515718
   29      H       6.7209993561     1.4254143262     2.3212711239
   30      H       6.9014507882     0.5723105831     0.7580377843
   31      H       4.9467464663     2.5895804366     0.9479170353
   32      O      -1.8866548393    -1.3961489644     0.9568719944
   33      C      -0.6768792411     1.6130099321    -0.2079875486
   34      C      -5.3768553272     0.0034418277    -0.1666629615
   35      C      -6.4935677850    -0.6447227664    -1.0749957162
   36      C      -6.1411040190    -2.1736435630    -0.9478115795
   37      C      -4.8815422391    -2.1162383986     0.0042965929
   38      O      -5.1845964394    -0.9918332311     0.9153535998
   39      H      -4.1007536584     0.2718810532    -1.9982978999
   40      H      -3.6112113697    -2.0554112784    -1.8459714067
   41      H      -0.4968816255     1.2176124800     0.8123275993
   42      H      -5.6170164144     0.9949023749     0.2636108416
   43      H      -7.4948123517    -0.4265343021    -0.6709918136
   44      H      -6.4447300345    -0.2828997331    -2.1144280216
   45      H      -6.9580034750    -2.7388824176    -0.4713717833
   46      H      -5.9075768933    -2.6398018172    -1.9184597754
   47      H      -4.6817355344    -3.0405784223     0.5805364130
   48      H      -0.9982133595     2.6713515847    -0.1338754457
   49      H       0.2644154070     1.5346904400    -0.7904394483
   50      H       3.2683306822     4.5696727467    -2.2922525648
   51      H       1.8819811321     3.7747669146    -1.4424215540
   52      H       2.4859151209     3.0980586065    -2.9992831544
   53      H       0.7407395428    -2.1299103768    -2.4466409717
   54      H       0.2170250184    -0.7837291015    -1.3617171502
   55      H       0.2625464684    -3.8139947026    -0.6193627091
   56      H      -0.0567562195    -2.4508375834     0.5563797368
 ----------------------------------------------------------------

   11   -1510.2927677538      1.73E-09 Convergence criterion met
 Total energy in the final basis set = -1510.29276775
 Final energy is   -1510.29276775382
 **  OPTIMIZATION CONVERGED  **

                    Orbital Energies (a.u.)
 --------------------------------------------------------------

 Alpha MOs
 -- Occupied --
-18.953 -18.924 -18.922 -18.917 -18.896 -18.889 -18.881 -18.870
-18.865 -18.862 -10.117 -10.094 -10.092 -10.086 -10.076 -10.063
-10.060 -10.059 -10.057 -10.055 -10.051 -10.046 -10.036 -10.034
-10.031 -10.029 -10.023 -10.021 -10.016 -10.015  -1.029  -1.006
 -1.000  -0.994  -0.972  -0.963  -0.952  -0.931  -0.927  -0.921
 -0.766  -0.756  -0.726  -0.719  -0.712  -0.701  -0.688  -0.672
 -0.643  -0.614  -0.595  -0.577  -0.547  -0.540  -0.537  -0.531
 -0.515  -0.502  -0.483  -0.471  -0.461  -0.457  -0.451  -0.444
 -0.436  -0.429  -0.424  -0.422  -0.416  -0.406  -0.393  -0.390
 -0.385  -0.382  -0.370  -0.367  -0.360  -0.352  -0.349  -0.345
 -0.341  -0.335  -0.331  -0.329  -0.325  -0.321  -0.319  -0.316
 -0.310  -0.304  -0.303  -0.297  -0.291  -0.280  -0.278  -0.273
 -0.267  -0.262  -0.251  -0.239  -0.236  -0.236  -0.227  -0.193
 -0.179  -0.169  -0.162  -0.156  -0.149  -0.147  -0.144  -0.139
 -0.137

          Ground-State Mulliken Net Atomic Charges

     Atom                 Charge (a.u.)
  ----------------------------------------
      1 O                    -0.209504
      2 C                     0.211852
      3 C                    -0.078928
      4 C                    -0.079720
      5 C                     0.210976
      6 O                    -0.175659
      7 C                    -0.059524
      8 C                    -0.051727
      9 O                    -0.176602
     10 C                     0.214558
     11 C                    -0.081809
     12 C                    -0.077614
     13 C                     0.220288
     14 O                    -0.210434
     15 O                    -0.179132
     16 O                    -0.165443
     17 O                    -0.213572
     18 C                    -0.128040
     19 C                     0.025344
     20 C                    -0.144071
     21 C                    -0.143776
     22 C                     0.024612
     23 O                    -0.187904
     24 H                     0.084796
     25 H                     0.087774
     26 H                     0.088918
     27 H                     0.078968
     28 H                     0.073592
     29 H                     0.078963
     30 H                     0.073392
     31 H                     0.088219
     32 O                    -0.205558
     33 C                    -0.143316
     34 C                     0.024777
     35 C                    -0.144549
     36 C                    -0.143566
     37 C                     0.025821
     38 O                    -0.185912
     39 H                     0.082189
     40 H                     0.084958
     41 H                     0.099508
     42 H                     0.090071
     43 H                     0.077425
     44 H                     0.072187
     45 H                     0.077209
     46 H                     0.072744
     47 H                     0.082517
     48 H                     0.078842
     49 H                     0.101464
     50 H                     0.094688
     51 H                     0.093501
     52 H                     0.092063
     53 H                     0.084926
     54 H                     0.099404
     55 H                     0.082575
     56 H                     0.107239
  ----------------------------------------
  Sum of atomic charges =     0.000000

                    Cartesian Multipole Moments
 -----------------------------------------------------------------
    Charge (ESU x 10^10)
                 0.0000
    Dipole Moment (Debye)
         X       3.0666      Y      -0.2815      Z      -3.8243
       Tot       4.9101
    Quadrupole Moments (Debye-Ang)
        XX    -139.2551     XY       4.5412     YY    -150.4550
        XZ      10.0880     YZ      -6.1752     ZZ    -162.3068

 Total job time:  300.01s(wall), 9736.45s(cpu)
        *  Thank you very much for using Q-Chem.  Have a nice day.  *
