 Q-Chem 5.0, Q-Chem, Inc., Pleasanton, CA (2017)
 Q-Chem 5.0.1 for Intel X86 EM64T Linux

User input:
--------------------------------------------------------------
$molecule
0  1
O 3.2769635676 -1.4325479306 0.9533385097
C 3.6609706855 -0.6343110958 0.1105083222
C 3.0835135757 0.7455220089 -0.1157585163
C 1.6394691464 0.8259965625 -0.6373921462
C 0.8734948278 -0.4765873394 -0.7056947518
O -0.0225531266 -0.5424569075 0.3229882499
C -1.0628750294 -1.5008975733 0.1030927104
C -1.410373083 -2.2083521645 1.408813218
O -2.3687108774 -1.4327538551 2.1456466143
C -3.4283219771 -0.9817789089 1.4294199344
C -3.1461206624 0.3197876558 0.7174166803
C -1.6745799035 0.5458651367 0.340940955
C -0.7819569936 -0.6774177433 0.400041506
O -0.4815702667 -1.2872564411 1.416122997
O 4.7351457323 -0.964323899 -0.6546276575
O -0.8616092791 -0.9396580852 -1.7911660354
O -4.3251472464 -1.7358204019 1.0816336874
C -0.7197434105 -1.9561353063 -2.7507574911
C -3.8970979241 0.6604551511 -0.5829037072
C -4.0852442947 2.1730013017 -0.6623979886
C -2.647067454 2.6215526606 -0.8448589103
C -1.951809041 1.2600213767 -1.0288997368
O -2.9565387504 0.4528265776 -1.6010335283
H -3.4597333393 1.0673600237 1.4837489326
H -1.2924470425 1.242836776 1.1213959457
H -4.8693678968 0.1349579567 -0.6959172165
H -4.6474471225 2.3717141359 -1.6033886102
H -4.6220214912 2.6496232835 0.1859934175
H -2.5920698786 3.2431262447 -1.7657455559
H -2.2113726968 3.17428745 0.0153985232
H -1.0359503546 1.4140363547 -1.6365582388
O 1.4061555393 -1.4639024322 -1.2188682355
C 5.410280187 -2.1639938604 -0.5707681467
C 3.0095286927 1.6006063084 1.1651306885
C 3.2080291835 3.0612602975 0.7943234294
C 1.946475485 3.3024739661 -0.0017427276
C 1.179700294 1.989984751 0.2750499068
O 1.6495305219 1.579303648 1.5318524135
H 3.7686363757 1.2392376241 -0.8453115596
H 1.6357570071 1.1781101776 -1.6927870622
H 4.7234541391 -3.0063001225 -0.8014417276
H 3.7316153173 1.2963635686 1.9542174105
H 3.154098032 3.6352164387 1.7477390292
H 4.1525395418 3.316722047 0.267415771
H 1.435807278 4.1939642328 0.4264999199
H 2.0974000402 3.441669214 -1.0945748917
H 0.139355862 2.2751146309 0.1676168455
H 5.8355054692 -2.293519296 0.447500653
H 6.2398759833 -2.1668807977 -1.3071480286
H 0.0761015829 -1.6676497013 -3.4686403291
H -1.6712339942 -2.0448579297 -3.3144857644
H -0.4697655153 -2.9546913153 -2.3459818825
H -2.0504651973 -3.0771082045 1.0615372212
H -0.953254671 -3.1297360311 2.0269573921
H -0.5760689078 -2.6122569758 -0.3408900931
H -2.1899088631 -1.8309410799 -0.5416255936
$end

$rem
JOBTYPE                   OPT
METHOD                    B3LYP
DFT_D                     d3_op
BASIS                     STO-3G
GEOM_OPT_MAX_CYCLES       100
GEOM_OPT_TOL_GRADIENT     300
GEOM_OPT_TOL_DISPLACEMENT 1200
GEOM_OPT_TOL_ENERGY       100
SYMMETRY                  False
THRESH                    12
SCF_CONVERGENCE           8
MAX_SUB_FILE_NUM          128
MEM_STATIC                400
MEM_TOTAL                 4000
$end
--------------------------------------------------------------

   19   -1506.8862534253      2.73E-09 Convergence criterion met
 Total energy in the final basis set = -1506.88625343
   17   -1507.6048283230      8.04E-09 Convergence criterion met
 Total energy in the final basis set = -1507.60482832
   17   -1508.1543574084      6.38E-09 Convergence criterion met
 Total energy in the final basis set = -1508.15435741
   17   -1508.5771117544      3.95E-09 Convergence criterion met
 Total energy in the final basis set = -1508.57711175
   16   -1508.9034153694      7.55E-09 Convergence criterion met
 Total energy in the final basis set = -1508.90341537
   15   -1509.1521741348      7.71E-09 Convergence criterion met
 Total energy in the final basis set = -1509.15217413
   15   -1509.3486937295      8.79E-09 Convergence criterion met
 Total energy in the final basis set = -1509.34869373
   15   -1509.5032812619      7.16E-09 Convergence criterion met
   10   -1510.2824237470      7.90E-09 Convergence criterion met
 Total energy in the final basis set = -1510.28242375
   10   -1510.2824321057      5.39E-09 Convergence criterion met
 Total energy in the final basis set = -1510.28243211
   10   -1510.2824407216      5.26E-09 Convergence criterion met
 Total energy in the final basis set = -1510.28244072
   10   -1510.2824498896      6.15E-09 Convergence criterion met
 Total energy in the final basis set = -1510.28244989
   10   -1510.2824559827      5.44E-09 Convergence criterion met
 Total energy in the final basis set = -1510.28245598
   10   -1510.2824595140      7.80E-09 Convergence criterion met
 Total energy in the final basis set = -1510.28245951

             Standard Nuclear Orientation (Angstroms)
    I     Atom           X                Y                Z
 ----------------------------------------------------------------
    1      O       4.5055180204    -1.2276840485     0.6591077856
    2      C       3.8951690286    -0.5475690231    -0.1920416072
    3      C       3.7170486332     1.0165013175    -0.2124071073
    4      C       2.2330081127     1.5087919612     0.0234592864
    5      C       1.2533165272     0.3309514772     0.3424038856
    6      O      -0.0830769779     0.8434771745     0.2505347752
    7      C      -0.9088109110    -1.4013754746    -0.5550671394
    8      C      -1.6258636079    -1.7499004814     2.3374137781
    9      O      -3.0834259842    -1.5525749326     2.4490794126
   10      C      -3.6500473877    -1.5726936870     1.1028297176
   11      C      -3.8346470184    -0.1192373397     0.5405318416
   12      C      -2.4572157661     0.5960087792     0.1989448258
   13      C      -1.1117939708    -0.2056703906     0.4877183996
   14      O      -0.9175269546    -0.5381697603     1.9169622689
   15      O       3.3579830551    -1.0702945788    -1.4188831233
   16      O      -0.1696119090    -0.7994601379    -1.6828085667
   17      O      -3.9691724250    -2.6330592034     0.5284269328
   18      C      -0.0336578968    -1.8416453941    -2.7112823370
   19      C      -4.5369782634    -0.1264248949    -0.8779143302
   20      C      -5.0092445867     1.3405234719    -1.2197487559
   21      C      -3.6387543368     2.0256938818    -1.5840046175
   22      C      -2.6327749212     0.8331235777    -1.3617954888
   23      O      -3.4034334888    -0.3561420228    -1.8036763060
   24      H      -4.3971377061     0.4663351538     1.2899841121
   25      H      -2.3738924916     1.5515628972     0.7453470440
   26      H      -5.3011618547    -0.9188486885    -0.9978735081
   27      H      -5.6989399062     1.3337332377    -2.0786085276
   28      H      -5.5117813997     1.8226749260    -0.3658973947
   29      H      -3.6202047406     2.3542006386    -2.6354643056
   30      H      -3.4080607679     2.8893240620    -0.9400954529
   31      H      -1.6693620116     0.8824359960    -1.9075732734
   32      O       1.5693577643    -0.8337550787     0.6681989201
   33      C       3.4415494843    -2.5465323536    -1.4059323500
   34      C       4.4604236705     1.6890468347     1.0144064547
   35      C       4.6441906369     3.2251575154     0.7041990862
   36      C       3.1708855457     3.7480415801     0.8907077847
   37      C       2.4251879008     2.4206344011     1.3132215328
   38      O       3.4401780811     1.6763412936     2.0906813437
   39      H       4.0990351527     1.3903831596    -1.1795794080
   40      H       1.8354092534     2.0828141352    -0.8317291744
   41      H       2.7796776601    -2.9760695197    -0.6256746256
   42      H       5.3684382142     1.1459736948     1.3403040959
   43      H       5.3306729785     3.6862298585     1.4319649051
   44      H       5.0334592059     3.4021351284    -0.3110855907
   45      H       3.1054186860     4.4979709171     1.6951046832
   46      H       2.7535636983     4.1829572535    -0.0317807006
   47      H       1.5019863967     2.5652304420     1.9078428062
   48      H       4.4767625535    -2.8997267074    -1.2217209299
   49      H       3.1060769935    -2.8850140247    -2.4034799946
   50      H       0.5518479194    -1.3925473011    -3.5353133759
   51      H      -1.0205414846    -2.1699552529    -3.1054548699
   52      H       0.5074751390    -2.7357350663    -2.3335890894
   53      H      -1.3887109959    -2.6336317167     1.6906324762
   54      H      -1.2637746516    -1.9418069091     3.3735703296
   55      H      -0.3315105040    -2.2326822613    -0.0945909559
   56      H      -1.9055476145    -1.7691863535    -0.8875308267
 ----------------------------------------------------------------

    9   -1510.2824597038      5.83E-09 Convergence criterion met
 Total energy in the final basis set = -1510.28245970
 Final energy is   -1510.28245970381
 **  OPTIMIZATION CONVERGED  **

                    Orbital Energies (a.u.)
 --------------------------------------------------------------

 Alpha MOs
 -- Occupied --
-18.933 -18.916 -18.915 -18.915 -18.910 -18.903 -18.891 -18.883
-18.881 -18.857 -10.118 -10.116 -10.111 -10.104 -10.086 -10.064
-10.060 -10.057 -10.057 -10.053 -10.053 -10.052 -10.042 -10.038
-10.035 -10.029 -10.024 -10.022 -10.018 -10.016  -1.029  -1.017
 -0.995  -0.977  -0.975  -0.966  -0.957  -0.943  -0.921  -0.921
 -0.771  -0.758  -0.734  -0.719  -0.713  -0.700  -0.682  -0.653
 -0.648  -0.629  -0.610  -0.594  -0.551  -0.545  -0.540  -0.534
 -0.526  -0.503  -0.488  -0.480  -0.470  -0.459  -0.452  -0.447
 -0.441  -0.435  -0.427  -0.425  -0.418  -0.411  -0.404  -0.400
 -0.398  -0.392  -0.377  -0.367  -0.366  -0.358  -0.352  -0.349
 -0.346  -0.341  -0.338  -0.332  -0.329  -0.326  -0.322  -0.311
 -0.310  -0.308  -0.302  -0.299  -0.293  -0.287  -0.273  -0.269
 -0.266  -0.255  -0.246  -0.242  -0.240  -0.236  -0.230  -0.182
 -0.177  -0.169  -0.165  -0.161  -0.157  -0.151  -0.144  -0.141
 -0.137

          Ground-State Mulliken Net Atomic Charges

     Atom                 Charge (a.u.)
  ----------------------------------------
      1 O                    -0.216684
      2 C                     0.216485
      3 C                    -0.080758
      4 C                    -0.077287
      5 C                     0.227990
      6 O                    -0.174884
      7 C                    -0.069152
      8 C                     0.035310
      9 O                    -0.195864
     10 C                     0.214220
     11 C                    -0.087178
     12 C                    -0.071917
     13 C                     0.177561
     14 O                    -0.187163
     15 O                    -0.176122
     16 O                    -0.185632
     17 O                    -0.178592
     18 C                    -0.127396
     19 C                     0.022440
     20 C                    -0.143804
     21 C                    -0.143621
     22 C                     0.017974
     23 O                    -0.195084
     24 H                     0.089281
     25 H                     0.085743
     26 H                     0.087540
     27 H                     0.078661
     28 H                     0.074113
     29 H                     0.078471
     30 H                     0.075101
     31 H                     0.098704
     32 O                    -0.204428
     33 C                    -0.128276
     34 C                     0.024453
     35 C                    -0.144009
     36 C                    -0.143869
     37 C                     0.025115
     38 O                    -0.188349
     39 H                     0.082698
     40 H                     0.087208
     41 H                     0.088405
     42 H                     0.089511
     43 H                     0.077449
     44 H                     0.072600
     45 H                     0.077416
     46 H                     0.072800
     47 H                     0.084730
     48 H                     0.087547
     49 H                     0.083338
     50 H                     0.086133
     51 H                     0.076879
     52 H                     0.072980
     53 H                     0.080072
     54 H                     0.101598
     55 H                     0.081300
     56 H                     0.088244
  ----------------------------------------
  Sum of atomic charges =    -0.000000

                    Cartesian Multipole Moments
 -----------------------------------------------------------------
    Charge (ESU x 10^10)
                -0.0000
    Dipole Moment (Debye)
         X      -1.4936      Y       2.0431      Z      -2.3951
       Tot       3.4845
    Quadrupole Moments (Debye-Ang)
        XX    -160.0684     XY      -2.0447     YY    -152.7128
        XZ      -7.7504     YZ       2.2970     ZZ    -164.9541

 Total job time:  289.52s(wall), 13466.31s(cpu)
        *  Thank you very much for using Q-Chem.  Have a nice day.  *
