 Q-Chem 5.0, Q-Chem, Inc., Pleasanton, CA (2017)
 Q-Chem 5.0.1 for Intel X86 EM64T Linux

User input:
--------------------------------------------------------------
$molecule
0  1
O -5.0055778139 1.2582267408 1.8207827997
C -4.1935508232 1.8614758392 1.0882649995
C -3.0671158151 1.2615053534 0.187472522
C -2.1867908193 0.1805997425 0.9367935104
C -1.0946479931 0.7418749235 1.8878493454
O 0.0284106825 1.4871893944 1.3294933519
C 1.056540205 1.4689268679 2.3977913022
C 1.7728741427 0.1336756901 2.8503206429
O 2.6496177629 -0.5078016472 1.8857679145
C 2.5357948203 -1.6423880747 1.0531737258
C 3.2695679201 -1.2911128526 -0.339158163
C 2.6024059186 -1.354504372 -1.7793685133
C 1.376398669 -2.2797660856 -2.0453121759
O 0.3848932788 -2.0318081061 -2.7711079756
O -4.1265797661 3.2900930098 0.9675458284
O 1.5999575686 -3.5324495409 -1.406050778
O 1.9886569475 -2.7192156525 1.3726037749
C 0.4680049975 -4.449814228 -1.6780157485
C 3.6187694005 0.2648514078 -0.3330159705
C 4.7102975977 0.5756476877 -1.4251076155
C 3.8415911077 0.6355461298 -2.7359021848
C 2.4405262171 0.1782127619 -2.1669923471
O 2.3730289256 0.8754397904 -0.8657569343
H 4.1864209616 -1.9078802723 -0.3613285754
H 3.3840841444 -1.7758860615 -2.4428978146
H 3.8138150548 0.6435385481 0.6868921352
H 5.196263748 1.537506814 -1.2106820211
H 5.486412805 -0.2068881164 -1.4544591663
H 3.7996825785 1.6598668543 -3.1425120272
H 4.2133540278 -0.042906202 -3.5184048541
H 1.5630790909 0.396325858 -2.8084038422
O -1.1628061132 0.5097821168 3.1200935783
C -5.0526259331 3.9462861122 1.9176238042
C -3.5407652192 0.3876623063 -1.0716001163
C -2.4395785183 0.5753096135 -2.1792036104
C -1.2029319445 -0.0522058601 -1.4399285581
C -1.9117957543 -0.8178308928 -0.2519919772
O -3.3196542323 -1.0228535353 -0.6769755704
H -2.4551127632 2.1088119001 -0.1679531171
H -2.8598416922 -0.3588525652 1.6291692297
H -4.7851540865 3.7169976326 2.9701412028
H -4.5913856348 0.5428006951 -1.3804944886
H -2.7100694671 -0.0125328548 -3.0764005111
H -2.2786892578 1.6267469609 -2.4646251905
H -0.6276554138 -0.7340270017 -2.0876524446
H -0.5194693469 0.7117299482 -1.0353793343
H -1.4928724321 -1.7943357383 0.0514095088
H -6.1021210456 3.62901459 1.7583060026
H -4.9552868967 5.0332386738 1.7291992838
H 0.8819575093 -5.4426124457 -1.9338164876
H -0.1221296911 -4.052339133 -2.5252348053
H -0.1743497184 -4.5265148629 -0.7786131541
H 2.4217013496 0.423760199 3.7071706241
H 0.9960060833 -0.56465197 3.2398235562
H 0.615480911 1.8816432937 3.3292547115
H 1.8273031853 2.1774361498 2.0341775912
$end

$rem
JOBTYPE                   OPT
METHOD                    B3LYP
DFT_D                     d3_op
BASIS                     STO-3G
GEOM_OPT_MAX_CYCLES       100
GEOM_OPT_TOL_GRADIENT     300
GEOM_OPT_TOL_DISPLACEMENT 1200
GEOM_OPT_TOL_ENERGY       100
SYMMETRY                  False
THRESH                    12
SCF_CONVERGENCE           8
MAX_SUB_FILE_NUM          128
MEM_STATIC                400
MEM_TOTAL                 4000
$end
--------------------------------------------------------------

   16   -1510.2255527533      6.51E-09 Convergence criterion met
 Total energy in the final basis set = -1510.22555275
   14   -1510.2357829003      9.98E-09 Convergence criterion met
 Total energy in the final basis set = -1510.23578290
   15   -1510.2530503092      5.71E-09 Convergence criterion met
 Total energy in the final basis set = -1510.25305031
   15   -1510.2647678887      3.25E-09 Convergence criterion met
 Total energy in the final basis set = -1510.26476789
   14   -1510.2714058871      3.49E-09 Convergence criterion met
 Total energy in the final basis set = -1510.27140589
   13   -1510.2770380180      6.42E-09 Convergence criterion met
 Total energy in the final basis set = -1510.27703802
   13   -1510.2809463523      8.75E-09 Convergence criterion met
 Total energy in the final basis set = -1510.28094635
   13   -1510.2837048682      9.86E-09 Convergence criterion met
   12   -1510.3022760463      6.26E-09 Convergence criterion met
 Total energy in the final basis set = -1510.30227605
   11   -1510.3022988968      6.41E-09 Convergence criterion met
 Total energy in the final basis set = -1510.30229890
    9   -1510.3023016374      6.65E-09 Convergence criterion met
 Total energy in the final basis set = -1510.30230164
    9   -1510.3023048777      7.54E-09 Convergence criterion met
 Total energy in the final basis set = -1510.30230488
    9   -1510.3023075308      5.49E-09 Convergence criterion met
 Total energy in the final basis set = -1510.30230753
    9   -1510.3023087604      3.99E-09 Convergence criterion met
 Total energy in the final basis set = -1510.30230876

             Standard Nuclear Orientation (Angstroms)
    I     Atom           X                Y                Z
 ----------------------------------------------------------------
    1      O      -4.6517125867    -1.0490935963     1.3970067786
    2      C      -4.5279548142    -0.4693793138     0.2962468475
    3      C      -3.1977595916    -0.0258639389    -0.3961386967
    4      C      -1.9736449459    -0.2012808678     0.5865436629
    5      C      -1.4220473853     1.1264115850     1.1935707983
    6      O      -1.0260789711     2.0353700827     0.1435157755
    7      C      -0.4587428781     3.2803743971     0.7027339567
    8      C       0.9445872171     3.0864474742     1.3895776362
    9      O       1.9812819428     2.5585585887     0.4667283332
   10      C       2.0269482051     1.1328578526     0.5195750864
   11      C       3.2484610526     0.6272153598    -0.3170996877
   12      C       3.5432418423    -0.9151034508    -0.1013161015
   13      C       2.5174720721    -1.6423201525     0.8477878436
   14      O       1.5638151769    -2.3781855036     0.5079599513
   15      O      -5.6259068926    -0.1233298736    -0.5567545529
   16      O       2.9458696395    -1.4468108923     2.2004426019
   17      O       1.2264308072     0.4255192396     1.1741520418
   18      C       1.9539490091    -2.0421634425     3.1248434486
   19      C       2.9983422285     0.6694216585    -1.8897118350
   20      C       4.3994256816     0.5414837399    -2.6061722777
   21      C       4.7162400521    -0.9858961303    -2.3860763266
   22      C       3.4363171422    -1.4535799901    -1.5880554705
   23      O       2.3552435469    -0.6301279891    -2.1790423072
   24      H       4.1221176904     1.2482539744    -0.0496673162
   25      H       4.5557815091    -1.0603275652     0.3150169478
   26      H       2.3600675397     1.5069353865    -2.2321443652
   27      H       4.3045490983     0.7838251782    -3.6766028020
   28      H       5.1571299510     1.2042424619    -2.1587994185
   29      H       4.7905468813    -1.5234751001    -3.3446953957
   30      H       5.6439445953    -1.1502630924    -1.8149957302
   31      H       3.1829353580    -2.5284513491    -1.6667137029
   32      O      -1.3488175039     1.4217802794     2.4061990617
   33      C      -6.9006976413    -0.5652074353     0.0540581317
   34      C      -2.7794866026    -1.0069584268    -1.5866441892
   35      C      -1.7392125220    -0.2552411138    -2.4994688159
   36      C      -0.4984173992    -0.1982950164    -1.5397606411
   37      C      -0.9956149877    -1.0696708411    -0.3220489111
   38      O      -1.9523262490    -2.0352033444    -0.9193693315
   39      H      -3.3050428213     1.0104204366    -0.7639090287
   40      H      -2.3128238058    -0.8182705321     1.4411175107
   41      H      -7.0651618378    -0.0939387295     1.0446115326
   42      H      -3.6358947118    -1.4696102182    -2.1154445998
   43      H      -1.5346564879    -0.8501727027    -3.4048472769
   44      H      -2.0920741083     0.7435220491    -2.8036473488
   45      H       0.4333257364    -0.6093857549    -1.9690393587
   46      H      -0.3142711505     0.8330752991    -1.1998920402
   47      H      -0.1856002288    -1.6058247047     0.2197327890
   48      H      -6.9333856830    -1.6668304005     0.1805735964
   49      H      -7.6992268592    -0.2501209108    -0.6427005853
   50      H       2.3711517457    -1.9251470518     4.1417187060
   51      H       1.7878496792    -3.1171286119     2.9086910986
   52      H       0.9817775862    -1.5118803541     3.0566513356
   53      H       1.3137108354     4.0781563745     1.7227202295
   54      H       0.8251968734     2.4148142023     2.2654795114
   55      H      -1.1445501724     3.7255415328     1.4571230395
   56      H      -0.3670692183     3.9703467511    -0.1602489411
 ----------------------------------------------------------------

    9   -1510.3023092967      2.35E-09 Convergence criterion met
 Total energy in the final basis set = -1510.30230930
 Final energy is   -1510.30230929672
 **  OPTIMIZATION CONVERGED  **

                    Orbital Energies (a.u.)
 --------------------------------------------------------------

 Alpha MOs
 -- Occupied --
-18.949 -18.933 -18.927 -18.926 -18.902 -18.894 -18.871 -18.868
-18.866 -18.865 -10.115 -10.098 -10.096 -10.088 -10.080 -10.079
-10.070 -10.065 -10.058 -10.056 -10.048 -10.042 -10.040 -10.027
-10.026 -10.025 -10.022 -10.016  -9.996  -9.972  -1.029  -1.008
 -1.004  -1.002  -0.981  -0.952  -0.948  -0.934  -0.930  -0.928
 -0.771  -0.747  -0.730  -0.720  -0.708  -0.697  -0.684  -0.658
 -0.652  -0.622  -0.593  -0.576  -0.553  -0.544  -0.526  -0.522
 -0.511  -0.492  -0.488  -0.480  -0.465  -0.459  -0.447  -0.440
 -0.435  -0.428  -0.418  -0.412  -0.410  -0.404  -0.404  -0.396
 -0.385  -0.378  -0.371  -0.367  -0.362  -0.358  -0.351  -0.345
 -0.341  -0.338  -0.335  -0.333  -0.325  -0.321  -0.320  -0.314
 -0.309  -0.304  -0.296  -0.289  -0.284  -0.280  -0.279  -0.269
 -0.262  -0.259  -0.249  -0.245  -0.245  -0.227  -0.211  -0.196
 -0.171  -0.170  -0.168  -0.167  -0.154  -0.150  -0.148  -0.146
 -0.122

          Ground-State Mulliken Net Atomic Charges

     Atom                 Charge (a.u.)
  ----------------------------------------
      1 O                    -0.214015
      2 C                     0.207313
      3 C                    -0.081441
      4 C                    -0.084844
      5 C                     0.213716
      6 O                    -0.175404
      7 C                    -0.049413
      8 C                    -0.055056
      9 O                    -0.170480
     10 C                     0.218252
     11 C                    -0.078243
     12 C                    -0.081026
     13 C                     0.220483
     14 O                    -0.217616
     15 O                    -0.172584
     16 O                    -0.173512
     17 O                    -0.206671
     18 C                    -0.129224
     19 C                     0.027858
     20 C                    -0.142871
     21 C                    -0.143783
     22 C                     0.027061
     23 O                    -0.183850
     24 H                     0.088707
     25 H                     0.086134
     26 H                     0.088674
     27 H                     0.080117
     28 H                     0.074914
     29 H                     0.080161
     30 H                     0.074858
     31 H                     0.092215
     32 O                    -0.215413
     33 C                    -0.128688
     34 C                     0.025353
     35 C                    -0.143127
     36 C                    -0.172009
     37 C                     0.015763
     38 O                    -0.193271
     39 H                     0.085085
     40 H                     0.095744
     41 H                     0.088186
     42 H                     0.078389
     43 H                     0.072000
     44 H                     0.067448
     45 H                     0.093223
     46 H                     0.078525
     47 H                     0.101952
     48 H                     0.088554
     49 H                     0.088791
     50 H                     0.087972
     51 H                     0.089823
     52 H                     0.095579
     53 H                     0.090876
     54 H                     0.105853
     55 H                     0.092799
     56 H                     0.090165
  ----------------------------------------
  Sum of atomic charges =     0.000000

                    Cartesian Multipole Moments
 -----------------------------------------------------------------
    Charge (ESU x 10^10)
                -0.0000
    Dipole Moment (Debye)
         X       2.9260      Y       3.2186      Z      -0.7717
       Tot       4.4178
    Quadrupole Moments (Debye-Ang)
        XX    -138.9468     XY      -3.2995     YY    -155.6866
        XZ       1.2623     YZ      -0.2380     ZZ    -161.4973

 Total job time:  132.64s(wall), 6320.85s(cpu)
        *  Thank you very much for using Q-Chem.  Have a nice day.  *
