 Q-Chem 5.0, Q-Chem, Inc., Pleasanton, CA (2017)
 Q-Chem 5.0.1 for Intel X86 EM64T Linux

User input:
--------------------------------------------------------------
$molecule
0  1
O 5.7034801859 -0.7521763484 -0.9666890284
C 5.288113301 0.4001604296 -0.7312950359
C 4.022105829 0.8509094863 0.0508443006
C 2.7708412183 -0.1416669662 0.0533947181
C 2.9140796309 -1.7408096076 -0.1566084054
O 1.8533633111 -2.5725062493 -0.4325322087
C 0.359243718 -2.1484198209 -0.5371698257
C -0.1353557322 -0.6972853032 -0.2396772076
O -1.4981147978 -0.4812727848 -0.8471800981
C -2.0568763336 0.6510502173 -0.1336237649
C -3.3934158693 1.0920242769 -0.8632965896
C -4.390608786 -0.0762398214 -1.2459695656
C -3.9670461357 -1.5063277274 -0.7430595432
O -3.1959838143 -2.3199913201 -1.3016109248
O 5.8970883786 1.5917216609 -1.2557332546
O -4.5940062714 -1.7442940826 0.5244101253
O -1.5449547929 1.1780138184 0.8780958087
C -4.1783874485 -3.0678497568 1.0644311784
C -4.3293477628 1.9677206393 0.1215941481
C -5.2953321505 2.8229402805 -0.788077785
C -6.2459330851 1.6992122046 -1.356185233
C -5.7253472114 0.4223351215 -0.574242195
O -5.2486663186 0.9697520528 0.7237690471
H -3.1296562929 1.6937696262 -1.7495548355
H -4.4738760592 -0.1308240748 -2.3581495459
H -3.7878041203 2.5187220585 0.9167490805
H -5.8551797441 3.54673879 -0.1769356698
H -4.7560088422 3.3671488262 -1.5767026991
H -7.3041585181 1.9015885404 -1.1265421498
H -6.1365023732 1.5815772793 -2.4446926616
H -6.4849819302 -0.3666771385 -0.4078725559
O 3.9138982367 -2.3558878092 0.2367789119
C 7.1306245358 1.2182602208 -1.9847873554
C 4.2068538661 1.1316722256 1.6247084823
C 3.1565594807 2.1892035792 2.1690012514
C 1.810546281 1.383557367 1.9857047318
C 2.3575176272 -0.059804893 1.6009000065
O 3.6915065035 -0.1129862212 2.2585304659
H 3.6534817906 1.7893302947 -0.4163057519
H 2.0135226788 0.2539417583 -0.6291784596
H 6.9241858373 0.5515459266 -2.83994653
H 5.2544172436 1.3443020427 1.9075082205
H 3.3578291344 2.3148677411 3.2458578815
H 3.1661456165 3.1766661267 1.6770398462
H 1.2625489377 1.2976374023 2.9367683676
H 1.1448906848 1.8109099713 1.2178839312
H 1.7264735681 -0.8988082164 1.9647707489
H 7.8631498851 0.713430885 -1.3337394859
H 7.5776760027 2.149710149 -2.3621610574
H -4.7349051757 -3.1935440684 2.0125695927
H -3.0898902764 -3.1071534623 1.2722378173
H -4.4297306266 -3.896350824 0.3726622602
H -0.2748576749 -0.6638243016 0.87054185
H 0.5157941838 0.1165107774 -0.5774192107
H -0.2099067724 -2.9252142076 -0.1181695517
H 0.1574256437 -2.2329736941 -1.7412931768
$end

$rem
JOBTYPE                   OPT
METHOD                    B3LYP
DFT_D                     d3_op
BASIS                     STO-3G
GEOM_OPT_MAX_CYCLES       100
GEOM_OPT_TOL_GRADIENT     300
GEOM_OPT_TOL_DISPLACEMENT 1200
GEOM_OPT_TOL_ENERGY       100
SYMMETRY                  False
THRESH                    12
SCF_CONVERGENCE           8
MAX_SUB_FILE_NUM          128
MEM_STATIC                400
MEM_TOTAL                 4000
$end
--------------------------------------------------------------

   16   -1510.1948699365      7.98E-09 Convergence criterion met
 Total energy in the final basis set = -1510.19486994
   15   -1510.2154333748      7.94E-09 Convergence criterion met
 Total energy in the final basis set = -1510.21543337
   14   -1510.2324858094      7.36E-09 Convergence criterion met
 Total energy in the final basis set = -1510.23248581
   13   -1510.2382173242      8.46E-09 Convergence criterion met
 Total energy in the final basis set = -1510.23821732
   14   -1510.2417363122      6.81E-09 Convergence criterion met
 Total energy in the final basis set = -1510.24173631
   13   -1510.2451652422      9.47E-09 Convergence criterion met
 Total energy in the final basis set = -1510.24516524
   14   -1510.2484561067      5.94E-09 Convergence criterion met
 Total energy in the final basis set = -1510.24845611
   13   -1510.2514279929      8.25E-09 Convergence criterion met
   12   -1510.2766019053      4.91E-09 Convergence criterion met
 Total energy in the final basis set = -1510.27660191
   12   -1510.2765989350      4.77E-09 Convergence criterion met
 Total energy in the final basis set = -1510.27659894
   11   -1510.2766154534      9.71E-09 Convergence criterion met
 Total energy in the final basis set = -1510.27661545
   11   -1510.2766236731      5.83E-09 Convergence criterion met
 Total energy in the final basis set = -1510.27662367
   10   -1510.2766270420      7.27E-09 Convergence criterion met
 Total energy in the final basis set = -1510.27662704
   10   -1510.2766236743      8.95E-09 Convergence criterion met
 Total energy in the final basis set = -1510.27662367

             Standard Nuclear Orientation (Angstroms)
    I     Atom           X                Y                Z
 ----------------------------------------------------------------
    1      O       3.7807546504    -1.5498792962    -0.3019480468
    2      C       3.7777740715    -0.3744351863    -0.7322679458
    3      C       3.4072259786     0.9174927405     0.0686828195
    4      C       2.8018171822     0.5960946217     1.4949537817
    5      C       2.6427313556    -0.9462504205     1.8514986277
    6      O       1.5169375272    -1.6908643592     1.3354157061
    7      C       0.6099292356    -0.9619400013     0.4291924164
    8      C      -0.5812048763    -0.3040210527     1.2176173610
    9      O      -1.4914492428     0.2445041726     0.1844478153
   10      C      -2.7492486442     0.6222811643     0.7644422319
   11      C      -3.6819825859     1.0827075171    -0.4109623179
   12      C      -3.8039291675     0.0039429419    -1.5696936200
   13      C      -3.0021745748    -1.3136870655    -1.2909403730
   14      O      -2.1595707260    -1.8648632737    -2.0313354917
   15      O       4.1411909742    -0.0007424897    -2.0614831270
   16      O      -3.4325496363    -1.8397603571    -0.0277512482
   17      O      -2.9995184151     0.5932106688     1.9862523634
   18      C      -2.7498364425    -3.1225916051     0.2530017118
   19      C      -5.1905498874     1.2128719484     0.0522410101
   20      C      -5.9698442506     2.0527760726    -1.0339233625
   21      C      -6.0902498948     1.0017158147    -2.2002097258
   22      C      -5.3751695564    -0.2526290685    -1.5570796847
   23      O      -5.7249219489    -0.1581708399    -0.1228972138
   24      H      -3.2935209660     2.0386584233    -0.8081950378
   25      H      -3.4614562271     0.4084387034    -2.5380808092
   26      H      -5.3118824417     1.5434461555     1.1022106435
   27      H      -6.9607814020     2.3486600504    -0.6542550763
   28      H      -5.4200751753     2.9597133634    -1.3319299423
   29      H      -7.1424698584     0.7690708567    -2.4286152256
   30      H      -5.5922786453     1.3324591239    -3.1255373764
   31      H      -5.6836255352    -1.2333426479    -1.9684303800
   32      O       3.3809312045    -1.5427250923     2.6631008684
   33      C       4.5309361292    -1.2019857305    -2.8378504176
   34      C       4.7201564399     1.7224728302     0.4706514118
   35      C       4.2942593314     3.1544613994     0.9843266265
   36      C       3.7261355194     2.8085686453     2.4104758028
   37      C       3.9069150627     1.2405815690     2.4370084072
   38      O       5.1707570226     1.0259823558     1.6941549455
   39      H       2.7308483073     1.5391716630    -0.5455523722
   40      H       1.8331867661     1.1064266272     1.6308733916
   41      H       3.6963923047    -1.9292421405    -2.9081226364
   42      H       5.5112756254     1.7129902282    -0.3045328316
   43      H       5.1727251375     3.8161262263     1.0466773507
   44      H       3.5443078799     3.6237615521     0.3276629435
   45      H       4.3237004647     3.2782574742     3.2078177797
   46      H       2.6735438620     3.1097741342     2.5338234200
   47      H       3.9682570390     0.7739551377     3.4390230120
   48      H       5.4060982807    -1.7119091157    -2.3860177420
   49      H       4.7930175492    -0.8391379173    -3.8486998578
   50      H      -3.0475937779    -3.4089633765     1.2783915594
   51      H      -1.6471129676    -3.0250622940     0.1984820127
   52      H      -3.0662984077    -3.9135399881    -0.4576545743
   53      H      -1.0983626199    -1.0648295340     1.8403684819
   54      H      -0.2216428241     0.5015699347     1.8945131809
   55      H       0.1920088772    -1.7233357549    -0.2629903770
   56      H       1.1208832990    -0.1951777621    -0.1845108695
 ----------------------------------------------------------------

   10   -1510.2766228275      3.88E-09 Convergence criterion met
 Total energy in the final basis set = -1510.27662283
 Final energy is   -1510.27662282752
 **  OPTIMIZATION CONVERGED  **

                    Orbital Energies (a.u.)
 --------------------------------------------------------------

 Alpha MOs
 -- Occupied --
-18.946 -18.938 -18.934 -18.925 -18.891 -18.890 -18.890 -18.884
-18.874 -18.865 -10.108 -10.107 -10.100 -10.095 -10.078 -10.077
-10.071 -10.066 -10.064 -10.063 -10.061 -10.060 -10.046 -10.042
-10.040 -10.038 -10.025 -10.023 -10.023 -10.022  -1.022  -1.021
 -1.008  -0.997  -0.974  -0.972  -0.946  -0.945  -0.936  -0.930
 -0.768  -0.767  -0.730  -0.727  -0.713  -0.709  -0.704  -0.669
 -0.661  -0.614  -0.602  -0.590  -0.553  -0.550  -0.542  -0.540
 -0.517  -0.515  -0.491  -0.480  -0.472  -0.467  -0.456  -0.446
 -0.439  -0.435  -0.432  -0.418  -0.418  -0.413  -0.409  -0.404
 -0.402  -0.385  -0.380  -0.372  -0.366  -0.363  -0.358  -0.354
 -0.349  -0.344  -0.339  -0.334  -0.330  -0.328  -0.317  -0.313
 -0.312  -0.309  -0.308  -0.299  -0.296  -0.294  -0.285  -0.283
 -0.278  -0.263  -0.260  -0.252  -0.238  -0.237  -0.236  -0.188
 -0.185  -0.178  -0.166  -0.162  -0.161  -0.151  -0.148  -0.146
 -0.141

          Ground-State Mulliken Net Atomic Charges

     Atom                 Charge (a.u.)
  ----------------------------------------
      1 O                    -0.199596
      2 C                     0.209011
      3 C                    -0.082099
      4 C                    -0.087531
      5 C                     0.216196
      6 O                    -0.170130
      7 C                    -0.049126
      8 C                    -0.050521
      9 O                    -0.179814
     10 C                     0.216334
     11 C                    -0.078094
     12 C                    -0.078888
     13 C                     0.211197
     14 O                    -0.216955
     15 O                    -0.169175
     16 O                    -0.169258
     17 O                    -0.206986
     18 C                    -0.128987
     19 C                     0.024664
     20 C                    -0.143874
     21 C                    -0.143976
     22 C                     0.026219
     23 O                    -0.184926
     24 H                     0.083842
     25 H                     0.084476
     26 H                     0.090427
     27 H                     0.078724
     28 H                     0.072719
     29 H                     0.078597
     30 H                     0.073660
     31 H                     0.083087
     32 O                    -0.201589
     33 C                    -0.128463
     34 C                     0.026114
     35 C                    -0.143938
     36 C                    -0.144445
     37 C                     0.026241
     38 O                    -0.186618
     39 H                     0.084163
     40 H                     0.075805
     41 H                     0.092191
     42 H                     0.085865
     43 H                     0.079406
     44 H                     0.073075
     45 H                     0.079587
     46 H                     0.072238
     47 H                     0.093125
     48 H                     0.093005
     49 H                     0.092565
     50 H                     0.093621
     51 H                     0.087925
     52 H                     0.087808
     53 H                     0.095000
     54 H                     0.079347
     55 H                     0.094895
     56 H                     0.083859
  ----------------------------------------
  Sum of atomic charges =     0.000000

                    Cartesian Multipole Moments
 -----------------------------------------------------------------
    Charge (ESU x 10^10)
                -0.0000
    Dipole Moment (Debye)
         X      -1.3841      Y       3.8057      Z      -3.4457
       Tot       5.3172
    Quadrupole Moments (Debye-Ang)
        XX    -167.3475     XY       5.7997     YY    -156.0495
        XZ      -3.8921     YZ       5.3729     ZZ    -163.0301

 Total job time:  107.15s(wall), 5040.30s(cpu)
        *  Thank you very much for using Q-Chem.  Have a nice day.  *
