 Q-Chem 5.0, Q-Chem, Inc., Pleasanton, CA (2017)
 Q-Chem 5.0.1 for Intel X86 EM64T Linux

User input:
--------------------------------------------------------------
$molecule
0  1
O 0.3284672223 -0.4772973037 -3.4179309241
C 0.8864245352 -1.2483962728 -2.5983238814
C 2.1934520791 -0.9754743303 -1.7584665646
C 2.5911382339 0.5310518683 -1.340556683
C 1.7078808671 1.8723836054 -1.3700665242
O 0.3628305469 1.9936845177 -0.8521390966
C -0.6711651574 1.5855441476 -1.8099119779
C -2.0260852787 2.2217126977 -1.3433255364
O -2.3113846039 2.5299662632 0.087083466
C -2.8335974621 1.4570676436 0.8890621786
C -2.4482835772 -0.0098864209 0.5183956046
C -0.889305876 -0.1478860865 0.7859710286
C -0.4905897505 0.7106278982 2.0600016532
O -1.0163042129 0.7850009256 3.2022186001
O 0.3555905986 -2.5547815052 -2.3246655698
O 0.6886107922 1.4630484183 1.755148081
O -3.466463398 1.7978630168 1.9110430661
C 1.1189867113 2.1797783462 2.9692163248
C -3.0068503046 -1.1450532217 1.4391841111
C -3.0217641868 -2.4724372163 0.6128338266
C -1.4887294424 -2.8136305382 0.5810179935
C -0.8575482602 -1.6309894161 1.4090972034
O -1.9329046962 -1.4206999843 2.429557558
H -2.75852053 -0.189504203 -0.5296804513
H -0.2065709372 0.2715311758 0.0448816752
H -3.9669100859 -0.8703663524 1.9036388427
H -3.606976324 -3.2365916996 1.1425791035
H -3.4408072828 -2.3394756946 -0.3938993768
H -1.2820926619 -3.7735636575 1.0980577044
H -1.0875052954 -2.8519116814 -0.4345912834
H 0.1016251933 -1.9236481632 1.8908993563
O 2.2768613244 2.9552202138 -1.6434812096
C -0.8261038608 -2.8035941717 -3.1927884408
C 2.2925350914 -1.7287040927 -0.3565486641
C 3.8180561649 -1.9904979038 -0.0457906754
C 4.3257561967 -0.5429114663 0.2880905363
C 2.9685235695 0.2639003165 0.1987074329
O 1.9450404321 -0.7024001589 0.6428535053
H 3.0253830321 -1.3500564854 -2.3951188439
H 3.504418046 0.8455345543 -1.8840382343
H -0.5663270746 -2.7081168625 -4.2650160121
H 1.6329066286 -2.6102897711 -0.2538770275
H 3.902862872 -2.6418806074 0.8375632245
H 4.3624139264 -2.4406150502 -0.8896374286
H 4.735376412 -0.4828769383 1.3104555415
H 5.0929024512 -0.1981438301 -0.4259648973
H 2.9331597952 1.1629829739 0.8398846169
H -1.6549149256 -2.1015838553 -2.9733037399
H -1.1524922774 -3.8362795537 -2.9750765603
H 2.0378861553 2.7199308933 2.6827309361
H 1.3143596841 1.5033774107 3.8274900397
H 0.3847989509 2.9397008971 3.3057977412
H -2.0923063275 3.2481128917 -1.7778778405
H -2.8582640231 1.6336355292 -1.7910216521
H -0.7610342693 0.4990166739 -1.879844252
H -0.4602801963 1.9724089388 -2.8326479782
$end

$rem
JOBTYPE                   OPT
METHOD                    B3LYP
DFT_D                     d3_op
BASIS                     STO-3G
GEOM_OPT_MAX_CYCLES       100
GEOM_OPT_TOL_GRADIENT     300
GEOM_OPT_TOL_DISPLACEMENT 1200
GEOM_OPT_TOL_ENERGY       100
SYMMETRY                  False
THRESH                    12
SCF_CONVERGENCE           8
MAX_SUB_FILE_NUM          128
MEM_STATIC                400
MEM_TOTAL                 4000
$end
--------------------------------------------------------------

   16   -1510.2026920171      6.59E-09 Convergence criterion met
 Total energy in the final basis set = -1510.20269202
   14   -1510.2101264033      7.01E-09 Convergence criterion met
 Total energy in the final basis set = -1510.21012640
   14   -1510.2190028464      7.32E-09 Convergence criterion met
 Total energy in the final basis set = -1510.21900285
   14   -1510.2246466188      5.87E-09 Convergence criterion met
 Total energy in the final basis set = -1510.22464662
   15   -1510.1541148463      7.04E-09 Convergence criterion met
 Total energy in the final basis set = -1510.15411485
   15   -1510.2288688531      4.50E-09 Convergence criterion met
 Total energy in the final basis set = -1510.22886885
   14   -1510.2298446174      7.64E-09 Convergence criterion met
 Total energy in the final basis set = -1510.22984462
   13   -1510.2354848764      5.73E-09 Convergence criterion met
   12   -1510.3076168878      3.04E-09 Convergence criterion met
 Total energy in the final basis set = -1510.30761689
   11   -1510.3076355564      9.38E-09 Convergence criterion met
 Total energy in the final basis set = -1510.30763556
   11   -1510.3076441393      7.41E-09 Convergence criterion met
 Total energy in the final basis set = -1510.30764414
    9   -1510.3076534795      9.17E-09 Convergence criterion met
 Total energy in the final basis set = -1510.30765348
   11   -1510.3076650711      3.46E-09 Convergence criterion met
 Total energy in the final basis set = -1510.30766507
    9   -1510.3076676116      7.26E-09 Convergence criterion met
 Total energy in the final basis set = -1510.30766761

             Standard Nuclear Orientation (Angstroms)
    I     Atom           X                Y                Z
 ----------------------------------------------------------------
    1      O      -2.8606445387     1.9345329939    -2.8660606300
    2      C      -2.4330082696     1.6827466112    -1.7174103755
    3      C      -3.1315814979     0.7654473195    -0.6449621210
    4      C      -2.5465350049    -0.7045734005    -0.4960765722
    5      C      -1.5365377470    -1.2456086019    -1.5629497812
    6      O      -1.0102953170    -0.1973156938    -2.3755665900
    7      C      -0.0010657092    -0.7248369908    -3.3243770060
    8      C       1.2841608477    -1.2453662300    -2.5494798551
    9      O       1.2042955127    -0.8609531036    -1.1234582324
   10      C       1.4453791461     0.5412020430    -0.9620164446
   11      C       1.1952568256     0.9714002430     0.5187507455
   12      C       1.5997842331    -0.0785814535     1.6387533813
   13      C       1.8240928837    -1.5412279783     1.1342208224
   14      O       2.8847944232    -2.1060309712     0.7971896861
   15      O      -1.2677646616     2.2711154361    -1.1341750162
   16      O       0.5428300786    -2.2067173670     1.2047750347
   17      O       1.7669225228     1.2853327692    -1.9172951181
   18      C       0.5666005469    -3.5053940560     0.4943772314
   19      C       2.1827981706     2.1521661444     0.8660926799
   20      C       1.7867173071     2.7882144711     2.2567694582
   21      C       2.3692653073     1.7249634532     3.2620880469
   22      C       2.8856397817     0.6214869968     2.2585902755
   23      O       3.4462844539     1.4230261226     1.1475239494
   24      H       0.1043325515     1.2087585316     0.6199955340
   25      H       0.7897291314    -0.1243730830     2.3880907822
   26      H       2.3274356766     2.8687391600     0.0343282066
   27      H       2.2630659081     3.7729604228     2.3856259379
   28      H       0.6952397521     2.9065528725     2.3522974419
   29      H       3.2093586877     2.1392624790     3.8422457756
   30      H       1.6115264978     1.3356315880     3.9606551949
   31      H       3.6474903136    -0.0764028448     2.6569398144
   32      O      -1.2234575018    -2.4505748686    -1.7105005104
   33      C      -0.5463335761     3.1054479428    -2.1249306387
   34      C      -2.8964119664     1.3115654008     0.8239824781
   35      C      -3.8442112814     0.5448387300     1.8315796522
   36      C      -3.0827527090    -0.8255674005     1.9978580572
   37      C      -1.9047344684    -0.6448847805     0.9687563417
   38      O      -1.5543693262     0.7823108602     1.1559976049
   39      H      -4.2043174274     0.7218058451    -0.9041254615
   40      H      -3.3797442749    -1.4307871391    -0.4891636411
   41      H      -1.0787804077     3.0707535560    -3.0959023278
   42      H      -2.9097604909     2.4152132339     0.9086004374
   43      H      -3.9148880776     1.0893863413     2.7863029876
   44      H      -4.8592842979     0.4182782813     1.4222668947
   45      H      -2.6827166314    -0.9393238015     3.0183303508
   46      H      -3.7161718599    -1.6973106203     1.7685711541
   47      H      -0.9980520744    -1.2902182915     1.1080805709
   48      H       0.4815612769     2.6885789515    -2.2161943374
   49      H      -0.5056510527     4.1478253215    -1.7531741523
   50      H      -0.0917520943    -3.4138882974    -0.3991618120
   51      H       0.1787745488    -4.2888590269     1.1736253983
   52      H       1.6068880726    -3.7423350846     0.1964879047
   53      H       1.3193104685    -2.3515838935    -2.5504067714
   54      H       2.2013104510    -0.8347020351    -3.0212007316
   55      H       0.2534406185     0.1377070428    -3.9700819019
   56      H      -0.4299258373    -1.5427487205    -3.9411486458
 ----------------------------------------------------------------

    9   -1510.3076677301      5.20E-09 Convergence criterion met
 Total energy in the final basis set = -1510.30766773
 Final energy is   -1510.30766773014
 **  OPTIMIZATION CONVERGED  **

                    Orbital Energies (a.u.)
 --------------------------------------------------------------

 Alpha MOs
 -- Occupied --
-18.951 -18.943 -18.929 -18.921 -18.902 -18.883 -18.878 -18.877
-18.873 -18.863 -10.112 -10.103 -10.099 -10.095 -10.081 -10.079
-10.067 -10.051 -10.049 -10.049 -10.046 -10.042 -10.040 -10.038
-10.028 -10.024 -10.021 -10.016 -10.013 -10.012  -1.032  -1.014
 -1.003  -1.001  -0.978  -0.961  -0.948  -0.940  -0.932  -0.926
 -0.767  -0.756  -0.730  -0.719  -0.710  -0.704  -0.695  -0.653
 -0.648  -0.622  -0.598  -0.584  -0.548  -0.542  -0.538  -0.531
 -0.513  -0.505  -0.483  -0.481  -0.473  -0.456  -0.447  -0.439
 -0.433  -0.427  -0.425  -0.422  -0.413  -0.408  -0.405  -0.403
 -0.398  -0.383  -0.370  -0.368  -0.365  -0.364  -0.350  -0.344
 -0.339  -0.337  -0.331  -0.329  -0.327  -0.323  -0.321  -0.317
 -0.311  -0.305  -0.302  -0.299  -0.297  -0.294  -0.284  -0.278
 -0.269  -0.249  -0.246  -0.244  -0.239  -0.234  -0.220  -0.194
 -0.185  -0.168  -0.164  -0.163  -0.157  -0.155  -0.149  -0.147
 -0.136

          Ground-State Mulliken Net Atomic Charges

     Atom                 Charge (a.u.)
  ----------------------------------------
      1 O                    -0.222021
      2 C                     0.217095
      3 C                    -0.080243
      4 C                    -0.082255
      5 C                     0.217370
      6 O                    -0.165800
      7 C                    -0.048902
      8 C                    -0.049359
      9 O                    -0.172803
     10 C                     0.220758
     11 C                    -0.096342
     12 C                    -0.083454
     13 C                     0.222425
     14 O                    -0.213070
     15 O                    -0.176080
     16 O                    -0.179092
     17 O                    -0.220153
     18 C                    -0.143484
     19 C                     0.022567
     20 C                    -0.144745
     21 C                    -0.142173
     22 C                     0.023502
     23 O                    -0.193077
     24 H                     0.128148
     25 H                     0.085610
     26 H                     0.085790
     27 H                     0.075369
     28 H                     0.076759
     29 H                     0.075801
     30 H                     0.072158
     31 H                     0.084251
     32 O                    -0.220515
     33 C                    -0.147626
     34 C                     0.029037
     35 C                    -0.145119
     36 C                    -0.143164
     37 C                     0.006787
     38 O                    -0.191671
     39 H                     0.084754
     40 H                     0.086266
     41 H                     0.094965
     42 H                     0.086582
     43 H                     0.077649
     44 H                     0.074192
     45 H                     0.077104
     46 H                     0.073916
     47 H                     0.115550
     48 H                     0.102880
     49 H                     0.077358
     50 H                     0.101704
     51 H                     0.080818
     52 H                     0.096523
     53 H                     0.097932
     54 H                     0.096962
     55 H                     0.099617
     56 H                     0.092953
  ----------------------------------------
  Sum of atomic charges =    -0.000000

                    Cartesian Multipole Moments
 -----------------------------------------------------------------
    Charge (ESU x 10^10)
                -0.0000
    Dipole Moment (Debye)
         X      -2.5709      Y      -0.4856      Z       1.1268
       Tot       2.8487
    Quadrupole Moments (Debye-Ang)
        XX    -166.3568     XY       1.4380     YY    -158.5761
        XZ      -6.9597     YZ       5.4954     ZZ    -154.9660

 Total job time:  262.10s(wall), 12518.28s(cpu)
        *  Thank you very much for using Q-Chem.  Have a nice day.  *
