 Q-Chem 5.0, Q-Chem, Inc., Pleasanton, CA (2017)
 Q-Chem 5.0.1 for Intel X86 EM64T Linux

User input:
--------------------------------------------------------------
$molecule
0  1
O -3.94934 -3.66094 2.70899
C -3.26408 -4.56952 2.26188
C -3.36658 -6.02376 2.66595
C -4.77372 -6.64113 2.71769
C -5.90468 -5.78727 2.1886
O -7.08665 -6.46279 2.2984
C -7.10064 -7.40116 3.37938
C -6.16356 -6.93771 4.48989
O -5.48991 -8.06816 5.06536
C -5.30502 -8.01545 6.40781
C -4.2293 -8.95882 6.89107
C -4.03441 -10.21454 6.02883
C -4.66668 -10.17543 4.65209
O -4.0659 -10.00733 3.60072
O -2.03763 -4.13594 1.8248
O -5.94831 -10.64031 4.61619
O -5.67273 -7.07858 7.10701
C -6.665 -10.99299 3.48788
C -2.82155 -8.34016 6.85695
C -1.92369 -9.06495 7.8567
C -1.76363 -10.40519 7.1691
C -2.49929 -10.12716 5.85192
O -2.28924 -8.7542 5.62514
H -4.49624 -9.22954 7.93786
H -4.32468 -11.16747 6.52425
H -2.81608 -7.24514 7.05059
H -0.94112 -8.54057 7.84889
H -2.30609 -9.10997 8.89912
H -0.6794 -10.57781 6.9883
H -2.20493 -11.27228 7.70658
H -2.12682 -10.81289 5.05877
O -5.80981 -4.84131 1.42153
C -1.69749 -2.82372 1.55987
C -2.85795 -6.50219 1.17705
C -2.20292 -7.82742 1.03307
C -3.32429 -8.60607 1.52978
C -4.5285 -7.57203 1.42211
O -4.04101 -6.68954 0.47535
H -2.65011 -6.27086 3.47952
H -4.603 -7.60059 3.19471
H -1.79036 -2.20731 2.47929
H -2.13941 -5.89561 0.58044
H -2.06471 -8.02099 -0.0587
H -1.21771 -7.96422 1.54186
H -3.40837 -9.56894 0.98002
H -2.91642 -8.66671 2.54407
H -5.43749 -8.11834 1.08152
H -2.35494 -2.41449 0.76332
H -0.64547 -2.78468 1.21048
H -7.61695 -10.42558 3.4626
H -6.91481 -12.07232 3.54386
H -6.102 -10.80915 2.54787
H -5.70822 -5.92874 4.69199
H -6.9732 -6.63935 5.19686
H -6.77562 -8.37659 2.97553
H -8.14831 -7.57098 3.71927
$end

$opt
CONSTRAINT
tors           1           2           3           4     +47.368
tors           3           4           5           6    -180.000
tors           4           5           6           7     +28.421
tors           5           6           7           8     +28.421
tors           6           7           8           9    -142.105
tors           7           8           9          10    -142.105
tors           8           9          10          11    -161.053
tors           9          10          11          12     -28.421
tors          11          12          13          14    +104.211
ENDCONSTRAINT
$end

$rem
JOBTYPE                   OPT
METHOD                    B3LYP
DFT_D                     d3_op
BASIS                     STO-3G
GEOM_OPT_MAX_CYCLES       100
GEOM_OPT_TOL_GRADIENT     300
GEOM_OPT_TOL_DISPLACEMENT 1200
GEOM_OPT_TOL_ENERGY       100
SYMMETRY                  False
THRESH                    12
SCF_CONVERGENCE           8
MAX_SUB_FILE_NUM          128
MEM_STATIC                400
MEM_TOTAL                 4000
$end
--------------------------------------------------------------

   16   -1509.9093708690      3.52E-09 Convergence criterion met
 Total energy in the final basis set = -1509.90937087
   15   -1509.9980970600      3.92E-09 Convergence criterion met
 Total energy in the final basis set = -1509.99809706
   14   -1510.0655352244      2.40E-09 Convergence criterion met
 Total energy in the final basis set = -1510.06553522
   13   -1510.1112886770      5.81E-09 Convergence criterion met
 Total energy in the final basis set = -1510.11128868
   13   -1510.1449977375      6.27E-09 Convergence criterion met
 Total energy in the final basis set = -1510.14499774
   13   -1510.1703086020      5.81E-09 Convergence criterion met
 Total energy in the final basis set = -1510.17030860
   14   -1510.1899034924      1.97E-09 Convergence criterion met
 Total energy in the final basis set = -1510.18990349
   13   -1510.2055845021      5.56E-09 Convergence criterion met
   11   -1510.2522226010      4.53E-09 Convergence criterion met
 Total energy in the final basis set = -1510.25222260
   11   -1510.2522518262      5.28E-09 Convergence criterion met
 Total energy in the final basis set = -1510.25225183
   10   -1510.2522777086      9.48E-09 Convergence criterion met
 Total energy in the final basis set = -1510.25227771
   10   -1510.2522893364      9.38E-09 Convergence criterion met
 Total energy in the final basis set = -1510.25228934
   10   -1510.2522979078      8.46E-09 Convergence criterion met
 Total energy in the final basis set = -1510.25229791
   10   -1510.2523003515      4.26E-09 Convergence criterion met
 Total energy in the final basis set = -1510.25230035

             Standard Nuclear Orientation (Angstroms)
    I     Atom           X                Y                Z
 ----------------------------------------------------------------
    1      O      -4.2934761561     1.0285832664     1.8168359626
    2      C      -4.3163064979     1.1884769183     0.5770386712
    3      C      -3.0702782279     1.2821927324    -0.3786288105
    4      C      -1.9801223476     0.1609053944    -0.1497283305
    5      C      -2.5909096102    -1.1424582406     0.5132826099
    6      O      -1.7633802102    -2.2801857217     0.8044281522
    7      C      -0.3158909841    -2.1797619228     1.1058887654
    8      C       0.3410145066    -0.9033303905     1.7683476932
    9      O       1.6518842221    -0.7454814324     1.1067618994
   10      C       2.6796457117    -0.3155729128     1.9976601176
   11      C       3.8482087683     0.2738653224     1.1370897411
   12      C       4.0318411282    -0.3056146399    -0.3334608799
   13      C       3.0723652809    -1.4778853196    -0.7546921242
   14      O       2.0761487201    -1.4211272182    -1.5084777676
   15      O      -5.5146400733     1.3528773709    -0.1880748849
   16      O       3.5592068566    -2.6774830539    -0.1370301712
   17      O       2.5939726850    -0.3366068195     3.2444504883
   18      C       2.7051164477    -3.8334852525    -0.4933322369
   19      C       3.5106424243     1.7986820851     0.8034160496
   20      C       4.8334265818     2.5153480478     0.3234313554
   21      C       4.9725995615     1.9490544459    -1.1384577269
   22      C       3.7267329663     0.9838083512    -1.2078102525
   23      O       2.6920230236     1.6973906644    -0.4228367712
   24      H       4.7813928115     0.1893891333     1.7216212541
   25      H       5.0710880577    -0.6555531580    -0.4697855412
   26      H       2.9542522890     2.3260402017     1.6029326525
   27      H       4.7003866033     3.6088953890     0.3248306549
   28      H       5.6948000424     2.2633503497     0.9623670750
   29      H       4.8815647364     2.7493745916    -1.8900872744
   30      H       5.9228205924     1.4162238550    -1.3019531454
   31      H       3.3473229400     0.7555773448    -2.2226475214
   32      O      -3.8239001606    -1.3444959570     0.5957175829
   33      C      -6.6952380214     1.2332550306     0.6969282157
   34      C      -3.3271354910     1.1545737296    -1.9427763534
   35      C      -2.1644391147     1.9419538457    -2.6657682081
   36      C      -0.9403862217     0.9944516485    -2.3735057591
   37      C      -1.6547701021    -0.2216228063    -1.6614537954
   38      O      -3.0091214937    -0.2572055368    -2.2607889389
   39      H      -2.6056463420     2.2643309589    -0.1683872040
   40      H      -1.1041882020     0.5658069033     0.3680951132
   41      H      -6.7069682916     2.0240505158     1.4750773080
   42      H      -4.3573163112     1.4052561990    -2.2601454637
   43      H      -2.3657813815     2.0133055773    -3.7467622888
   44      H      -2.0278228988     2.9579810876    -2.2628078553
   45      H      -0.4497429170     0.6611590488    -3.3013842702
   46      H      -0.1809661089     1.4594269834    -1.7235507010
   47      H      -1.1460100566    -1.1977097236    -1.7833324827
   48      H      -6.7247269357     0.2444396625     1.1981944512
   49      H      -7.5795966220     1.3451144944     0.0428603252
   50      H       2.1799907911    -4.1968028035     0.4124643354
   51      H       3.3522451687    -4.6412740706    -0.8866461065
   52      H       1.9632693040    -3.5294236421    -1.2593708950
   53      H      -0.2474428566     0.0228784087     1.6497956512
   54      H       0.4971068796    -1.0610417045     2.8579003865
   55      H       0.2427208866    -2.3327754776     0.1517824123
   56      H      -0.1172783856    -3.0589757374     1.7527586895
 ----------------------------------------------------------------

    9   -1510.2523001169      5.17E-09 Convergence criterion met
 Total energy in the final basis set = -1510.25230012
 Final energy is   -1510.25230011687
 **  OPTIMIZATION CONVERGED  **

                    Orbital Energies (a.u.)
 --------------------------------------------------------------

 Alpha MOs
 -- Occupied --
-18.945 -18.935 -18.927 -18.924 -18.897 -18.889 -18.882 -18.877
-18.876 -18.858 -10.113 -10.107 -10.100 -10.090 -10.082 -10.079
-10.070 -10.066 -10.063 -10.056 -10.055 -10.052 -10.048 -10.045
-10.034 -10.030 -10.028 -10.027 -10.014 -10.013  -1.027  -1.012
 -1.004  -0.997  -0.980  -0.965  -0.952  -0.939  -0.932  -0.923
 -0.771  -0.758  -0.735  -0.718  -0.715  -0.708  -0.701  -0.667
 -0.652  -0.623  -0.604  -0.586  -0.552  -0.545  -0.539  -0.532
 -0.524  -0.510  -0.495  -0.480  -0.469  -0.463  -0.455  -0.446
 -0.438  -0.435  -0.428  -0.417  -0.413  -0.406  -0.401  -0.399
 -0.395  -0.390  -0.382  -0.373  -0.367  -0.363  -0.353  -0.352
 -0.345  -0.342  -0.338  -0.333  -0.327  -0.325  -0.317  -0.317
 -0.311  -0.310  -0.304  -0.302  -0.301  -0.292  -0.279  -0.277
 -0.270  -0.253  -0.249  -0.244  -0.244  -0.233  -0.228  -0.187
 -0.178  -0.171  -0.167  -0.163  -0.159  -0.154  -0.150  -0.141
 -0.136

          Ground-State Mulliken Net Atomic Charges

     Atom                 Charge (a.u.)
  ----------------------------------------
      1 O                    -0.220854
      2 C                     0.215864
      3 C                    -0.080083
      4 C                    -0.082670
      5 C                     0.214529
      6 O                    -0.173562
      7 C                    -0.051208
      8 C                    -0.053536
      9 O                    -0.175444
     10 C                     0.213268
     11 C                    -0.077460
     12 C                    -0.078680
     13 C                     0.220445
     14 O                    -0.219245
     15 O                    -0.170670
     16 O                    -0.174357
     17 O                    -0.209152
     18 C                    -0.136301
     19 C                     0.025185
     20 C                    -0.143597
     21 C                    -0.143994
     22 C                     0.025292
     23 O                    -0.190314
     24 H                     0.087722
     25 H                     0.086244
     26 H                     0.083035
     27 H                     0.079524
     28 H                     0.075715
     29 H                     0.079160
     30 H                     0.074812
     31 H                     0.089177
     32 O                    -0.191944
     33 C                    -0.127194
     34 C                     0.023659
     35 C                    -0.143015
     36 C                    -0.144880
     37 C                     0.024325
     38 O                    -0.190103
     39 H                     0.080339
     40 H                     0.082403
     41 H                     0.085795
     42 H                     0.093253
     43 H                     0.076697
     44 H                     0.072054
     45 H                     0.079335
     46 H                     0.079873
     47 H                     0.084934
     48 H                     0.094338
     49 H                     0.088294
     50 H                     0.083895
     51 H                     0.087107
     52 H                     0.099551
     53 H                     0.090414
     54 H                     0.099388
     55 H                     0.090565
     56 H                     0.092072
  ----------------------------------------
  Sum of atomic charges =     0.000000

                    Cartesian Multipole Moments
 -----------------------------------------------------------------
    Charge (ESU x 10^10)
                 0.0000
    Dipole Moment (Debye)
         X       4.3466      Y       1.7291      Z      -0.8661
       Tot       4.7574
    Quadrupole Moments (Debye-Ang)
        XX    -153.1611     XY      -7.3363     YY    -153.6325
        XZ      -2.7621     YZ      -0.6322     ZZ    -168.4720

 Total job time:  84.00s(wall), 4004.11s(cpu)
        *  Thank you very much for using Q-Chem.  Have a nice day.  *
