 Q-Chem 5.0, Q-Chem, Inc., Pleasanton, CA (2017)
 Q-Chem 5.0.1 for Intel X86 EM64T Linux

User input:
--------------------------------------------------------------
$molecule
0  1
O -4.2934761561 1.0285832664 1.8168359626
C -4.3163064979 1.1884769183 0.5770386712
C -3.0702782279 1.2821927324 -0.3786288105
C -1.9801223476 0.1609053944 -0.1497283305
C -2.5909096102 -1.1424582406 0.5132826099
O -1.7633802102 -2.2801857217 0.8044281522
C -0.3158909841 -2.1797619228 1.1058887654
C 0.3410145066 -0.9033303905 1.7683476932
O 1.6518842221 -0.7454814324 1.1067618994
C 2.6796457117 -0.3155729128 1.9976601176
C 3.8482087683 0.2738653224 1.1370897411
C 4.0318411282 -0.3056146399 -0.3334608799
C 3.0723652809 -1.4778853196 -0.7546921242
O 2.0761487201 -1.4211272182 -1.5084777676
O -5.5146400733 1.3528773709 -0.1880748849
O 3.5592068566 -2.6774830539 -0.1370301712
O 2.593972685 -0.3366068195 3.2444504883
C 2.7051164477 -3.8334852525 -0.4933322369
C 3.5106424243 1.7986820851 0.8034160496
C 4.8334265818 2.5153480478 0.3234313554
C 4.9725995615 1.9490544459 -1.1384577269
C 3.7267329663 0.9838083512 -1.2078102525
O 2.6920230236 1.6973906644 -0.4228367712
H 4.7813928115 0.1893891333 1.7216212541
H 5.0710880577 -0.655553158 -0.4697855412
H 2.954252289 2.3260402017 1.6029326525
H 4.7003866033 3.608895389 0.3248306549
H 5.6948000424 2.2633503497 0.962367075
H 4.8815647364 2.7493745916 -1.8900872744
H 5.9228205924 1.416223855 -1.3019531454
H 3.34732294 0.7555773448 -2.2226475214
O -3.8239001606 -1.344495957 0.5957175829
C -6.6952380214 1.2332550306 0.6969282157
C -3.327135491 1.1545737296 -1.9427763534
C -2.1644391147 1.9419538457 -2.6657682081
C -0.9403862217 0.9944516485 -2.3735057591
C -1.6547701021 -0.2216228063 -1.6614537954
O -3.0091214937 -0.2572055368 -2.2607889389
H -2.605646342 2.2643309589 -0.168387204
H -1.104188202 0.5658069033 0.3680951132
H -6.7069682916 2.0240505158 1.475077308
H -4.3573163112 1.405256199 -2.2601454637
H -2.3657813815 2.0133055773 -3.7467622888
H -2.0278228988 2.9579810876 -2.2628078553
H -0.449742917 0.6611590488 -3.3013842702
H -0.1809661089 1.4594269834 -1.723550701
H -1.1460100566 -1.1977097236 -1.7833324827
H -6.7247269357 0.2444396625 1.1981944512
H -7.579596622 1.3451144944 0.0428603252
H 2.1799907911 -4.1968028035 0.4124643354
H 3.3522451687 -4.6412740706 -0.8866461065
H 1.963269304 -3.5294236421 -1.259370895
H -0.2474428566 0.0228784087 1.6497956512
H 0.4971068796 -1.0610417045 2.8579003865
H 0.2427208866 -2.3327754776 0.1517824123
H -0.1172783856 -3.0589757374 1.7527586895
$end

$rem
JOBTYPE                   OPT
METHOD                    B3LYP
DFT_D                     d3_op
BASIS                     STO-3G
GEOM_OPT_MAX_CYCLES       100
GEOM_OPT_TOL_GRADIENT     300
GEOM_OPT_TOL_DISPLACEMENT 1200
GEOM_OPT_TOL_ENERGY       100
SYMMETRY                  False
THRESH                    12
SCF_CONVERGENCE           8
MAX_SUB_FILE_NUM          128
MEM_STATIC                400
MEM_TOTAL                 4000
$end
--------------------------------------------------------------

   16   -1510.2523293250      7.61E-09 Convergence criterion met
 Total energy in the final basis set = -1510.25232932
   14   -1510.2576019109      4.02E-09 Convergence criterion met
 Total energy in the final basis set = -1510.25760191
   14   -1510.2650927099      2.32E-09 Convergence criterion met
 Total energy in the final basis set = -1510.26509271
   14   -1510.2719065894      7.24E-09 Convergence criterion met
 Total energy in the final basis set = -1510.27190659
   14   -1510.2709838638      6.46E-09 Convergence criterion met
 Total energy in the final basis set = -1510.27098386
   14   -1510.2727933722      6.23E-09 Convergence criterion met
 Total energy in the final basis set = -1510.27279337
   14   -1510.2774385350      3.62E-09 Convergence criterion met
 Total energy in the final basis set = -1510.27743853
   14   -1510.2810215689      1.73E-09 Convergence criterion met
   10   -1510.2947383268      7.62E-09 Convergence criterion met
 Total energy in the final basis set = -1510.29473833
   10   -1510.2947370236      6.75E-09 Convergence criterion met
 Total energy in the final basis set = -1510.29473702
   10   -1510.2947292789      7.62E-09 Convergence criterion met
 Total energy in the final basis set = -1510.29472928
   10   -1510.2947212714      5.34E-09 Convergence criterion met
 Total energy in the final basis set = -1510.29472127
   10   -1510.2947085838      7.90E-09 Convergence criterion met
 Total energy in the final basis set = -1510.29470858
    9   -1510.2947073338      8.53E-09 Convergence criterion met
 Total energy in the final basis set = -1510.29470733

             Standard Nuclear Orientation (Angstroms)
    I     Atom           X                Y                Z
 ----------------------------------------------------------------
    1      O      -2.1785570511     1.1740225487     2.6095322856
    2      C      -2.6240120981     1.2461936675     1.4414500239
    3      C      -1.7643731851     1.2048787556     0.1302047949
    4      C      -1.3955537208    -0.2525665341    -0.3677872753
    5      C      -2.1632644250    -1.3705854339     0.4185650229
    6      O      -1.8186421806    -2.7542101084     0.1927133906
    7      C      -0.5377180185    -3.0023691460    -0.4980324639
    8      C       0.7059259194    -2.8693091447     0.4552937129
    9      O       1.1874855292    -1.4659861090     0.4254013473
   10      C       2.2432843209    -1.2862835258     1.3844309902
   11      C       2.7744509690     0.1808900093     1.3046978083
   12      C       3.1870772978     0.6521681290    -0.1559181459
   13      C       2.8072783709    -0.3799827073    -1.2780135856
   14      O       2.0042953647    -0.2229286628    -2.2240890387
   15      O      -3.9960343612     1.5119626096     1.1192884417
   16      O       3.5887979066    -1.5626538002    -1.0820623689
   17      O       2.6361705580    -2.1873009640     2.1546771144
   18      C       3.2806731446    -2.5563068998    -2.1368285310
   19      C       1.6662034411     1.2696374316     1.6637884250
   20      C       2.4070210413     2.6088297165     2.0454691141
   21      C       2.9126830174     3.0903305953     0.6331778655
   22      C       2.3251721032     1.9673500514    -0.3069852866
   23      O       1.0579222613     1.5851042078     0.3551339980
   24      H       3.6323811400     0.2469330295     1.9962667304
   25      H       4.2736343868     0.8469919427    -0.2126541513
   26      H       0.8861569194     0.9325940484     2.3753336042
   27      H       1.6939790706     3.3254277552     2.4836109827
   28      H       3.2272544290     2.4429546159     2.7614646655
   29      H       2.4930869221     4.0733575435     0.3673727764
   30      H       4.0112618290     3.1463085121     0.5709602907
   31      H       2.1334483793     2.2623110069    -1.3569165781
   32      O      -3.1185993978    -1.1651688887     1.2014738370
   33      C      -4.8125483763     1.4766059907     2.3513256198
   34      C      -2.4620763536     1.8002741256    -1.1610508626
   35      C      -1.3182262685     2.1684014932    -2.1893093786
   36      C      -0.8787717063     0.7398362896    -2.6803562353
   37      C      -1.8857687003    -0.1770290645    -1.8801328013
   38      O      -3.1210054569     0.6318952578    -1.7913691903
   39      H      -0.8059872826     1.7226892229     0.3332551862
   40      H      -0.3044602665    -0.4186964299    -0.2740545711
   41      H      -4.4566933345     2.2104043832     3.1037605601
   42      H      -3.2020330911     2.5986054031    -0.9623155879
   43      H      -1.7214354195     2.7737931647    -3.0170293612
   44      H      -0.4969306548     2.7241009039    -1.7096313105
   45      H      -1.0388546513     0.6224015894    -3.7639893229
   46      H       0.1771159552     0.5021452931    -2.4476951183
   47      H      -2.1071634984    -1.1556880280    -2.3492571174
   48      H      -4.8000927284     0.4663824102     2.8095414521
   49      H      -5.8438818676     1.7304954306     2.0442194826
   50      H       3.7633023720    -3.4995253916    -1.8212462871
   51      H       3.6909857302    -2.2419103204    -3.1183981211
   52      H       2.1885138521    -2.7090637162    -2.2473226056
   53      H       0.4218102131    -3.1655928084     1.4885939759
   54      H       1.5158463830    -3.5511065839     0.1153148677
   55      H      -0.3898179951    -2.3720423029    -1.3997121943
   56      H      -0.6021260570    -4.0610108013    -0.8254772350
 ----------------------------------------------------------------

    9   -1510.2947027671      1.65E-09 Convergence criterion met
 Total energy in the final basis set = -1510.29470277
 Final energy is   -1510.29470276708
 **  OPTIMIZATION CONVERGED  **

                    Orbital Energies (a.u.)
 --------------------------------------------------------------

 Alpha MOs
 -- Occupied --
-18.953 -18.951 -18.928 -18.910 -18.907 -18.895 -18.895 -18.874
-18.869 -18.838 -10.119 -10.117 -10.093 -10.086 -10.085 -10.079
-10.076 -10.075 -10.074 -10.055 -10.053 -10.045 -10.041 -10.039
-10.033 -10.031 -10.013 -10.003 -10.001  -9.995  -1.034  -1.024
 -1.002  -0.991  -0.982  -0.954  -0.953  -0.952  -0.933  -0.908
 -0.780  -0.743  -0.739  -0.725  -0.713  -0.701  -0.688  -0.678
 -0.639  -0.622  -0.600  -0.581  -0.561  -0.551  -0.531  -0.529
 -0.520  -0.505  -0.498  -0.485  -0.473  -0.459  -0.449  -0.443
 -0.439  -0.433  -0.422  -0.419  -0.418  -0.410  -0.405  -0.393
 -0.390  -0.388  -0.381  -0.373  -0.371  -0.366  -0.360  -0.350
 -0.348  -0.341  -0.333  -0.325  -0.322  -0.319  -0.316  -0.314
 -0.313  -0.310  -0.303  -0.297  -0.292  -0.289  -0.285  -0.271
 -0.267  -0.264  -0.253  -0.243  -0.238  -0.227  -0.214  -0.195
 -0.194  -0.175  -0.170  -0.167  -0.163  -0.149  -0.143  -0.129
 -0.122

          Ground-State Mulliken Net Atomic Charges

     Atom                 Charge (a.u.)
  ----------------------------------------
      1 O                    -0.234968
      2 C                     0.211047
      3 C                    -0.095590
      4 C                    -0.097837
      5 C                     0.209760
      6 O                    -0.172835
      7 C                    -0.048961
      8 C                    -0.051151
      9 O                    -0.176754
     10 C                     0.214848
     11 C                    -0.079704
     12 C                    -0.077978
     13 C                     0.219547
     14 O                    -0.212766
     15 O                    -0.170252
     16 O                    -0.170920
     17 O                    -0.202746
     18 C                    -0.129027
     19 C                     0.026887
     20 C                    -0.142659
     21 C                    -0.144381
     22 C                     0.026277
     23 O                    -0.188215
     24 H                     0.090337
     25 H                     0.089368
     26 H                     0.097751
     27 H                     0.083808
     28 H                     0.077530
     29 H                     0.081426
     30 H                     0.076177
     31 H                     0.091915
     32 O                    -0.195215
     33 C                    -0.127028
     34 C                     0.023971
     35 C                    -0.143759
     36 C                    -0.155815
     37 C                     0.020532
     38 O                    -0.191757
     39 H                     0.103696
     40 H                     0.101629
     41 H                     0.082787
     42 H                     0.084693
     43 H                     0.071041
     44 H                     0.069939
     45 H                     0.068837
     46 H                     0.091421
     47 H                     0.072642
     48 H                     0.091615
     49 H                     0.084950
     50 H                     0.093083
     51 H                     0.090384
     52 H                     0.089601
     53 H                     0.100242
     54 H                     0.088135
     55 H                     0.091481
     56 H                     0.092959
  ----------------------------------------
  Sum of atomic charges =    -0.000000

                    Cartesian Multipole Moments
 -----------------------------------------------------------------
    Charge (ESU x 10^10)
                -0.0000
    Dipole Moment (Debye)
         X       5.5307      Y       0.3770      Z      -1.6893
       Tot       5.7953
    Quadrupole Moments (Debye-Ang)
        XX    -163.1801     XY       0.3196     YY    -149.4643
        XZ      -3.8816     YZ       9.5872     ZZ    -164.3633

 Total job time:  163.56s(wall), 7792.92s(cpu)
        *  Thank you very much for using Q-Chem.  Have a nice day.  *
