 Q-Chem 5.0, Q-Chem, Inc., Pleasanton, CA (2017)
 Q-Chem 5.0.1 for Intel X86 EM64T Linux

User input:
--------------------------------------------------------------
$molecule
0  1
O 3.4341945693 -1.642394349 -1.4525409119
C 3.7274606865 -0.5333331171 -0.9533601955
C 2.9399627332 0.8142224227 -1.1572890992
C 1.4896193707 0.7492868882 -0.5007882082
C 1.092129491 -0.693783496 -0.0288685683
O 1.6210198189 -0.8837801716 1.2842540999
C 1.3238097599 -2.2126373943 1.866948521
C -0.1592235359 -2.745990499 1.7763926361
O -1.1079534251 -1.6918200362 2.195812216
C -2.0787229171 -1.41020715 1.1534914832
C -2.032477794 0.1141319875 0.7713527299
C -2.2218802918 0.4296145866 -0.7709688671
C -2.8215916242 -0.7323781275 -1.642734735
O -2.2922309497 -1.2424275481 -2.654822468
O 4.8437176375 -0.3271020792 -0.0846494777
O -4.1603623197 -1.0016924405 -1.2165580032
O -2.7295184787 -2.3166072118 0.5922308686
C -4.7305078715 -2.1047190833 -2.0213589683
C -3.1465868844 1.0513103879 1.4237919491
C -2.5413624177 2.5099572173 1.4759665778
C -2.5687674984 2.8924476506 -0.0505903287
C -3.2723836849 1.6223084917 -0.6779632099
O -4.1928455602 1.1643997627 0.3869628713
H -1.0397055921 0.4629493041 1.1043612444
H -1.2714968991 0.7346007961 -1.2382805375
H -3.5755270292 0.6781989633 2.373912509
H -3.1906440015 3.1735225598 2.069357387
H -1.5264619908 2.5296487741 1.9041858869
H -3.1697324122 3.7974559887 -0.232523463
H -1.5606974842 3.051096255 -0.4655707674
H -3.8306012537 1.8115487598 -1.6152782782
O 0.4159313229 -1.5242420896 -0.673250913
C 5.547624993 -1.6102242021 0.1427206086
C 3.5676784271 2.0169665536 -0.3404345759
C 2.862148791 3.3627750622 -0.7765250634
C 1.4880953627 3.2537690862 -0.0169250256
C 1.6296597354 1.8307366265 0.6521738085
O 3.0591927469 1.7771905646 1.0319606228
H 2.8734237629 1.0185755515 -2.2413430147
H 0.7358575919 1.0584668417 -1.2461997398
H 5.9402590583 -2.0357460639 -0.8034800782
H 4.6736684558 2.0397419024 -0.3436992421
H 3.4458970782 4.2320225699 -0.435218897
H 2.7379836607 3.4285405689 -1.8694584647
H 1.3905193466 4.032858512 0.7559405861
H 0.6206859134 3.3171769841 -0.6931021085
H 0.9871512719 1.6514414267 1.5359552381
H 4.8812208805 -2.3601152403 0.6155287938
H 6.3875292819 -1.3794776765 0.8233029159
H -5.7845951109 -2.2002983126 -1.7025245701
H -4.1973902616 -3.0578598217 -1.827482312
H -4.6855828972 -1.8869822718 -3.1081622535
H -0.3741686915 -3.0958600887 0.7466348271
H -0.234196241 -3.6129911017 2.4713908238
H 1.6149092054 -2.1073715142 2.9316579024
H 1.9797082184 -2.9819251046 1.3987260713
$end

$rem
JOBTYPE                   OPT
METHOD                    B3LYP
DFT_D                     d3_op
BASIS                     STO-3G
GEOM_OPT_MAX_CYCLES       100
GEOM_OPT_TOL_GRADIENT     300
GEOM_OPT_TOL_DISPLACEMENT 1200
GEOM_OPT_TOL_ENERGY       100
SYMMETRY                  False
THRESH                    12
SCF_CONVERGENCE           8
MAX_SUB_FILE_NUM          128
MEM_STATIC                400
MEM_TOTAL                 4000
$end
--------------------------------------------------------------

   16   -1510.2629884103      4.43E-09 Convergence criterion met
 Total energy in the final basis set = -1510.26298841
   15   -1510.2670475564      5.51E-09 Convergence criterion met
 Total energy in the final basis set = -1510.26704756
   14   -1510.2732852784      9.58E-09 Convergence criterion met
 Total energy in the final basis set = -1510.27328528
   15   -1510.2480790365      2.88E-09 Convergence criterion met
 Total energy in the final basis set = -1510.24807904
   15   -1510.2754915535      5.89E-09 Convergence criterion met
 Total energy in the final basis set = -1510.27549155
   14   -1510.2807429276      9.61E-09 Convergence criterion met
 Total energy in the final basis set = -1510.28074293
   15   -1510.2854646374      2.50E-09 Convergence criterion met
 Total energy in the final basis set = -1510.28546464
   14   -1510.2852519329      8.89E-09 Convergence criterion met
   11   -1510.2991866176      7.32E-09 Convergence criterion met
 Total energy in the final basis set = -1510.29918662
   12   -1510.2991899971      3.25E-09 Convergence criterion met
 Total energy in the final basis set = -1510.29919000
   11   -1510.2991921427      3.41E-09 Convergence criterion met
 Total energy in the final basis set = -1510.29919214
   10   -1510.2991941511      6.23E-09 Convergence criterion met
 Total energy in the final basis set = -1510.29919415
    9   -1510.2991965080      6.81E-09 Convergence criterion met
 Total energy in the final basis set = -1510.29919651
    9   -1510.2991939389      9.00E-09 Convergence criterion met
 Total energy in the final basis set = -1510.29919394

             Standard Nuclear Orientation (Angstroms)
    I     Atom           X                Y                Z
 ----------------------------------------------------------------
    1      O       3.9169472620    -1.8578932333     0.2275832825
    2      C       4.0672624720    -1.1581900289    -0.7999594127
    3      C       3.0797160632    -0.0748401460    -1.3449797374
    4      C       1.6578971494    -0.1772478543    -0.6607338904
    5      C       1.4222943120    -1.5018249136     0.1546357850
    6      O       1.3004503710    -1.1816732746     1.5544658761
    7      C       0.8432126680    -2.3626414068     2.3162527277
    8      C      -0.7221792566    -2.5131982034     2.1946412320
    9      O      -1.3664661153    -1.1850250872     2.3730665575
   10      C      -1.5106852078    -0.5362530982     1.1115982740
   11      C      -2.0350051865     0.9194714555     1.3270238692
   12      C      -2.3044459919     1.6721308981    -0.0416507538
   13      C      -1.9795665793     0.8236147634    -1.3294195638
   14      O      -0.9558482013     0.9269233892    -2.0512047030
   15      O       5.2146970883    -1.2179530513    -1.6501419725
   16      O      -3.1121489979     0.0254493663    -1.6738041107
   17      O      -1.2688020560    -1.0727298775     0.0039562944
   18      C      -2.7892090718    -0.8219652856    -2.8437819756
   19      C      -3.4815338137     0.9504506543     1.9864634929
   20      C      -3.7559946242     2.4173716705     2.5015570174
   21      C      -4.0227469640     3.1690101626     1.1446535430
   22      C      -3.8538945938     1.9920081101     0.1035154648
   23      O      -4.3861471295     0.8120132443     0.8237945992
   24      H      -1.3024472630     1.4617007442     1.9521106943
   25      H      -1.6999027138     2.5936615891    -0.1001681508
   26      H      -3.6596300618     0.1437945403     2.7238240502
   27      H      -4.6429271967     2.4354493188     3.1545097696
   28      H      -2.8988519126     2.8303206757     3.0569032437
   29      H      -5.0457193306     3.5756653184     1.1028233781
   30      H      -3.3088376307     3.9881721046     0.9635025242
   31      H      -4.3853939667     2.1292711707    -0.8575406200
   32      O       1.2390745348    -2.6464677941    -0.3123339794
   33      C       6.1746247243    -2.2210640942    -1.1329451782
   34      C       3.5371180690     1.3674520177    -0.8515441652
   35      C       2.6467258500     2.4556643030    -1.5753232379
   36      C       1.2983262262     2.3367233204    -0.7750021259
   37      C       1.6436380276     1.1542813796     0.2075032301
   38      O       3.0673067392     1.3853604359     0.5505938970
   39      H       3.0313720575    -0.1401791145    -2.4464110790
   40      H       0.8556342311    -0.1311615266    -1.4234520950
   41      H       5.7116500519    -3.2260936559    -1.0579438657
   42      H       4.6302744790     1.5381177656    -0.9029526532
   43      H       3.0998876439     3.4544060055    -1.4706526692
   44      H       2.5248452802     2.2355372039    -2.6482212761
   45      H       1.0818532631     3.2585774778    -0.2123359579
   46      H       0.4301246938     2.0617797642    -1.4079249363
   47      H       1.0315325273     1.0928504249     1.1259733626
   48      H       6.5622147352    -1.9367126765    -0.1331912418
   49      H       7.0079620660    -2.2487563004    -1.8588695802
   50      H      -3.7140017605    -1.3792447647    -3.0806974080
   51      H      -1.9743063779    -1.5349874454    -2.6025796668
   52      H      -2.4833145630    -0.2129046050    -3.7188050891
   53      H      -0.9828876559    -2.9249999581     1.1972691621
   54      H      -1.1138769558    -3.1696284389     2.9971956579
   55      H       1.1308819054    -2.1734113303     3.3694402722
   56      H       1.3287586835    -3.2930815351     1.9507924870
 ----------------------------------------------------------------

    9   -1510.2991964775      8.05E-09 Convergence criterion met
 Total energy in the final basis set = -1510.29919648
 Final energy is   -1510.29919647749
 **  OPTIMIZATION CONVERGED  **

                    Orbital Energies (a.u.)
 --------------------------------------------------------------

 Alpha MOs
 -- Occupied --
-18.945 -18.934 -18.932 -18.918 -18.891 -18.889 -18.874 -18.873
-18.869 -18.855 -10.111 -10.102 -10.095 -10.087 -10.072 -10.067
-10.064 -10.062 -10.062 -10.058 -10.050 -10.044 -10.041 -10.038
-10.029 -10.023 -10.022 -10.018 -10.006  -9.991  -1.025  -1.009
 -1.007  -0.994  -0.973  -0.958  -0.948  -0.934  -0.932  -0.921
 -0.767  -0.750  -0.727  -0.717  -0.708  -0.703  -0.688  -0.659
 -0.657  -0.617  -0.593  -0.574  -0.548  -0.540  -0.534  -0.524
 -0.517  -0.501  -0.489  -0.471  -0.468  -0.452  -0.449  -0.437
 -0.436  -0.426  -0.419  -0.414  -0.411  -0.408  -0.407  -0.401
 -0.394  -0.377  -0.372  -0.367  -0.362  -0.350  -0.348  -0.347
 -0.338  -0.337  -0.335  -0.331  -0.327  -0.319  -0.316  -0.311
 -0.307  -0.303  -0.294  -0.293  -0.288  -0.283  -0.281  -0.269
 -0.267  -0.258  -0.251  -0.248  -0.237  -0.237  -0.221  -0.189
 -0.176  -0.172  -0.164  -0.160  -0.150  -0.149  -0.146  -0.138
 -0.130

          Ground-State Mulliken Net Atomic Charges

     Atom                 Charge (a.u.)
  ----------------------------------------
      1 O                    -0.209161
      2 C                     0.213120
      3 C                    -0.078012
      4 C                    -0.085995
      5 C                     0.218151
      6 O                    -0.175962
      7 C                    -0.049692
      8 C                    -0.055332
      9 O                    -0.168350
     10 C                     0.218482
     11 C                    -0.078228
     12 C                    -0.081819
     13 C                     0.222791
     14 O                    -0.226747
     15 O                    -0.169332
     16 O                    -0.164875
     17 O                    -0.210343
     18 C                    -0.127295
     19 C                     0.025387
     20 C                    -0.143612
     21 C                    -0.144322
     22 C                     0.026734
     23 O                    -0.186611
     24 H                     0.089034
     25 H                     0.085269
     26 H                     0.087874
     27 H                     0.078900
     28 H                     0.074744
     29 H                     0.078457
     30 H                     0.074033
     31 H                     0.087147
     32 O                    -0.222914
     33 C                    -0.128265
     34 C                     0.024792
     35 C                    -0.144599
     36 C                    -0.160193
     37 C                     0.022117
     38 O                    -0.194408
     39 H                     0.087184
     40 H                     0.100156
     41 H                     0.091019
     42 H                     0.080073
     43 H                     0.072869
     44 H                     0.072600
     45 H                     0.063379
     46 H                     0.097351
     47 H                     0.081077
     48 H                     0.089092
     49 H                     0.090368
     50 H                     0.090131
     51 H                     0.095806
     52 H                     0.087742
     53 H                     0.103188
     54 H                     0.089970
     55 H                     0.088601
     56 H                     0.098429
  ----------------------------------------
  Sum of atomic charges =     0.000000

                    Cartesian Multipole Moments
 -----------------------------------------------------------------
    Charge (ESU x 10^10)
                 0.0000
    Dipole Moment (Debye)
         X      -0.7443      Y       0.8812      Z       0.3913
       Tot       1.2180
    Quadrupole Moments (Debye-Ang)
        XX    -155.0033     XY      -6.5999     YY    -153.1208
        XZ      -4.8172     YZ      -1.9581     ZZ    -153.8075

 Total job time:  114.10s(wall), 5443.35s(cpu)
        *  Thank you very much for using Q-Chem.  Have a nice day.  *
