 Q-Chem 5.0, Q-Chem, Inc., Pleasanton, CA (2017)
 Q-Chem 5.0.1 for Intel X86 EM64T Linux

User input:
--------------------------------------------------------------
$molecule
0  1
O -3.94934 -3.66094 2.70899
C -3.26408 -4.56952 2.26188
C -3.36658 -6.02376 2.66595
C -4.66266 -6.76517 2.29943
C -5.63801 -6.02118 1.41441
O -5.30015 -6.19539 0.10256
C -6.18073 -5.51832 -0.80043
C -7.63286 -5.79466 -0.42481
O -7.82154 -7.20088 -0.20159
C -8.31226 -7.53715 1.01712
C -7.41972 -8.49789 1.76614
C -7.32693 -8.24989 3.27881
C -8.38551 -7.33747 3.86498
O -8.16802 -6.31268 4.49512
O -2.32159 -4.25182 1.33295
O -9.68626 -7.74175 3.78426
O -9.47521 -7.29571 1.29925
C -10.75857 -7.05353 4.31364
C -7.97251 -9.93485 1.70737
C -6.84972 -10.93515 1.99292
C -6.68552 -10.74056 3.48288
C -7.75937 -9.67899 3.74241
O -8.77943 -10.03746 2.84402
H -6.49387 -8.51477 1.23071
H -6.39316 -8.20445 3.83321
H -8.46146 -10.16913 0.73603
H -7.23557 -11.96312 1.80886
H -5.93207 -10.77153 1.38813
H -6.98852 -11.68391 3.99062
H -5.67375 -10.45277 3.82719
H -8.04877 -9.70518 4.81844
O -6.24403 -5.04886 1.84835
C -2.0999 -2.98028 0.8467
C -2.27247 -6.91149 2.0458
C -2.02821 -8.13767 2.91632
C -3.30652 -8.89857 2.67991
C -3.96758 -8.00784 1.61961
O -2.88692 -7.44996 0.91681
H -3.18819 -6.01035 3.76686
H -5.13913 -6.8848 3.25625
H -1.80788 -2.29917 1.67439
H -1.30388 -6.39308 1.87629
H -1.18629 -8.70169 2.45361
H -1.78872 -7.93045 3.98153
H -3.04651 -9.89846 2.26563
H -3.949 -9.00585 3.57694
H -4.56212 -8.65668 0.96841
H -3.01602 -2.5966 0.3487
H -1.27673 -3.01352 0.10392
H -11.69176 -7.61223 4.09609
H -10.82974 -6.04473 3.85375
H -10.64661 -6.95865 5.41481
H -7.99446 -5.18233 0.42809
H -8.27244 -5.47048 -1.27288
H -5.97659 -5.91873 -1.81595
H -5.99108 -4.42263 -0.81231
$end

$opt
CONSTRAINT
tors           1           2           3           4     +66.316
tors           3           4           5           6     +85.263
tors           4           5           6           7    -180.000
tors           5           6           7           8     -47.368
tors           6           7           8           9     -47.368
tors           7           8           9          10    +123.158
tors           8           9          10          11    -123.158
tors           9          10          11          12    +142.105
tors          11          12          13          14    -123.158
ENDCONSTRAINT
$end

$rem
JOBTYPE                   OPT
METHOD                    B3LYP
DFT_D                     d3_op
BASIS                     STO-3G
GEOM_OPT_MAX_CYCLES       100
GEOM_OPT_TOL_GRADIENT     300
GEOM_OPT_TOL_DISPLACEMENT 1200
GEOM_OPT_TOL_ENERGY       100
SYMMETRY                  False
THRESH                    12
SCF_CONVERGENCE           8
MAX_SUB_FILE_NUM          128
MEM_STATIC                400
MEM_TOTAL                 4000
$end
--------------------------------------------------------------

   16   -1510.0901279623      2.35E-09 Convergence criterion met
 Total energy in the final basis set = -1510.09012796
   14   -1510.1629678534      9.70E-09 Convergence criterion met
 Total energy in the final basis set = -1510.16296785
   15   -1510.2086446669      2.12E-09 Convergence criterion met
 Total energy in the final basis set = -1510.20864467
   14   -1510.2331948167      5.77E-09 Convergence criterion met
 Total energy in the final basis set = -1510.23319482
   14   -1510.2463698444      3.27E-09 Convergence criterion met
 Total energy in the final basis set = -1510.24636984
   13   -1510.2538830196      9.38E-09 Convergence criterion met
 Total energy in the final basis set = -1510.25388302
   13   -1510.2581479151      5.23E-09 Convergence criterion met
 Total energy in the final basis set = -1510.25814792
   13   -1510.2602504203      4.00E-09 Convergence criterion met
   12   -1510.2629494322      3.96E-09 Convergence criterion met
 Total energy in the final basis set = -1510.26294943
   11   -1510.2629771850      4.34E-09 Convergence criterion met
 Total energy in the final basis set = -1510.26297718
   11   -1510.2629946003      4.37E-09 Convergence criterion met
 Total energy in the final basis set = -1510.26299460
   11   -1510.2629982755      1.63E-09 Convergence criterion met
 Total energy in the final basis set = -1510.26299828
    9   -1510.2630002501      6.48E-09 Convergence criterion met
 Total energy in the final basis set = -1510.26300025
    9   -1510.2630017823      6.44E-09 Convergence criterion met
 Total energy in the final basis set = -1510.26300178

             Standard Nuclear Orientation (Angstroms)
    I     Atom           X                Y                Z
 ----------------------------------------------------------------
    1      O       3.4341945693    -1.6423943490    -1.4525409119
    2      C       3.7274606865    -0.5333331171    -0.9533601955
    3      C       2.9399627332     0.8142224227    -1.1572890992
    4      C       1.4896193707     0.7492868882    -0.5007882082
    5      C       1.0921294910    -0.6937834960    -0.0288685683
    6      O       1.6210198189    -0.8837801716     1.2842540999
    7      C       1.3238097599    -2.2126373943     1.8669485210
    8      C      -0.1592235359    -2.7459904990     1.7763926361
    9      O      -1.1079534251    -1.6918200362     2.1958122160
   10      C      -2.0787229171    -1.4102071500     1.1534914832
   11      C      -2.0324777940     0.1141319875     0.7713527299
   12      C      -2.2218802918     0.4296145866    -0.7709688671
   13      C      -2.8215916242    -0.7323781275    -1.6427347350
   14      O      -2.2922309497    -1.2424275481    -2.6548224680
   15      O       4.8437176375    -0.3271020792    -0.0846494777
   16      O      -4.1603623197    -1.0016924405    -1.2165580032
   17      O      -2.7295184787    -2.3166072118     0.5922308686
   18      C      -4.7305078715    -2.1047190833    -2.0213589683
   19      C      -3.1465868844     1.0513103879     1.4237919491
   20      C      -2.5413624177     2.5099572173     1.4759665778
   21      C      -2.5687674984     2.8924476506    -0.0505903287
   22      C      -3.2723836849     1.6223084917    -0.6779632099
   23      O      -4.1928455602     1.1643997627     0.3869628713
   24      H      -1.0397055921     0.4629493041     1.1043612444
   25      H      -1.2714968991     0.7346007961    -1.2382805375
   26      H      -3.5755270292     0.6781989633     2.3739125090
   27      H      -3.1906440015     3.1735225598     2.0693573870
   28      H      -1.5264619908     2.5296487741     1.9041858869
   29      H      -3.1697324122     3.7974559887    -0.2325234630
   30      H      -1.5606974842     3.0510962550    -0.4655707674
   31      H      -3.8306012537     1.8115487598    -1.6152782782
   32      O       0.4159313229    -1.5242420896    -0.6732509130
   33      C       5.5476249930    -1.6102242021     0.1427206086
   34      C       3.5676784271     2.0169665536    -0.3404345759
   35      C       2.8621487910     3.3627750622    -0.7765250634
   36      C       1.4880953627     3.2537690862    -0.0169250256
   37      C       1.6296597354     1.8307366265     0.6521738085
   38      O       3.0591927469     1.7771905646     1.0319606228
   39      H       2.8734237629     1.0185755515    -2.2413430147
   40      H       0.7358575919     1.0584668417    -1.2461997398
   41      H       5.9402590583    -2.0357460639    -0.8034800782
   42      H       4.6736684558     2.0397419024    -0.3436992421
   43      H       3.4458970782     4.2320225699    -0.4352188970
   44      H       2.7379836607     3.4285405689    -1.8694584647
   45      H       1.3905193466     4.0328585120     0.7559405861
   46      H       0.6206859134     3.3171769841    -0.6931021085
   47      H       0.9871512719     1.6514414267     1.5359552381
   48      H       4.8812208805    -2.3601152403     0.6155287938
   49      H       6.3875292819    -1.3794776765     0.8233029159
   50      H      -5.7845951109    -2.2002983126    -1.7025245701
   51      H      -4.1973902616    -3.0578598217    -1.8274823120
   52      H      -4.6855828972    -1.8869822718    -3.1081622535
   53      H      -0.3741686915    -3.0958600887     0.7466348271
   54      H      -0.2341962410    -3.6129911017     2.4713908238
   55      H       1.6149092054    -2.1073715142     2.9316579024
   56      H       1.9797082184    -2.9819251046     1.3987260713
 ----------------------------------------------------------------

    9   -1510.2630025381      4.33E-09 Convergence criterion met
 Total energy in the final basis set = -1510.26300254
 Final energy is   -1510.26300253812
 **  OPTIMIZATION CONVERGED  **

                    Orbital Energies (a.u.)
 --------------------------------------------------------------

 Alpha MOs
 -- Occupied --
-18.940 -18.940 -18.921 -18.907 -18.893 -18.890 -18.890 -18.880
-18.875 -18.861 -10.105 -10.103 -10.101 -10.087 -10.077 -10.071
-10.067 -10.065 -10.062 -10.061 -10.060 -10.050 -10.042 -10.040
-10.037 -10.035 -10.025 -10.023 -10.022 -10.021  -1.019  -1.013
 -1.005  -0.996  -0.972  -0.971  -0.944  -0.938  -0.933  -0.921
 -0.768  -0.762  -0.730  -0.723  -0.717  -0.707  -0.699  -0.664
 -0.649  -0.618  -0.599  -0.585  -0.551  -0.547  -0.542  -0.538
 -0.516  -0.512  -0.480  -0.480  -0.473  -0.460  -0.442  -0.439
 -0.435  -0.433  -0.426  -0.417  -0.411  -0.411  -0.407  -0.399
 -0.395  -0.384  -0.378  -0.371  -0.363  -0.355  -0.351  -0.349
 -0.343  -0.337  -0.335  -0.334  -0.330  -0.329  -0.325  -0.315
 -0.312  -0.308  -0.307  -0.298  -0.295  -0.292  -0.281  -0.280
 -0.272  -0.261  -0.252  -0.243  -0.238  -0.236  -0.234  -0.185
 -0.180  -0.167  -0.160  -0.160  -0.151  -0.148  -0.146  -0.143
 -0.138

          Ground-State Mulliken Net Atomic Charges

     Atom                 Charge (a.u.)
  ----------------------------------------
      1 O                    -0.213904
      2 C                     0.207060
      3 C                    -0.076796
      4 C                    -0.079984
      5 C                     0.207426
      6 O                    -0.168610
      7 C                    -0.048444
      8 C                    -0.050984
      9 O                    -0.196417
     10 C                     0.217844
     11 C                    -0.080441
     12 C                    -0.078698
     13 C                     0.210861
     14 O                    -0.213027
     15 O                    -0.164459
     16 O                    -0.161080
     17 O                    -0.187305
     18 C                    -0.126267
     19 C                     0.026907
     20 C                    -0.142415
     21 C                    -0.145253
     22 C                     0.026852
     23 O                    -0.181958
     24 H                     0.081633
     25 H                     0.082537
     26 H                     0.085320
     27 H                     0.078420
     28 H                     0.072450
     29 H                     0.078151
     30 H                     0.069839
     31 H                     0.083852
     32 O                    -0.208229
     33 C                    -0.126806
     34 C                     0.024658
     35 C                    -0.145004
     36 C                    -0.143383
     37 C                     0.024774
     38 O                    -0.185024
     39 H                     0.087101
     40 H                     0.081021
     41 H                     0.089607
     42 H                     0.091105
     43 H                     0.078695
     44 H                     0.073756
     45 H                     0.078296
     46 H                     0.070101
     47 H                     0.083604
     48 H                     0.088657
     49 H                     0.092140
     50 H                     0.088889
     51 H                     0.091303
     52 H                     0.086078
     53 H                     0.105041
     54 H                     0.083096
     55 H                     0.091712
     56 H                     0.085700
  ----------------------------------------
  Sum of atomic charges =    -0.000000

                    Cartesian Multipole Moments
 -----------------------------------------------------------------
    Charge (ESU x 10^10)
                 0.0000
    Dipole Moment (Debye)
         X       2.1788      Y       1.9942      Z       0.7090
       Tot       3.0376
    Quadrupole Moments (Debye-Ang)
        XX    -157.5535     XY      -4.9091     YY    -152.3096
        XZ       0.4709     YZ      -9.3036     ZZ    -162.4741

 Total job time:  66.37s(wall), 3164.23s(cpu)
        *  Thank you very much for using Q-Chem.  Have a nice day.  *
