 Q-Chem 5.0, Q-Chem, Inc., Pleasanton, CA (2017)
 Q-Chem 5.0.1 for Intel X86 EM64T Linux

User input:
--------------------------------------------------------------
$molecule
0  1
O 0.9258325719 -1.3162360946 1.3763076058
C 2.0487863283 -0.8408682899 1.0849188117
C 2.8748311943 -1.2069566625 -0.1867382259
C 2.4584580874 -0.3398701231 -1.4520003776
C 1.6782119107 0.9969644894 -1.149359198
O 0.2634046913 0.7393794439 -1.0143031417
C -0.5074756322 1.8491391714 -1.6205490553
C -1.5524314708 2.6237278717 -0.7257561401
O -2.7693262721 1.9118319329 -0.2282333896
C -3.0957275201 0.8613617626 -1.1915260456
C -2.688952508 -0.5659889816 -0.6731239117
C -1.8119645062 -0.6435229671 0.6416665732
C -2.0144436481 0.5764270092 1.6251255472
O -2.9080484312 0.6728387527 2.4931880047
O 2.693912389 0.189026024 1.8202588684
O -0.8265901811 1.4200462032 1.6896476448
O -3.657364674 1.0951005853 -2.2805852088
C -1.0694094402 2.4885528014 2.6926635934
C -3.8696197459 -1.5879121648 -0.3364745977
C -3.3174860984 -3.030781725 -0.6621336638
C -2.246778665 -3.1933683531 0.4809544081
C -2.5034432757 -1.8907808964 1.3402001376
O -3.9452361019 -1.5979305731 1.138417242
H -2.1034920532 -0.9947432246 -1.5091721281
H -0.7320666805 -0.7859890784 0.4468503674
H -4.8506912418 -1.3358609477 -0.7840784896
H -4.1240902119 -3.7755382536 -0.5658646959
H -2.8861152707 -3.1035236824 -1.6732030845
H -2.4256133804 -4.0992909462 1.0812518869
H -1.214651551 -3.2217452007 0.0959212044
H -2.2785620827 -1.9878771792 2.41929494
O 2.1618832952 2.1490126745 -1.1646837966
C 1.7803086571 0.6570763537 2.8940436851
C 4.4403945599 -0.943392308 -0.1291576331
C 5.1104690085 -1.904224093 -1.1866197695
C 4.635977685 -1.2347077187 -2.5299326041
C 3.8968250291 0.0555574932 -1.993696422
O 4.6136394661 0.3933209671 -0.7412049628
H 2.6702871255 -2.2719278596 -0.3993051421
H 1.8613361972 -0.9354453647 -2.1658375708
H 1.7068800344 -0.0917096021 3.708589371
H 4.8756096587 -0.9660428788 0.8882037973
H 6.2075104187 -1.8746376204 -1.0890542142
H 4.772198996 -2.9476366066 -1.0841323325
H 5.4883144128 -0.9531496374 -3.1680012622
H 3.9611046633 -1.8834267374 -3.1115256597
H 3.8963128265 0.9235729664 -2.6806289159
H 0.7651610079 0.8517700593 2.4699750108
H 2.2290827749 1.5862634732 3.2887560376
H -0.1835870624 3.1488242886 2.6580877971
H -1.1796057788 2.0710462757 3.7138869333
H -1.9807950007 3.0721920147 2.4550200236
H -1.0414533586 3.0046320217 0.1776979579
H -1.8766794398 3.490627454 -1.3472085326
H -1.0295636343 1.4310616799 -2.5092245332
H 0.2095670183 2.6264239712 -1.9650134162
$end

$rem
JOBTYPE                   OPT
METHOD                    B3LYP
DFT_D                     d3_op
BASIS                     STO-3G
GEOM_OPT_MAX_CYCLES       100
GEOM_OPT_TOL_GRADIENT     300
GEOM_OPT_TOL_DISPLACEMENT 1200
GEOM_OPT_TOL_ENERGY       100
SYMMETRY                  False
THRESH                    12
SCF_CONVERGENCE           8
MAX_SUB_FILE_NUM          128
MEM_STATIC                400
MEM_TOTAL                 4000
$end
--------------------------------------------------------------

   16   -1510.2526401458      4.44E-09 Convergence criterion met
 Total energy in the final basis set = -1510.25264015
   14   -1510.2552075196      9.49E-09 Convergence criterion met
 Total energy in the final basis set = -1510.25520752
   14   -1510.2597663611      3.29E-09 Convergence criterion met
 Total energy in the final basis set = -1510.25976636
   14   -1510.2644095826      5.98E-09 Convergence criterion met
 Total energy in the final basis set = -1510.26440958
   14   -1510.2696105281      3.96E-09 Convergence criterion met
 Total energy in the final basis set = -1510.26961053
   14   -1510.2702741767      7.42E-09 Convergence criterion met
 Total energy in the final basis set = -1510.27027418
   14   -1510.2733135519      8.14E-09 Convergence criterion met
 Total energy in the final basis set = -1510.27331355
   14   -1510.2758017351      6.64E-09 Convergence criterion met
   12   -1510.2997876345      6.27E-09 Convergence criterion met
 Total energy in the final basis set = -1510.29978763
   11   -1510.2998473253      8.06E-09 Convergence criterion met
 Total energy in the final basis set = -1510.29984733
   11   -1510.2998763103      7.70E-09 Convergence criterion met
 Total energy in the final basis set = -1510.29987631
   11   -1510.2998849683      7.69E-09 Convergence criterion met
 Total energy in the final basis set = -1510.29988497
   11   -1510.2998828800      2.89E-09 Convergence criterion met
 Total energy in the final basis set = -1510.29988288
    9   -1510.2998887201      5.96E-09 Convergence criterion met
 Total energy in the final basis set = -1510.29988872

             Standard Nuclear Orientation (Angstroms)
    I     Atom           X                Y                Z
 ----------------------------------------------------------------
    1      O       0.7449915343    -1.6357212126     0.5338576693
    2      C       1.7196525846    -0.8890391775     0.2729333619
    3      C       2.9350335582    -1.2392293711    -0.6464377152
    4      C       3.3108141896    -0.0963043195    -1.6794096493
    5      C       2.3129408033     1.1158391349    -1.7474791648
    6      O       1.0228391561     0.6011432431    -2.1164572073
    7      C       0.1043645331     1.6922458594    -2.5187698127
    8      C      -0.7536692601     2.2490992943    -1.3180697393
    9      O      -1.1490103835     1.2026199284    -0.3529197098
   10      C      -1.9356425762     0.1526567384    -0.9493942267
   11      C      -2.0715402893    -0.9797022200     0.1197867771
   12      C      -2.7302458644    -0.5016484930     1.4838555815
   13      C      -3.0714066665     1.0263391169     1.4910306917
   14      O      -3.9436213568     1.6248784336     0.8258630695
   15      O       1.9397305648     0.3989065218     0.8269564783
   16      O      -2.1814693074     1.6752700095     2.4123930114
   17      O      -2.3610495020     0.1821910146    -2.1210671119
   18      C      -2.3956445634     3.1391076008     2.3717804813
   19      C      -3.0963889159    -2.0872225310    -0.3458210577
   20      C      -2.8996530990    -3.3615151831     0.5645748342
   21      C      -3.5760232475    -2.8845832329     1.9039516156
   22      C      -4.0261891355    -1.4209876964     1.5152626726
   23      O      -4.4056830712    -1.5423825212     0.0901289222
   24      H      -1.0416956893    -1.3703923897     0.3042197986
   25      H      -2.0596095778    -0.7056421234     2.3366173326
   26      H      -3.0988937991    -2.2687465485    -1.4380800222
   27      H      -3.4223787911    -4.2305463770     0.1343318898
   28      H      -1.8349098662    -3.6141348754     0.6925410359
   29      H      -4.4537312725    -3.5015117710     2.1550593849
   30      H      -2.8815346092    -2.8940713471     2.7590853787
   31      H      -4.8682783665    -1.0116908865     2.1063046787
   32      O       2.5750935411     2.3305527946    -1.6260945971
   33      C       0.8195942727     0.7933036490     1.7196999774
   34      C       4.2798290099    -1.3047951245     0.2031277655
   35      C       5.4122582521    -1.9540842394    -0.6889757282
   36      C       5.7810507083    -0.7543434371    -1.6393591858
   37      C       4.7454536211     0.3353303991    -1.1596606104
   38      O       4.6766718141     0.1160681987     0.3038106287
   39      H       2.7154055798    -2.1947468590    -1.1537687789
   40      H       3.3719254856    -0.5198233512    -2.6991624749
   41      H       0.5978077261    -0.0009461036     2.4589256706
   42      H       4.1623454638    -1.7488024366     1.2107576630
   43      H       6.2683781663    -2.2557454700    -0.0649831972
   44      H       5.0483864626    -2.8367486926    -1.2389466056
   45      H       6.8123392966    -0.4072751530    -1.4673674695
   46      H       5.6636960453    -1.0020934821    -2.7064228926
   47      H       5.0056534209     1.3885597635    -1.3818288244
   48      H      -0.0868477213     1.0054665799     1.1055425459
   49      H       1.1582766820     1.7058694593     2.2414804856
   50      H      -1.7063899314     3.5716474777     3.1200608170
   51      H      -3.4404606874     3.4099770451     2.6268343032
   52      H      -2.1606014682     3.5522979275     1.3694296178
   53      H      -0.1549990691     2.9674951528    -0.7231888422
   54      H      -1.6472885874     2.7679591185    -1.7299855185
   55      H      -0.5749904596     1.2421483904    -3.2694473182
   56      H       0.6694892728     2.5369828280    -2.9669824175
 ----------------------------------------------------------------

    9   -1510.2998894960      3.27E-09 Convergence criterion met
 Total energy in the final basis set = -1510.29988950
 Final energy is   -1510.29988949600
 **  OPTIMIZATION CONVERGED  **

                    Orbital Energies (a.u.)
 --------------------------------------------------------------

 Alpha MOs
 -- Occupied --
-18.942 -18.939 -18.935 -18.929 -18.890 -18.884 -18.882 -18.879
-18.878 -18.868 -10.106 -10.105 -10.104 -10.093 -10.080 -10.075
-10.064 -10.062 -10.060 -10.053 -10.049 -10.043 -10.042 -10.040
-10.030 -10.023 -10.022 -10.020 -10.013 -10.011  -1.022  -1.015
 -1.010  -1.004  -0.972  -0.962  -0.946  -0.940  -0.938  -0.931
 -0.767  -0.757  -0.729  -0.721  -0.711  -0.704  -0.695  -0.660
 -0.654  -0.622  -0.599  -0.583  -0.550  -0.542  -0.538  -0.530
 -0.514  -0.504  -0.484  -0.471  -0.469  -0.459  -0.452  -0.442
 -0.436  -0.432  -0.425  -0.418  -0.413  -0.409  -0.406  -0.405
 -0.395  -0.378  -0.375  -0.365  -0.362  -0.361  -0.355  -0.351
 -0.344  -0.342  -0.335  -0.334  -0.327  -0.325  -0.323  -0.313
 -0.308  -0.306  -0.301  -0.295  -0.294  -0.291  -0.280  -0.274
 -0.270  -0.262  -0.253  -0.248  -0.243  -0.236  -0.226  -0.193
 -0.179  -0.174  -0.172  -0.163  -0.157  -0.155  -0.146  -0.145
 -0.136

          Ground-State Mulliken Net Atomic Charges

     Atom                 Charge (a.u.)
  ----------------------------------------
      1 O                    -0.223832
      2 C                     0.217378
      3 C                    -0.078200
      4 C                    -0.077478
      5 C                     0.215418
      6 O                    -0.177356
      7 C                    -0.055757
      8 C                    -0.049201
      9 O                    -0.177675
     10 C                     0.219124
     11 C                    -0.094672
     12 C                    -0.080656
     13 C                     0.207426
     14 O                    -0.215728
     15 O                    -0.164237
     16 O                    -0.171528
     17 O                    -0.205840
     18 C                    -0.128773
     19 C                     0.023453
     20 C                    -0.144179
     21 C                    -0.143370
     22 C                     0.025371
     23 O                    -0.188651
     24 H                     0.115027
     25 H                     0.084884
     26 H                     0.087274
     27 H                     0.075756
     28 H                     0.077881
     29 H                     0.076149
     30 H                     0.072998
     31 H                     0.081904
     32 O                    -0.211492
     33 C                    -0.146793
     34 C                     0.026326
     35 C                    -0.144278
     36 C                    -0.143510
     37 C                     0.024723
     38 O                    -0.184863
     39 H                     0.085807
     40 H                     0.084840
     41 H                     0.081965
     42 H                     0.082658
     43 H                     0.078556
     44 H                     0.073994
     45 H                     0.078639
     46 H                     0.073265
     47 H                     0.090599
     48 H                     0.115375
     49 H                     0.085576
     50 H                     0.088514
     51 H                     0.089328
     52 H                     0.085463
     53 H                     0.094267
     54 H                     0.092980
     55 H                     0.101197
     56 H                     0.093953
  ----------------------------------------
  Sum of atomic charges =     0.000000

                    Cartesian Multipole Moments
 -----------------------------------------------------------------
    Charge (ESU x 10^10)
                 0.0000
    Dipole Moment (Debye)
         X       2.5894      Y      -0.6146      Z       0.2720
       Tot       2.6752
    Quadrupole Moments (Debye-Ang)
        XX    -170.5956     XY      -7.8346     YY    -152.6560
        XZ     -12.6493     YZ      -0.1171     ZZ    -153.1412

 Total job time:  117.81s(wall), 5609.41s(cpu)
        *  Thank you very much for using Q-Chem.  Have a nice day.  *
