 Q-Chem 5.0, Q-Chem, Inc., Pleasanton, CA (2017)
 Q-Chem 5.0.1 for Intel X86 EM64T Linux

User input:
--------------------------------------------------------------
$molecule
0  1
O -3.94934 -3.66094 2.70899
C -3.26408 -4.56952 2.26188
C -3.36658 -6.02376 2.66595
C -4.41631 -6.88207 1.94122
C -5.12384 -6.23632 0.77054
O -6.1904 -5.50913 1.21671
C -7.32773 -5.58841 0.35101
C -7.74808 -4.19144 -0.09386
O -8.22972 -3.44305 1.03344
C -8.78028 -4.17967 2.03015
C -7.87138 -4.32166 3.22781
C -6.4366 -3.81729 3.015
C -6.21837 -2.93915 1.79928
O -6.39801 -1.73066 1.75638
O -2.15067 -4.23913 1.54996
O -5.34925 -3.33308 0.81346
O -9.946 -4.54476 2.01094
C -4.80784 -2.50789 -0.16664
C -8.33014 -3.49337 4.43645
C -7.74787 -4.09107 5.71602
C -6.29247 -3.70183 5.56872
C -6.35098 -2.8956 4.26447
O -7.62061 -2.28914 4.30828
H -7.88489 -5.40762 3.47804
H -5.77285 -4.67628 3.20244
H -9.43601 -3.40793 4.51457
H -8.18023 -3.53254 6.57686
H -7.93726 -5.17812 5.8486
H -6.02421 -3.03021 6.41463
H -5.57268 -4.54717 5.51734
H -5.48611 -2.19705 4.22064
O -4.9097 -6.51514 -0.40471
C -1.59596 -2.97954 1.46544
C -2.08772 -6.83811 2.34724
C -2.01932 -8.08713 3.22686
C -3.08658 -8.94004 2.58341
C -3.51122 -8.02631 1.43132
O -2.32565 -7.36607 1.0688
H -3.49483 -6.02395 3.77151
H -5.19625 -7.30328 2.6153
H -1.2974 -2.63003 2.47655
H -1.14675 -6.25957 2.47371
H -1.03101 -8.57111 3.05569
H -2.15235 -7.89558 4.31339
H -2.60524 -9.85707 2.17553
H -3.93531 -9.22142 3.24352
H -3.99495 -8.63488 0.63548
H -2.30082 -2.25878 1.02373
H -0.69235 -3.02493 0.82388
H -4.12032 -3.09951 -0.80508
H -4.25576 -1.66867 0.29922
H -5.59648 -2.05608 -0.80202
H -7.04246 -3.65196 -0.7336
H -8.62008 -4.34092 -0.76733
H -8.13376 -6.16621 0.85045
H -7.15909 -6.17364 -0.58077
$end

$opt
CONSTRAINT
tors           1           2           3           4     +85.263
tors           3           4           5           6     -85.263
tors           4           5           6           7    -142.105
tors           5           6           7           8    -123.158
tors           6           7           8           9     -66.316
tors           7           8           9          10     -28.421
tors           8           9          10          11    +104.211
tors           9          10          11          12      -9.474
tors          11          12          13          14     +85.263
ENDCONSTRAINT
$end

$rem
JOBTYPE                   OPT
METHOD                    B3LYP
DFT_D                     d3_op
BASIS                     STO-3G
GEOM_OPT_MAX_CYCLES       100
GEOM_OPT_TOL_GRADIENT     300
GEOM_OPT_TOL_DISPLACEMENT 1200
GEOM_OPT_TOL_ENERGY       100
SYMMETRY                  False
THRESH                    12
SCF_CONVERGENCE           8
MAX_SUB_FILE_NUM          128
MEM_STATIC                400
MEM_TOTAL                 4000
$end
--------------------------------------------------------------

   15   -1510.0725919855      7.35E-09 Convergence criterion met
 Total energy in the final basis set = -1510.07259199
   14   -1510.1516472963      7.53E-09 Convergence criterion met
 Total energy in the final basis set = -1510.15164730
   14   -1510.1971730412      7.44E-09 Convergence criterion met
 Total energy in the final basis set = -1510.19717304
   15   -1510.2223713213      2.76E-09 Convergence criterion met
 Total energy in the final basis set = -1510.22237132
   14   -1510.2373124318      5.06E-09 Convergence criterion met
 Total energy in the final basis set = -1510.23731243
   14   -1510.2441584545      3.16E-09 Convergence criterion met
 Total energy in the final basis set = -1510.24415845
   14   -1510.2481931195      3.46E-09 Convergence criterion met
 Total energy in the final basis set = -1510.24819312
   14   -1510.2499551700      2.67E-09 Convergence criterion met
   11   -1510.2527828055      8.24E-09 Convergence criterion met
 Total energy in the final basis set = -1510.25278281
   11   -1510.2528027745      2.42E-09 Convergence criterion met
 Total energy in the final basis set = -1510.25280277
   11   -1510.2528109820      2.79E-09 Convergence criterion met
 Total energy in the final basis set = -1510.25281098
    9   -1510.2528139994      9.23E-09 Convergence criterion met
 Total energy in the final basis set = -1510.25281400
    9   -1510.2528151655      9.51E-09 Convergence criterion met
 Total energy in the final basis set = -1510.25281517
    9   -1510.2528159436      3.19E-09 Convergence criterion met
 Total energy in the final basis set = -1510.25281594

             Standard Nuclear Orientation (Angstroms)
    I     Atom           X                Y                Z
 ----------------------------------------------------------------
    1      O       0.9258325719    -1.3162360946     1.3763076058
    2      C       2.0487863283    -0.8408682899     1.0849188117
    3      C       2.8748311943    -1.2069566625    -0.1867382259
    4      C       2.4584580874    -0.3398701231    -1.4520003776
    5      C       1.6782119107     0.9969644894    -1.1493591980
    6      O       0.2634046913     0.7393794439    -1.0143031417
    7      C      -0.5074756322     1.8491391714    -1.6205490553
    8      C      -1.5524314708     2.6237278717    -0.7257561401
    9      O      -2.7693262721     1.9118319329    -0.2282333896
   10      C      -3.0957275201     0.8613617626    -1.1915260456
   11      C      -2.6889525080    -0.5659889816    -0.6731239117
   12      C      -1.8119645062    -0.6435229671     0.6416665732
   13      C      -2.0144436481     0.5764270092     1.6251255472
   14      O      -2.9080484312     0.6728387527     2.4931880047
   15      O       2.6939123890     0.1890260240     1.8202588684
   16      O      -0.8265901811     1.4200462032     1.6896476448
   17      O      -3.6573646740     1.0951005853    -2.2805852088
   18      C      -1.0694094402     2.4885528014     2.6926635934
   19      C      -3.8696197459    -1.5879121648    -0.3364745977
   20      C      -3.3174860984    -3.0307817250    -0.6621336638
   21      C      -2.2467786650    -3.1933683531     0.4809544081
   22      C      -2.5034432757    -1.8907808964     1.3402001376
   23      O      -3.9452361019    -1.5979305731     1.1384172420
   24      H      -2.1034920532    -0.9947432246    -1.5091721281
   25      H      -0.7320666805    -0.7859890784     0.4468503674
   26      H      -4.8506912418    -1.3358609477    -0.7840784896
   27      H      -4.1240902119    -3.7755382536    -0.5658646959
   28      H      -2.8861152707    -3.1035236824    -1.6732030845
   29      H      -2.4256133804    -4.0992909462     1.0812518869
   30      H      -1.2146515510    -3.2217452007     0.0959212044
   31      H      -2.2785620827    -1.9878771792     2.4192949400
   32      O       2.1618832952     2.1490126745    -1.1646837966
   33      C       1.7803086571     0.6570763537     2.8940436851
   34      C       4.4403945599    -0.9433923080    -0.1291576331
   35      C       5.1104690085    -1.9042240930    -1.1866197695
   36      C       4.6359776850    -1.2347077187    -2.5299326041
   37      C       3.8968250291     0.0555574932    -1.9936964220
   38      O       4.6136394661     0.3933209671    -0.7412049628
   39      H       2.6702871255    -2.2719278596    -0.3993051421
   40      H       1.8613361972    -0.9354453647    -2.1658375708
   41      H       1.7068800344    -0.0917096021     3.7085893710
   42      H       4.8756096587    -0.9660428788     0.8882037973
   43      H       6.2075104187    -1.8746376204    -1.0890542142
   44      H       4.7721989960    -2.9476366066    -1.0841323325
   45      H       5.4883144128    -0.9531496374    -3.1680012622
   46      H       3.9611046633    -1.8834267374    -3.1115256597
   47      H       3.8963128265     0.9235729664    -2.6806289159
   48      H       0.7651610079     0.8517700593     2.4699750108
   49      H       2.2290827749     1.5862634732     3.2887560376
   50      H      -0.1835870624     3.1488242886     2.6580877971
   51      H      -1.1796057788     2.0710462757     3.7138869333
   52      H      -1.9807950007     3.0721920147     2.4550200236
   53      H      -1.0414533586     3.0046320217     0.1776979579
   54      H      -1.8766794398     3.4906274540    -1.3472085326
   55      H      -1.0295636343     1.4310616799    -2.5092245332
   56      H       0.2095670183     2.6264239712    -1.9650134162
 ----------------------------------------------------------------

    9   -1510.2528167830      4.97E-09 Convergence criterion met
 Total energy in the final basis set = -1510.25281678
 Final energy is   -1510.25281678297
 **  OPTIMIZATION CONVERGED  **

                    Orbital Energies (a.u.)
 --------------------------------------------------------------

 Alpha MOs
 -- Occupied --
-18.938 -18.933 -18.924 -18.918 -18.910 -18.894 -18.892 -18.882
-18.873 -18.857 -10.116 -10.110 -10.102 -10.087 -10.078 -10.075
-10.064 -10.064 -10.058 -10.058 -10.050 -10.047 -10.046 -10.043
-10.033 -10.025 -10.024 -10.021 -10.016 -10.013  -1.021  -1.015
 -1.013  -0.998  -0.974  -0.964  -0.948  -0.941  -0.936  -0.921
 -0.769  -0.756  -0.730  -0.719  -0.713  -0.707  -0.697  -0.658
 -0.654  -0.618  -0.599  -0.586  -0.552  -0.543  -0.539  -0.532
 -0.518  -0.504  -0.485  -0.475  -0.467  -0.462  -0.449  -0.447
 -0.437  -0.433  -0.426  -0.420  -0.413  -0.407  -0.401  -0.396
 -0.395  -0.388  -0.375  -0.369  -0.362  -0.359  -0.353  -0.350
 -0.346  -0.341  -0.337  -0.335  -0.328  -0.328  -0.323  -0.317
 -0.312  -0.310  -0.304  -0.301  -0.294  -0.290  -0.283  -0.274
 -0.269  -0.259  -0.250  -0.247  -0.243  -0.237  -0.227  -0.185
 -0.181  -0.169  -0.166  -0.164  -0.161  -0.155  -0.147  -0.142
 -0.132

          Ground-State Mulliken Net Atomic Charges

     Atom                 Charge (a.u.)
  ----------------------------------------
      1 O                    -0.221292
      2 C                     0.208505
      3 C                    -0.080321
      4 C                    -0.076677
      5 C                     0.212463
      6 O                    -0.180651
      7 C                    -0.057907
      8 C                    -0.053431
      9 O                    -0.181101
     10 C                     0.222117
     11 C                    -0.084131
     12 C                    -0.085211
     13 C                     0.214644
     14 O                    -0.215917
     15 O                    -0.165257
     16 O                    -0.178210
     17 O                    -0.182922
     18 C                    -0.132817
     19 C                     0.025697
     20 C                    -0.141721
     21 C                    -0.145390
     22 C                     0.028487
     23 O                    -0.184794
     24 H                     0.083356
     25 H                     0.110469
     26 H                     0.084369
     27 H                     0.077133
     28 H                     0.071306
     29 H                     0.076563
     30 H                     0.076404
     31 H                     0.085950
     32 O                    -0.197912
     33 C                    -0.144781
     34 C                     0.025572
     35 C                    -0.142572
     36 C                    -0.145443
     37 C                     0.025890
     38 O                    -0.183767
     39 H                     0.083316
     40 H                     0.084976
     41 H                     0.079851
     42 H                     0.089068
     43 H                     0.079054
     44 H                     0.073517
     45 H                     0.079310
     46 H                     0.072877
     47 H                     0.087092
     48 H                     0.111591
     49 H                     0.083735
     50 H                     0.085050
     51 H                     0.088507
     52 H                     0.091025
     53 H                     0.101633
     54 H                     0.083429
     55 H                     0.081602
     56 H                     0.097667
  ----------------------------------------
  Sum of atomic charges =     0.000000

                    Cartesian Multipole Moments
 -----------------------------------------------------------------
    Charge (ESU x 10^10)
                 0.0000
    Dipole Moment (Debye)
         X       2.7701      Y      -1.5533      Z      -1.9982
       Tot       3.7522
    Quadrupole Moments (Debye-Ang)
        XX    -177.3582     XY      -6.4488     YY    -153.4973
        XZ       2.7801     YZ       5.1440     ZZ    -155.6489

 Total job time:  123.57s(wall), 5894.92s(cpu)
        *  Thank you very much for using Q-Chem.  Have a nice day.  *
