 Q-Chem 5.0, Q-Chem, Inc., Pleasanton, CA (2017)
 Q-Chem 5.0.1 for Intel X86 EM64T Linux

User input:
--------------------------------------------------------------
$molecule
0  1
O -5.7343724005 -1.3637690966 1.6549966792
C -5.3076661781 -0.5928840857 0.7665907392
C -4.2077570854 0.5153702126 0.9485200902
C -2.7814256875 0.1408633941 0.3522216702
C -2.647062081 -1.3609341918 -0.1047397992
O -1.5842992046 -2.1636052894 0.4831233905
C -0.2160707943 -1.7306852635 0.1169126573
C 0.416029606 -0.5788186215 1.001208518
O 1.7922887669 -0.1547597382 0.6202295278
C 2.1140244774 -0.3247450553 -0.76459775
C 3.6055153512 -0.7938995667 -0.9034016666
C 4.714751466 0.257382904 -0.4573650641
C 4.157059314 1.6445043889 0.012324036
O 3.4644690488 1.9039211234 1.0192127022
O -5.8369031279 -0.5228231062 -0.5585103922
O 4.5787697356 2.630655648 -0.9413191856
O 1.3038858643 -0.1926696836 -1.7122549257
C 4.059665618 3.9626680065 -0.5535431948
C 3.9126477814 -1.9905413206 0.0968586029
C 5.2441502818 -2.7017622131 -0.3691788913
C 6.3258606957 -1.6603048857 0.1024974942
C 5.4104008433 -0.5375880778 0.7339557281
O 4.2996278215 -1.2996351283 1.3455058015
H 3.7532315572 -1.0870983398 -1.9581162927
H 5.4214747685 0.4427741588 -1.2849586805
H 3.0560528167 -2.6679282358 0.2786192571
H 5.3629479114 -3.6699536091 0.1428204546
H 5.2638734754 -2.8729747028 -1.4573769397
H 6.9929867446 -2.0889264587 0.8671783986
H 6.9389027642 -1.2765491966 -0.7283976894
H 5.8994681914 0.1046244963 1.4915679189
O -3.5084408441 -1.9621025318 -0.782760686
C -6.8252367974 -1.6050380436 -0.7664571231
C -4.5359166614 1.8063980919 0.0803340043
C -3.581277045 2.9853037005 0.5302587029
C -2.2327368898 2.5792853117 -0.1729201271
C -2.64303686 1.2016432572 -0.8268069552
O -4.0342529896 1.4383207907 -1.2648015443
H -4.1300129293 0.7372835321 2.0273359435
H -2.0265529001 0.332870667 1.1283304624
H -7.6258969191 -1.5842997711 0.0010766118
H -5.6112768721 2.0640414468 0.0327857815
H -3.9582308326 3.9513190582 0.1587672826
H -3.4864349395 3.0419350261 1.6264509253
H -1.951273652 3.3024195048 -0.9550216404
H -1.393376286 2.4779543093 0.5336048434
H -2.0138928675 0.8726582395 -1.6768371214
H -6.3360272027 -2.6002485716 -0.7442941124
H -7.2609028526 -1.4306444504 -1.7672585973
H 4.4163157291 4.6672832601 -1.3271640563
H 4.4409919668 4.2773417534 0.4394706013
H 2.9508866064 3.9755642066 -0.5230225101
H -0.2372795048 0.3168318856 0.9738916629
H 0.5034943711 -0.909079091 2.0565857455
H -0.1627041968 -1.4033030331 -0.9438749142
H 0.4094636962 -2.6406424447 0.2302217195
$end

$rem
JOBTYPE                   OPT
METHOD                    B3LYP
DFT_D                     d3_op
BASIS                     STO-3G
GEOM_OPT_MAX_CYCLES       100
GEOM_OPT_TOL_GRADIENT     300
GEOM_OPT_TOL_DISPLACEMENT 1200
GEOM_OPT_TOL_ENERGY       100
SYMMETRY                  False
THRESH                    12
SCF_CONVERGENCE           8
MAX_SUB_FILE_NUM          128
MEM_STATIC                400
MEM_TOTAL                 4000
$end
--------------------------------------------------------------

   16   -1510.2438107113      3.58E-09 Convergence criterion met
 Total energy in the final basis set = -1510.24381071
   14   -1510.2483455697      6.35E-09 Convergence criterion met
 Total energy in the final basis set = -1510.24834557
   14   -1510.2525592937      9.56E-09 Convergence criterion met
 Total energy in the final basis set = -1510.25255929
   14   -1510.2564033239      4.24E-09 Convergence criterion met
 Total energy in the final basis set = -1510.25640332
   14   -1510.2598939523      3.22E-09 Convergence criterion met
 Total energy in the final basis set = -1510.25989395
   14   -1510.2632994691      3.64E-09 Convergence criterion met
 Total energy in the final basis set = -1510.26329947
   14   -1510.2661305468      4.95E-09 Convergence criterion met
 Total energy in the final basis set = -1510.26613055
   14   -1510.2688487824      4.68E-09 Convergence criterion met
   13   -1510.2851329668      4.38E-09 Convergence criterion met
 Total energy in the final basis set = -1510.28513297
   12   -1510.2852342395      2.86E-09 Convergence criterion met
 Total energy in the final basis set = -1510.28523424
   11   -1510.2852621469      9.34E-09 Convergence criterion met
 Total energy in the final basis set = -1510.28526215
   11   -1510.2852740059      3.37E-09 Convergence criterion met
 Total energy in the final basis set = -1510.28527401
   11   -1510.2852774189      5.21E-09 Convergence criterion met
 Total energy in the final basis set = -1510.28527742
   10   -1510.2852787021      6.43E-09 Convergence criterion met
 Total energy in the final basis set = -1510.28527870

             Standard Nuclear Orientation (Angstroms)
    I     Atom           X                Y                Z
 ----------------------------------------------------------------
    1      O      -4.2373651418     1.7988032813     1.8207222680
    2      C      -4.2482147631     1.3016036076     0.6727931700
    3      C      -3.0415156907     1.2780674653    -0.3405101186
    4      C      -2.1494419844    -0.0310313044    -0.2784383302
    5      C      -2.6586344851    -1.0667065283     0.7831277794
    6      O      -1.8602550028    -2.2346152768     1.0724809116
    7      C      -0.4598196920    -2.1729598025     0.6083755954
    8      C       0.4231587640    -1.2706759258     1.5620393242
    9      O       1.7635599928    -1.0129883642     0.9838578969
   10      C       1.7236809066     0.0610194096     0.0407715667
   11      C       3.1649900377     0.2892484544    -0.5194166698
   12      C       4.2363622235     0.5892987418     0.6112036093
   13      C       3.6319404360     0.6227954634     2.0600783912
   14      O       4.0537634909     0.0349187891     3.0767611937
   15      O      -5.4197441153     0.7900233169     0.0231759537
   16      O       2.4874657906     1.4884994698     2.0397342763
   17      O       0.6872502841     0.6824896671    -0.2973148578
   18      C       1.8522637350     1.5323508948     3.3764852004
   19      C       3.7736234285    -1.0416531257    -1.1483701014
   20      C       5.0471087768    -0.6511922236    -1.9981953612
   21      C       6.1003766080    -0.3736432441    -0.8614834672
   22      C       5.2284175358    -0.6311330604     0.4282088386
   23      O       4.3354768095    -1.7437914259     0.0254569153
   24      H       3.1075282770     1.1081138607    -1.2576143342
   25      H       4.7388427882     1.5562746278     0.4236310006
   26      H       3.0366712736    -1.6824376759    -1.6705017649
   27      H       5.3529824822    -1.4954524000    -2.6363026878
   28      H       4.8670956862     0.2270982586    -2.6388899072
   29      H       6.9389627048    -1.0865575899    -0.9065765763
   30      H       6.5042129555     0.6508812245    -0.8941434200
   31      H       5.7845152616    -0.8959145871     1.3485920320
   32      O      -3.7631895667    -0.9987971425     1.3699366231
   33      C      -6.5408109953     0.7383165530     0.9856677842
   34      C      -3.5010140708     1.2547339935    -1.8592584679
   35      C      -2.2622302822     1.6433672601    -2.7616023312
   36      C      -1.4051569847     0.3254744103    -2.6928513395
   37      C      -2.3192555986    -0.5750248334    -1.7697712217
   38      O      -3.6947236717    -0.1863865234    -2.1397402000
   39      H      -2.4183458618     2.1638841550    -0.1223771445
   40      H      -1.0878556567     0.2424606497    -0.1030540820
   41      H      -6.7420522141     1.7311692433     1.4379485483
   42      H      -4.4323177783     1.8158007842    -2.0660964086
   43      H      -2.5890807440     1.8606421146    -3.7909882658
   44      H      -1.7235702965     2.5200099345    -2.3682344706
   45      H      -1.2806921172    -0.1324004842    -3.6869867945
   46      H      -0.4135068189     0.4931960742    -2.2393497472
   47      H      -2.1858510656    -1.6681214597    -1.8895217957
   48      H      -6.3332573689     0.0140863574     1.7998585761
   49      H      -7.4242404037     0.4052134541     0.4103872283
   50      H       0.9075055728     2.0924552816     3.2485850675
   51      H       2.4954230672     2.0558199559     4.1131235391
   52      H       1.6368802167     0.5143938395     3.7587264780
   53      H      -0.1047424457    -0.3168979160     1.7725384350
   54      H       0.6057624802    -1.8006811899     2.5176379209
   55      H      -0.3652750314    -1.8176341123    -0.4378458303
   56      H      -0.0915553863    -3.2180061153     0.6498569940
 ----------------------------------------------------------------

   10   -1510.2852795872      4.67E-09 Convergence criterion met
 Total energy in the final basis set = -1510.28527959
 Final energy is   -1510.28527958720
 **  OPTIMIZATION CONVERGED  **

                    Orbital Energies (a.u.)
 --------------------------------------------------------------

 Alpha MOs
 -- Occupied --
-18.958 -18.945 -18.936 -18.911 -18.901 -18.899 -18.889 -18.881
-18.881 -18.846 -10.125 -10.111 -10.100 -10.087 -10.084 -10.080
-10.073 -10.073 -10.068 -10.055 -10.053 -10.050 -10.049 -10.045
-10.030 -10.028 -10.023 -10.019 -10.013 -10.011  -1.036  -1.020
 -1.009  -0.988  -0.981  -0.963  -0.960  -0.948  -0.939  -0.913
 -0.776  -0.754  -0.737  -0.721  -0.712  -0.709  -0.699  -0.672
 -0.643  -0.627  -0.603  -0.590  -0.559  -0.548  -0.539  -0.532
 -0.526  -0.509  -0.498  -0.479  -0.478  -0.462  -0.456  -0.451
 -0.440  -0.432  -0.426  -0.424  -0.415  -0.404  -0.402  -0.399
 -0.395  -0.392  -0.384  -0.377  -0.371  -0.361  -0.355  -0.353
 -0.343  -0.339  -0.337  -0.332  -0.324  -0.323  -0.321  -0.320
 -0.315  -0.311  -0.308  -0.303  -0.301  -0.290  -0.288  -0.275
 -0.267  -0.265  -0.262  -0.246  -0.245  -0.234  -0.226  -0.204
 -0.189  -0.178  -0.171  -0.164  -0.155  -0.154  -0.149  -0.137
 -0.129

          Ground-State Mulliken Net Atomic Charges

     Atom                 Charge (a.u.)
  ----------------------------------------
      1 O                    -0.227238
      2 C                     0.213407
      3 C                    -0.081098
      4 C                    -0.104734
      5 C                     0.207570
      6 O                    -0.169451
      7 C                    -0.050758
      8 C                    -0.053008
      9 O                    -0.164058
     10 C                     0.222191
     11 C                    -0.078372
     12 C                    -0.077988
     13 C                     0.215185
     14 O                    -0.206256
     15 O                    -0.169821
     16 O                    -0.174352
     17 O                    -0.216596
     18 C                    -0.129718
     19 C                     0.026156
     20 C                    -0.143675
     21 C                    -0.143751
     22 C                     0.024847
     23 O                    -0.185049
     24 H                     0.088121
     25 H                     0.087304
     26 H                     0.082058
     27 H                     0.080057
     28 H                     0.074866
     29 H                     0.080299
     30 H                     0.074671
     31 H                     0.092767
     32 O                    -0.193159
     33 C                    -0.127217
     34 C                     0.026703
     35 C                    -0.144145
     36 C                    -0.148333
     37 C                     0.021298
     38 O                    -0.187236
     39 H                     0.081100
     40 H                     0.105758
     41 H                     0.084533
     42 H                     0.086557
     43 H                     0.075068
     44 H                     0.073829
     45 H                     0.072527
     46 H                     0.079223
     47 H                     0.076068
     48 H                     0.092184
     49 H                     0.085899
     50 H                     0.094304
     51 H                     0.090472
     52 H                     0.091338
     53 H                     0.092210
     54 H                     0.097293
     55 H                     0.085138
     56 H                     0.095010
  ----------------------------------------
  Sum of atomic charges =    -0.000000

                    Cartesian Multipole Moments
 -----------------------------------------------------------------
    Charge (ESU x 10^10)
                -0.0000
    Dipole Moment (Debye)
         X       4.5628      Y       1.3779      Z      -2.0671
       Tot       5.1953
    Quadrupole Moments (Debye-Ang)
        XX    -164.7562     XY       2.4878     YY    -161.6196
        XZ      -4.0631     YZ       1.8682     ZZ    -161.5586

 Total job time:  108.13s(wall), 5157.17s(cpu)
        *  Thank you very much for using Q-Chem.  Have a nice day.  *
