 Q-Chem 5.0, Q-Chem, Inc., Pleasanton, CA (2017)
 Q-Chem 5.0.1 for Intel X86 EM64T Linux

User input:
--------------------------------------------------------------
$molecule
0  1
O -3.94934 -3.66094 2.70899
C -3.26408 -4.56952 2.26188
C -3.36658 -6.02376 2.66595
C -4.06137 -6.97914 1.68189
C -4.41791 -6.40938 0.32677
O -5.75795 -6.54904 0.10269
C -6.16873 -7.91469 -0.02193
C -6.437 -8.51072 1.35608
O -6.84866 -9.88049 1.22514
C -6.36999 -10.53166 0.1361
C -7.3785 -11.47436 -0.47618
C -7.75863 -12.67523 0.40227
C -7.36875 -12.57488 1.86331
O -7.829 -11.77638 2.6665
O -2.41855 -4.34291 1.2455
O -6.46499 -13.48876 2.24643
O -5.24352 -10.44998 -0.3341
C -6.01586 -13.55306 3.55275
C -8.7792 -10.90047 -0.78469
C -9.42914 -11.75274 -1.88254
C -9.74239 -13.02198 -1.11528
C -9.28984 -12.6229 0.29281
O -9.55558 -11.235 0.34717
H -6.90872 -11.82212 -1.42427
H -7.32668 -13.61345 -0.01129
H -8.78598 -9.81931 -1.04218
H -10.38076 -11.27551 -2.20274
H -8.79583 -11.91042 -2.78207
H -10.83821 -13.20214 -1.12992
H -9.22537 -13.926 -1.50425
H -9.80145 -13.21528 1.08737
O -3.64885 -5.91068 -0.47997
C -2.21345 -3.07122 0.74511
C -1.98594 -6.70772 2.77664
C -2.09957 -7.94009 3.67913
C -2.83613 -8.89754 2.76691
C -2.9709 -8.0486 1.50613
O -1.78242 -7.28091 1.50249
H -3.86829 -6.01577 3.66564
H -4.91175 -7.07979 2.26789
H -1.86261 -2.45191 1.58333
H -1.17135 -6.02194 3.10527
H -1.08361 -8.34027 3.88585
H -2.61059 -7.75122 4.64617
H -2.1923 -9.77847 2.55807
H -3.80628 -9.25197 3.16878
H -3.10919 -8.66329 0.58587
H -3.1693 -2.70168 0.34378
H -1.45284 -3.10917 -0.04378
H -5.20577 -14.28894 3.62375
H -6.86387 -13.84718 4.189
H -5.64057 -12.55348 3.82423
H -5.67157 -8.74397 2.06188
H -7.25629 -7.95042 1.85154
H -5.37225 -8.36482 -0.60628
H -7.09702 -7.96094 -0.62839
$end

$opt
CONSTRAINT
tors           1           2           3           4    +104.211
tors           3           4           5           6    -123.158
tors           4           5           6           7     -66.316
tors           5           6           7           8     +85.263
tors           6           7           8           9    -180.000
tors           7           8           9          10     +28.421
tors           8           9          10          11    -142.105
tors           9          10          11          12     -66.316
tors          11          12          13          14     +66.316
ENDCONSTRAINT
$end

$rem
JOBTYPE                   OPT
METHOD                    B3LYP
DFT_D                     d3_op
BASIS                     STO-3G
GEOM_OPT_MAX_CYCLES       100
GEOM_OPT_TOL_GRADIENT     300
GEOM_OPT_TOL_DISPLACEMENT 1200
GEOM_OPT_TOL_ENERGY       100
SYMMETRY                  False
THRESH                    12
SCF_CONVERGENCE           8
MAX_SUB_FILE_NUM          128
MEM_STATIC                400
MEM_TOTAL                 4000
$end
--------------------------------------------------------------

   15   -1510.0792318421      5.03E-09 Convergence criterion met
 Total energy in the final basis set = -1510.07923184
   14   -1510.1589784852      5.30E-09 Convergence criterion met
 Total energy in the final basis set = -1510.15897849
   14   -1510.2024990876      7.76E-09 Convergence criterion met
 Total energy in the final basis set = -1510.20249909
   14   -1510.2273597060      5.74E-09 Convergence criterion met
 Total energy in the final basis set = -1510.22735971
   14   -1510.2376476254      4.70E-09 Convergence criterion met
 Total energy in the final basis set = -1510.23764763
   14   -1510.2408285074      6.07E-09 Convergence criterion met
 Total energy in the final basis set = -1510.24082851
   14   -1510.2419982430      4.17E-09 Convergence criterion met
 Total energy in the final basis set = -1510.24199824
   12   -1510.2425251651      4.63E-09 Convergence criterion met
   11   -1510.2439323449      6.98E-09 Convergence criterion met
 Total energy in the final basis set = -1510.24393234
   11   -1510.2439661682      5.07E-09 Convergence criterion met
 Total energy in the final basis set = -1510.24396617
   11   -1510.2439968819      3.06E-09 Convergence criterion met
 Total energy in the final basis set = -1510.24399688
   11   -1510.2440223097      5.21E-09 Convergence criterion met
 Total energy in the final basis set = -1510.24402231
   10   -1510.2440315470      9.28E-09 Convergence criterion met
 Total energy in the final basis set = -1510.24403155
    9   -1510.2440358774      6.67E-09 Convergence criterion met
 Total energy in the final basis set = -1510.24403588

             Standard Nuclear Orientation (Angstroms)
    I     Atom           X                Y                Z
 ----------------------------------------------------------------
    1      O      -5.7343724005    -1.3637690966     1.6549966792
    2      C      -5.3076661781    -0.5928840857     0.7665907392
    3      C      -4.2077570854     0.5153702126     0.9485200902
    4      C      -2.7814256875     0.1408633941     0.3522216702
    5      C      -2.6470620810    -1.3609341918    -0.1047397992
    6      O      -1.5842992046    -2.1636052894     0.4831233905
    7      C      -0.2160707943    -1.7306852635     0.1169126573
    8      C       0.4160296060    -0.5788186215     1.0012085180
    9      O       1.7922887669    -0.1547597382     0.6202295278
   10      C       2.1140244774    -0.3247450553    -0.7645977500
   11      C       3.6055153512    -0.7938995667    -0.9034016666
   12      C       4.7147514660     0.2573829040    -0.4573650641
   13      C       4.1570593140     1.6445043889     0.0123240360
   14      O       3.4644690488     1.9039211234     1.0192127022
   15      O      -5.8369031279    -0.5228231062    -0.5585103922
   16      O       4.5787697356     2.6306556480    -0.9413191856
   17      O       1.3038858643    -0.1926696836    -1.7122549257
   18      C       4.0596656180     3.9626680065    -0.5535431948
   19      C       3.9126477814    -1.9905413206     0.0968586029
   20      C       5.2441502818    -2.7017622131    -0.3691788913
   21      C       6.3258606957    -1.6603048857     0.1024974942
   22      C       5.4104008433    -0.5375880778     0.7339557281
   23      O       4.2996278215    -1.2996351283     1.3455058015
   24      H       3.7532315572    -1.0870983398    -1.9581162927
   25      H       5.4214747685     0.4427741588    -1.2849586805
   26      H       3.0560528167    -2.6679282358     0.2786192571
   27      H       5.3629479114    -3.6699536091     0.1428204546
   28      H       5.2638734754    -2.8729747028    -1.4573769397
   29      H       6.9929867446    -2.0889264587     0.8671783986
   30      H       6.9389027642    -1.2765491966    -0.7283976894
   31      H       5.8994681914     0.1046244963     1.4915679189
   32      O      -3.5084408441    -1.9621025318    -0.7827606860
   33      C      -6.8252367974    -1.6050380436    -0.7664571231
   34      C      -4.5359166614     1.8063980919     0.0803340043
   35      C      -3.5812770450     2.9853037005     0.5302587029
   36      C      -2.2327368898     2.5792853117    -0.1729201271
   37      C      -2.6430368600     1.2016432572    -0.8268069552
   38      O      -4.0342529896     1.4383207907    -1.2648015443
   39      H      -4.1300129293     0.7372835321     2.0273359435
   40      H      -2.0265529001     0.3328706670     1.1283304624
   41      H      -7.6258969191    -1.5842997711     0.0010766118
   42      H      -5.6112768721     2.0640414468     0.0327857815
   43      H      -3.9582308326     3.9513190582     0.1587672826
   44      H      -3.4864349395     3.0419350261     1.6264509253
   45      H      -1.9512736520     3.3024195048    -0.9550216404
   46      H      -1.3933762860     2.4779543093     0.5336048434
   47      H      -2.0138928675     0.8726582395    -1.6768371214
   48      H      -6.3360272027    -2.6002485716    -0.7442941124
   49      H      -7.2609028526    -1.4306444504    -1.7672585973
   50      H       4.4163157291     4.6672832601    -1.3271640563
   51      H       4.4409919668     4.2773417534     0.4394706013
   52      H       2.9508866064     3.9755642066    -0.5230225101
   53      H      -0.2372795048     0.3168318856     0.9738916629
   54      H       0.5034943711    -0.9090790910     2.0565857455
   55      H      -0.1627041968    -1.4033030331    -0.9438749142
   56      H       0.4094636962    -2.6406424447     0.2302217195
 ----------------------------------------------------------------

    9   -1510.2440361568      4.42E-09 Convergence criterion met
 Total energy in the final basis set = -1510.24403616
 Final energy is   -1510.24403615683
 **  OPTIMIZATION CONVERGED  **

                    Orbital Energies (a.u.)
 --------------------------------------------------------------

 Alpha MOs
 -- Occupied --
-18.936 -18.933 -18.926 -18.915 -18.896 -18.895 -18.890 -18.887
-18.879 -18.864 -10.109 -10.106 -10.100 -10.091 -10.074 -10.072
-10.067 -10.067 -10.065 -10.063 -10.060 -10.053 -10.044 -10.042
-10.038 -10.037 -10.026 -10.024 -10.022 -10.021  -1.016  -1.011
 -1.007  -1.000  -0.976  -0.971  -0.944  -0.937  -0.936  -0.926
 -0.768  -0.763  -0.729  -0.722  -0.715  -0.707  -0.703  -0.666
 -0.652  -0.619  -0.602  -0.591  -0.552  -0.547  -0.543  -0.539
 -0.517  -0.514  -0.482  -0.481  -0.465  -0.463  -0.454  -0.441
 -0.437  -0.434  -0.431  -0.415  -0.411  -0.410  -0.403  -0.399
 -0.397  -0.381  -0.380  -0.370  -0.366  -0.359  -0.353  -0.351
 -0.344  -0.342  -0.339  -0.335  -0.334  -0.332  -0.322  -0.316
 -0.312  -0.311  -0.308  -0.304  -0.298  -0.291  -0.283  -0.279
 -0.276  -0.258  -0.252  -0.244  -0.240  -0.236  -0.231  -0.184
 -0.179  -0.169  -0.167  -0.158  -0.153  -0.150  -0.148  -0.144
 -0.142

          Ground-State Mulliken Net Atomic Charges

     Atom                 Charge (a.u.)
  ----------------------------------------
      1 O                    -0.216682
      2 C                     0.207930
      3 C                    -0.078422
      4 C                    -0.085013
      5 C                     0.213520
      6 O                    -0.182964
      7 C                    -0.060510
      8 C                    -0.053706
      9 O                    -0.165928
     10 C                     0.208589
     11 C                    -0.078498
     12 C                    -0.079020
     13 C                     0.203794
     14 O                    -0.204164
     15 O                    -0.160253
     16 O                    -0.170465
     17 O                    -0.210797
     18 C                    -0.129218
     19 C                     0.027524
     20 C                    -0.144125
     21 C                    -0.143630
     22 C                     0.026890
     23 O                    -0.181850
     24 H                     0.085992
     25 H                     0.087322
     26 H                     0.080092
     27 H                     0.079204
     28 H                     0.074713
     29 H                     0.079044
     30 H                     0.074618
     31 H                     0.085206
     32 O                    -0.178547
     33 C                    -0.126529
     34 C                     0.027345
     35 C                    -0.145226
     36 C                    -0.142829
     37 C                     0.024340
     38 O                    -0.181194
     39 H                     0.084573
     40 H                     0.079479
     41 H                     0.087155
     42 H                     0.086393
     43 H                     0.078421
     44 H                     0.073722
     45 H                     0.079183
     46 H                     0.072293
     47 H                     0.086613
     48 H                     0.092785
     49 H                     0.090230
     50 H                     0.090594
     51 H                     0.088760
     52 H                     0.088652
     53 H                     0.078838
     54 H                     0.094337
     55 H                     0.096288
     56 H                     0.085134
  ----------------------------------------
  Sum of atomic charges =     0.000000

                    Cartesian Multipole Moments
 -----------------------------------------------------------------
    Charge (ESU x 10^10)
                 0.0000
    Dipole Moment (Debye)
         X       3.3986      Y       1.8428      Z      -0.4325
       Tot       3.8901
    Quadrupole Moments (Debye-Ang)
        XX    -150.1593     XY      -9.4049     YY    -153.7601
        XZ      -5.7702     YZ       4.5044     ZZ    -168.5750

 Total job time:  58.93s(wall), 2807.17s(cpu)
        *  Thank you very much for using Q-Chem.  Have a nice day.  *
