 Q-Chem 5.0, Q-Chem, Inc., Pleasanton, CA (2017)
 Q-Chem 5.0.1 for Intel X86 EM64T Linux

User input:
--------------------------------------------------------------
$molecule
0  1
O 6.0232739812 -0.8291477898 0.4842103699
C 4.8289031418 -0.4956864765 0.3292593519
C 4.267653735 0.4254270442 -0.8056879575
C 3.117321061 -0.1957803283 -1.71396223
C 2.646502557 -1.6202885525 -1.2077675833
O 1.2248739239 -1.7096137283 -0.9199368589
C 1.016616818 -1.6917448001 0.5514610001
C 0.056706987 -0.5028028603 0.9425389932
O -1.0922329597 -1.0992439677 1.6746756987
C -2.1939786942 -0.1700109729 1.6688421211
C -3.501181181 -0.8102149512 1.0363516339
C -4.2645420296 0.2791318231 0.1794067897
C -4.0202678851 1.7678411487 0.6225263987
O -3.582098202 2.7030920935 -0.0811648308
O 3.7879901185 -0.8520028604 1.256626259
O -4.627379907 1.9382840263 1.9134535802
O -2.0637276665 1.0417557725 1.9574525782
C -4.3997701619 3.3188700843 2.3917735803
C -3.0064782179 -1.7652855009 -0.1272854119
C -4.2268911179 -2.4172784495 -0.8889431936
C -4.6884803161 -1.2337102707 -1.8196546417
C -3.7667973013 -0.0729058671 -1.2852560903
O -2.4680410322 -0.761587375 -1.0840784824
H -4.1421230318 -1.2946750812 1.7947865201
H -5.3534767701 0.1061356804 0.2617456305
H -2.206660911 -2.4614073423 0.1882148688
H -3.8953464596 -3.2899522806 -1.4733064691
H -5.0180430678 -2.7416502228 -0.1934926131
H -4.4641622804 -1.4454834121 -2.8775431096
H -5.7613432881 -1.0028246195 -1.7223604548
H -3.6460768332 0.8056881339 -1.94870467
O 3.4179693977 -2.5965773824 -1.0920005373
C 4.3421827304 -1.7195380271 2.3228087775
C 3.5252961523 1.7209679195 -0.2470138151
C 3.5105540395 2.7996514029 -1.400688426
C 2.421496656 2.1954333 -2.3628136386
C 1.9900197495 0.9020436146 -1.5683118318
O 2.1107500129 1.3050556146 -0.1458026733
H 5.1362684737 0.7079473081 -1.4258184513
H 3.4661529164 -0.2953137724 -2.7587127226
H 5.2337267773 -1.262080706 2.7960793
H 3.8955309618 2.0793291185 0.7331207243
H 3.1998470763 3.779817974 -1.0049290261
H 4.4955294604 2.9070205156 -1.8822434166
H 1.5648529734 2.877286838 -2.4832570469
H 2.822071695 1.9515198562 -3.3596944542
H 0.9727221279 0.5214419632 -1.7799016735
H 4.6235087515 -2.7150710564 1.9221348226
H 3.5374721973 -1.8361778915 3.0717593066
H -4.9579505495 3.4131493613 3.3414221906
H -4.7687450025 4.0714855219 1.6650539924
H -3.3215154456 3.5038170478 2.5762964302
H 0.5905859262 0.2571611121 1.5529396532
H -0.3088041431 -0.0153624529 0.0130650426
H 1.9901079627 -1.5690694963 1.0724791885
H 0.5364080888 -2.6466851682 0.8626747547
$end

$rem
JOBTYPE                   OPT
METHOD                    B3LYP
DFT_D                     d3_op
BASIS                     STO-3G
GEOM_OPT_MAX_CYCLES       100
GEOM_OPT_TOL_GRADIENT     300
GEOM_OPT_TOL_DISPLACEMENT 1200
GEOM_OPT_TOL_ENERGY       100
SYMMETRY                  False
THRESH                    12
SCF_CONVERGENCE           8
MAX_SUB_FILE_NUM          128
MEM_STATIC                400
MEM_TOTAL                 4000
$end
--------------------------------------------------------------

   16   -1510.2477209247      5.03E-09 Convergence criterion met
 Total energy in the final basis set = -1510.24772092
   13   -1510.2515046259      9.08E-09 Convergence criterion met
 Total energy in the final basis set = -1510.25150463
   14   -1510.2550442860      2.75E-09 Convergence criterion met
 Total energy in the final basis set = -1510.25504429
   14   -1510.2591071304      5.28E-09 Convergence criterion met
 Total energy in the final basis set = -1510.25910713
   14   -1510.2630475390      2.70E-09 Convergence criterion met
 Total energy in the final basis set = -1510.26304754
   13   -1510.2668422974      7.65E-09 Convergence criterion met
 Total energy in the final basis set = -1510.26684230
   15   -1510.2516016389      2.04E-09 Convergence criterion met
 Total energy in the final basis set = -1510.25160164
   14   -1510.2710242046      2.43E-09 Convergence criterion met
   12   -1510.3019226764      5.42E-09 Convergence criterion met
 Total energy in the final basis set = -1510.30192268
   12   -1510.3019382440      4.66E-09 Convergence criterion met
 Total energy in the final basis set = -1510.30193824
   11   -1510.3019726505      7.71E-09 Convergence criterion met
 Total energy in the final basis set = -1510.30197265
   11   -1510.3019713970      2.56E-09 Convergence criterion met
 Total energy in the final basis set = -1510.30197140
    9   -1510.3019720852      5.70E-09 Convergence criterion met
 Total energy in the final basis set = -1510.30197209
    9   -1510.3019726023      8.21E-09 Convergence criterion met
 Total energy in the final basis set = -1510.30197260

             Standard Nuclear Orientation (Angstroms)
    I     Atom           X                Y                Z
 ----------------------------------------------------------------
    1      O       2.7477692687     2.8095038664     1.1619717347
    2      C       2.2058119861     2.0741742865     0.3066337153
    3      C       2.9175295633     1.3975875918    -0.9230829113
    4      C       3.1191866358    -0.1695419170    -0.7963972648
    5      C       2.5734706173    -0.7726550048     0.5454664185
    6      O       2.4019540419    -2.1796600815     0.3550710214
    7      C       1.9810652133    -2.8618433147     1.6014693304
    8      C       0.5787448205    -2.4010258267     2.1390031651
    9      O      -0.3484751698    -2.2193531988     0.9949615570
   10      C      -1.0919318168    -1.0066090356     1.1614817062
   11      C      -2.0656862318    -0.8322335345    -0.0433434033
   12      C      -3.4189185342    -0.1073627708     0.3600177039
   13      C      -3.4596646190     0.3653443973     1.8592584648
   14      O      -3.4019288452     1.5357044272     2.2910022610
   15      O       0.8132818670     1.7816437312     0.2313876452
   16      O      -3.6563456740    -0.7941806307     2.6829876421
   17      O      -0.9576321436    -0.2462299484     2.1506372409
   18      C      -3.5974366969    -0.4087551019     4.1101671353
   19      C      -1.5079013057     0.1738008022    -1.1519594509
   20      C      -2.3637043711    -0.0565963865    -2.4616441843
   21      C      -3.7215218163     0.6402227883    -2.0783512057
   22      C      -3.4008572415     1.1388253843    -0.6161944301
   23      O      -1.9654519469     1.4962173156    -0.6759949034
   24      H      -2.2499511932    -1.8320183134    -0.4740912943
   25      H      -4.2835400386    -0.7715360665     0.1801309741
   26      H      -0.4014429223     0.1738566043    -1.3201114429
   27      H      -1.8816459875     0.4399299557    -3.3189345711
   28      H      -2.4856152830    -1.1254736952    -2.6986943676
   29      H      -3.9389382984     1.4958744213    -2.7374462808
   30      H      -4.5794011546    -0.0506868239    -2.1050524301
   31      H      -3.9987412991     1.9986853048    -0.2571652411
   32      O       2.3578950050    -0.1661107542     1.6172829462
   33      C       0.0757084311     2.3940515433     1.3641213478
   34      C       2.0419232190     1.4718180573    -2.2470642660
   35      C       2.9776777169     1.1831143292    -3.4857535264
   36      C       3.1917489941    -0.3716046544    -3.3542056846
   37      C       2.3319073034    -0.6920255530    -2.0699759611
   38      O       1.1997527805     0.2538775621    -2.1823186129
   39      H       3.8903641438     1.9017372886    -1.0580452388
   40      H       4.1901486388    -0.4374326587    -0.8660129275
   41      H      -0.6535603549     3.1210987068     0.9585697132
   42      H       1.4046477106     2.3730147309    -2.3304038768
   43      H       2.4625436774     1.4405477935    -4.4249469100
   44      H       3.9204990750     1.7503293543    -3.4327028096
   45      H       2.7923269388    -0.9097042249    -4.2286307307
   46      H       4.2501847220    -0.6474389348    -3.2221335348
   47      H       1.9658256041    -1.7329548843    -1.9797538031
   48      H       0.7905322478     2.8985042130     2.0435621788
   49      H      -0.4667509429     1.5736810437     1.8820972650
   50      H      -3.8041109642    -1.3290579719     4.6869863951
   51      H      -4.3524289928     0.3644486480     4.3596098456
   52      H      -2.5928703730    -0.0204800061     4.3771104831
   53      H       0.1754128349    -3.1813574837     2.8201404653
   54      H       0.6537128677    -1.4370565303     2.6852162680
   55      H       2.7342228483    -2.7150737293     2.4070913585
   56      H       1.9522013956    -3.9358615793     1.3285157317
 ----------------------------------------------------------------

    9   -1510.3019720504      7.36E-09 Convergence criterion met
 Total energy in the final basis set = -1510.30197205
 Final energy is   -1510.30197205044
 **  OPTIMIZATION CONVERGED  **

                    Orbital Energies (a.u.)
 --------------------------------------------------------------

 Alpha MOs
 -- Occupied --
-18.944 -18.939 -18.919 -18.909 -18.903 -18.888 -18.883 -18.872
-18.863 -18.852 -10.109 -10.104 -10.088 -10.083 -10.083 -10.070
-10.067 -10.064 -10.054 -10.046 -10.043 -10.033 -10.032 -10.030
-10.027 -10.025 -10.023 -10.020 -10.009 -10.005  -1.024  -1.014
 -0.998  -0.990  -0.979  -0.956  -0.948  -0.939  -0.924  -0.914
 -0.767  -0.754  -0.730  -0.719  -0.711  -0.704  -0.689  -0.653
 -0.636  -0.618  -0.594  -0.576  -0.550  -0.541  -0.534  -0.526
 -0.511  -0.501  -0.481  -0.466  -0.464  -0.454  -0.443  -0.441
 -0.436  -0.434  -0.419  -0.414  -0.405  -0.402  -0.400  -0.397
 -0.390  -0.381  -0.369  -0.364  -0.357  -0.348  -0.348  -0.342
 -0.339  -0.336  -0.332  -0.329  -0.326  -0.320  -0.318  -0.315
 -0.308  -0.301  -0.297  -0.294  -0.290  -0.284  -0.275  -0.273
 -0.267  -0.259  -0.249  -0.243  -0.236  -0.226  -0.215  -0.189
 -0.178  -0.166  -0.163  -0.161  -0.154  -0.148  -0.141  -0.136
 -0.130

          Ground-State Mulliken Net Atomic Charges

     Atom                 Charge (a.u.)
  ----------------------------------------
      1 O                    -0.220270
      2 C                     0.212002
      3 C                    -0.081336
      4 C                    -0.078126
      5 C                     0.213340
      6 O                    -0.170308
      7 C                    -0.046834
      8 C                    -0.059796
      9 O                    -0.169822
     10 C                     0.221016
     11 C                    -0.080441
     12 C                    -0.080343
     13 C                     0.213082
     14 O                    -0.212767
     15 O                    -0.175555
     16 O                    -0.177611
     17 O                    -0.213101
     18 C                    -0.129278
     19 C                     0.009323
     20 C                    -0.144247
     21 C                    -0.145268
     22 C                     0.024269
     23 O                    -0.190601
     24 H                     0.085027
     25 H                     0.082380
     26 H                     0.116787
     27 H                     0.075521
     28 H                     0.068679
     29 H                     0.074789
     30 H                     0.069792
     31 H                     0.084936
     32 O                    -0.204439
     33 C                    -0.144219
     34 C                     0.029074
     35 C                    -0.143788
     36 C                    -0.143319
     37 C                     0.025775
     38 O                    -0.187208
     39 H                     0.083814
     40 H                     0.086609
     41 H                     0.086797
     42 H                     0.091606
     43 H                     0.078900
     44 H                     0.075757
     45 H                     0.078910
     46 H                     0.074809
     47 H                     0.093400
     48 H                     0.091582
     49 H                     0.105971
     50 H                     0.085717
     51 H                     0.087620
     52 H                     0.091660
     53 H                     0.084550
     54 H                     0.113511
     55 H                     0.090089
     56 H                     0.091581
  ----------------------------------------
  Sum of atomic charges =    -0.000000

                    Cartesian Multipole Moments
 -----------------------------------------------------------------
    Charge (ESU x 10^10)
                -0.0000
    Dipole Moment (Debye)
         X       0.8211      Y      -3.8208      Z      -1.9771
       Tot       4.3797
    Quadrupole Moments (Debye-Ang)
        XX    -150.2063     XY      -2.9396     YY    -161.2724
        XZ      -6.1268     YZ     -11.1073     ZZ    -152.1274

 Total job time:  200.56s(wall), 9559.45s(cpu)
        *  Thank you very much for using Q-Chem.  Have a nice day.  *
