 Q-Chem 5.0, Q-Chem, Inc., Pleasanton, CA (2017)
 Q-Chem 5.0.1 for Intel X86 EM64T Linux

User input:
--------------------------------------------------------------
$molecule
0  1
O -3.94934 -3.66094 2.70899
C -3.26408 -4.56952 2.26188
C -3.36658 -6.02376 2.66595
C -3.63629 -7.04588 1.54953
C -3.59671 -6.52161 0.1312
O -2.68015 -7.22435 -0.59783
C -1.46617 -6.50036 -0.82445
C -0.27484 -7.29387 -0.29794
O 0.6739 -7.51097 -1.35417
C 1.56012 -8.51586 -1.14451
C 1.53152 -9.56223 -2.23307
C 1.71228 -11.00754 -1.74657
C 1.53714 -11.23042 -0.25783
O 0.74347 -12.00666 0.25412
O -2.2599 -4.24715 1.40875
O 2.47171 -10.66899 0.5525
O 2.53072 -8.33631 -0.42547
C 2.50634 -10.81135 1.92441
C 0.19776 -9.70537 -3.0107
C 0.47175 -10.30504 -4.38906
C 0.83367 -11.72625 -4.01374
C 0.55885 -11.68964 -2.50622
O -0.48239 -10.75407 -2.36604
H 2.33191 -9.27272 -2.95111
H 2.7122 -11.41652 -2.01145
H -0.37131 -8.7598 -3.13433
H -0.50057 -10.31988 -4.93255
H 1.22472 -9.77054 -5.00723
H 0.13022 -12.41564 -4.53135
H 1.88418 -12.02132 -4.22613
H 0.34896 -12.71592 -2.13278
O -4.32261 -5.65779 -0.33723
C -1.99096 -2.96775 0.96762
C -2.10305 -6.61281 3.31449
C -2.49425 -7.74483 4.26093
C -2.94629 -8.79682 3.2669
C -2.58431 -8.10726 1.942
O -1.47093 -7.31636 2.27792
H -4.18778 -6.04947 3.41926
H -4.66061 -7.46861 1.64979
H -1.74895 -2.30845 1.82846
H -1.48522 -5.85472 3.84338
H -1.55537 -8.09438 4.74783
H -3.23616 -7.48535 5.04648
H -2.33064 -9.7105 3.42309
H -4.02641 -9.05573 3.30831
H -2.44756 -8.8847 1.16228
H -2.86608 -2.56205 0.41633
H -1.11861 -2.99416 0.28301
H 3.37064 -10.24438 2.32681
H 2.62287 -11.88214 2.19664
H 1.57342 -10.40759 2.37323
H 0.20653 -6.81247 0.57943
H -0.64227 -8.29975 -0.00208
H -1.43861 -5.45463 -0.46538
H -1.37572 -6.425 -1.92967
$end

$opt
CONSTRAINT
tors           1           2           3           4    +123.158
tors           3           4           5           6    +123.158
tors           4           5           6           7    -104.211
tors           5           6           7           8    +123.158
tors           6           7           8           9    +123.158
tors           7           8           9          10    -161.053
tors           8           9          10          11    +123.158
tors           9          10          11          12    -142.105
tors          11          12          13          14    +123.158
ENDCONSTRAINT
$end

$rem
JOBTYPE                   OPT
METHOD                    B3LYP
DFT_D                     d3_op
BASIS                     STO-3G
GEOM_OPT_MAX_CYCLES       100
GEOM_OPT_TOL_GRADIENT     300
GEOM_OPT_TOL_DISPLACEMENT 1200
GEOM_OPT_TOL_ENERGY       100
SYMMETRY                  False
THRESH                    12
SCF_CONVERGENCE           8
MAX_SUB_FILE_NUM          128
MEM_STATIC                400
MEM_TOTAL                 4000
$end
--------------------------------------------------------------

   15   -1510.1003720472      6.24E-09 Convergence criterion met
 Total energy in the final basis set = -1510.10037205
   14   -1510.1738183977      4.86E-09 Convergence criterion met
 Total energy in the final basis set = -1510.17381840
   14   -1510.2129371472      4.99E-09 Convergence criterion met
 Total energy in the final basis set = -1510.21293715
   13   -1510.2313205913      9.57E-09 Convergence criterion met
 Total energy in the final basis set = -1510.23132059
   14   -1510.2376237940      5.49E-09 Convergence criterion met
 Total energy in the final basis set = -1510.23762379
   13   -1510.2399154027      6.69E-09 Convergence criterion met
 Total energy in the final basis set = -1510.23991540
   13   -1510.2404142319      5.87E-09 Convergence criterion met
 Total energy in the final basis set = -1510.24041423
   13   -1510.2414692955      7.39E-09 Convergence criterion met
   11   -1510.2474264272      4.05E-09 Convergence criterion met
 Total energy in the final basis set = -1510.24742643
   11   -1510.2474595021      3.24E-09 Convergence criterion met
 Total energy in the final basis set = -1510.24745950
   11   -1510.2474914146      3.52E-09 Convergence criterion met
 Total energy in the final basis set = -1510.24749141
   11   -1510.2475115922      2.67E-09 Convergence criterion met
 Total energy in the final basis set = -1510.24751159
    9   -1510.2475158784      6.33E-09 Convergence criterion met
 Total energy in the final basis set = -1510.24751588
    9   -1510.2475177832      6.09E-09 Convergence criterion met
 Total energy in the final basis set = -1510.24751778

             Standard Nuclear Orientation (Angstroms)
    I     Atom           X                Y                Z
 ----------------------------------------------------------------
    1      O       6.0232739812    -0.8291477898     0.4842103699
    2      C       4.8289031418    -0.4956864765     0.3292593519
    3      C       4.2676537350     0.4254270442    -0.8056879575
    4      C       3.1173210610    -0.1957803283    -1.7139622300
    5      C       2.6465025570    -1.6202885525    -1.2077675833
    6      O       1.2248739239    -1.7096137283    -0.9199368589
    7      C       1.0166168180    -1.6917448001     0.5514610001
    8      C       0.0567069870    -0.5028028603     0.9425389932
    9      O      -1.0922329597    -1.0992439677     1.6746756987
   10      C      -2.1939786942    -0.1700109729     1.6688421211
   11      C      -3.5011811810    -0.8102149512     1.0363516339
   12      C      -4.2645420296     0.2791318231     0.1794067897
   13      C      -4.0202678851     1.7678411487     0.6225263987
   14      O      -3.5820982020     2.7030920935    -0.0811648308
   15      O       3.7879901185    -0.8520028604     1.2566262590
   16      O      -4.6273799070     1.9382840263     1.9134535802
   17      O      -2.0637276665     1.0417557725     1.9574525782
   18      C      -4.3997701619     3.3188700843     2.3917735803
   19      C      -3.0064782179    -1.7652855009    -0.1272854119
   20      C      -4.2268911179    -2.4172784495    -0.8889431936
   21      C      -4.6884803161    -1.2337102707    -1.8196546417
   22      C      -3.7667973013    -0.0729058671    -1.2852560903
   23      O      -2.4680410322    -0.7615873750    -1.0840784824
   24      H      -4.1421230318    -1.2946750812     1.7947865201
   25      H      -5.3534767701     0.1061356804     0.2617456305
   26      H      -2.2066609110    -2.4614073423     0.1882148688
   27      H      -3.8953464596    -3.2899522806    -1.4733064691
   28      H      -5.0180430678    -2.7416502228    -0.1934926131
   29      H      -4.4641622804    -1.4454834121    -2.8775431096
   30      H      -5.7613432881    -1.0028246195    -1.7223604548
   31      H      -3.6460768332     0.8056881339    -1.9487046700
   32      O       3.4179693977    -2.5965773824    -1.0920005373
   33      C       4.3421827304    -1.7195380271     2.3228087775
   34      C       3.5252961523     1.7209679195    -0.2470138151
   35      C       3.5105540395     2.7996514029    -1.4006884260
   36      C       2.4214966560     2.1954333000    -2.3628136386
   37      C       1.9900197495     0.9020436146    -1.5683118318
   38      O       2.1107500129     1.3050556146    -0.1458026733
   39      H       5.1362684737     0.7079473081    -1.4258184513
   40      H       3.4661529164    -0.2953137724    -2.7587127226
   41      H       5.2337267773    -1.2620807060     2.7960793000
   42      H       3.8955309618     2.0793291185     0.7331207243
   43      H       3.1998470763     3.7798179740    -1.0049290261
   44      H       4.4955294604     2.9070205156    -1.8822434166
   45      H       1.5648529734     2.8772868380    -2.4832570469
   46      H       2.8220716950     1.9515198562    -3.3596944542
   47      H       0.9727221279     0.5214419632    -1.7799016735
   48      H       4.6235087515    -2.7150710564     1.9221348226
   49      H       3.5374721973    -1.8361778915     3.0717593066
   50      H      -4.9579505495     3.4131493613     3.3414221906
   51      H      -4.7687450025     4.0714855219     1.6650539924
   52      H      -3.3215154456     3.5038170478     2.5762964302
   53      H       0.5905859262     0.2571611121     1.5529396532
   54      H      -0.3088041431    -0.0153624529     0.0130650426
   55      H       1.9901079627    -1.5690694963     1.0724791885
   56      H       0.5364080888    -2.6466851682     0.8626747547
 ----------------------------------------------------------------

    9   -1510.2475179594      3.34E-09 Convergence criterion met
 Total energy in the final basis set = -1510.24751796
 Final energy is   -1510.24751795945
 **  OPTIMIZATION CONVERGED  **

                    Orbital Energies (a.u.)
 --------------------------------------------------------------

 Alpha MOs
 -- Occupied --
-18.945 -18.917 -18.909 -18.898 -18.895 -18.892 -18.891 -18.885
-18.883 -18.859 -10.107 -10.107 -10.102 -10.089 -10.070 -10.065
-10.059 -10.057 -10.055 -10.055 -10.055 -10.052 -10.043 -10.039
-10.036 -10.030 -10.023 -10.021 -10.019 -10.018  -1.020  -1.009
 -1.003  -0.994  -0.975  -0.967  -0.944  -0.937  -0.928  -0.923
 -0.766  -0.759  -0.725  -0.721  -0.710  -0.703  -0.688  -0.666
 -0.651  -0.606  -0.596  -0.572  -0.549  -0.542  -0.540  -0.534
 -0.515  -0.506  -0.491  -0.479  -0.469  -0.453  -0.451  -0.437
 -0.434  -0.429  -0.424  -0.419  -0.411  -0.402  -0.400  -0.396
 -0.386  -0.376  -0.375  -0.370  -0.362  -0.353  -0.351  -0.348
 -0.344  -0.338  -0.336  -0.334  -0.330  -0.329  -0.322  -0.312
 -0.310  -0.308  -0.303  -0.300  -0.298  -0.288  -0.279  -0.275
 -0.267  -0.261  -0.246  -0.242  -0.236  -0.234  -0.233  -0.186
 -0.167  -0.166  -0.164  -0.154  -0.152  -0.150  -0.147  -0.143
 -0.140

          Ground-State Mulliken Net Atomic Charges

     Atom                 Charge (a.u.)
  ----------------------------------------
      1 O                    -0.205292
      2 C                     0.210722
      3 C                    -0.081161
      4 C                    -0.081071
      5 C                     0.223661
      6 O                    -0.198701
      7 C                    -0.056005
      8 C                    -0.048834
      9 O                    -0.191729
     10 C                     0.219960
     11 C                    -0.076105
     12 C                    -0.082725
     13 C                     0.214413
     14 O                    -0.220833
     15 O                    -0.173258
     16 O                    -0.174530
     17 O                    -0.192165
     18 C                    -0.128069
     19 C                     0.021788
     20 C                    -0.145923
     21 C                    -0.141632
     22 C                     0.021081
     23 O                    -0.196186
     24 H                     0.086760
     25 H                     0.083135
     26 H                     0.092008
     27 H                     0.078559
     28 H                     0.073376
     29 H                     0.077652
     30 H                     0.073219
     31 H                     0.089223
     32 O                    -0.187869
     33 C                    -0.129272
     34 C                     0.025835
     35 C                    -0.143036
     36 C                    -0.144483
     37 C                     0.021893
     38 O                    -0.192103
     39 H                     0.087677
     40 H                     0.086125
     41 H                     0.093856
     42 H                     0.083495
     43 H                     0.079560
     44 H                     0.074510
     45 H                     0.080941
     46 H                     0.074237
     47 H                     0.095232
     48 H                     0.093756
     49 H                     0.091890
     50 H                     0.085897
     51 H                     0.086422
     52 H                     0.091189
     53 H                     0.093031
     54 H                     0.095986
     55 H                     0.101269
     56 H                     0.082627
  ----------------------------------------
  Sum of atomic charges =    -0.000000

                    Cartesian Multipole Moments
 -----------------------------------------------------------------
    Charge (ESU x 10^10)
                -0.0000
    Dipole Moment (Debye)
         X      -0.8008      Y       0.3181      Z       0.1679
       Tot       0.8779
    Quadrupole Moments (Debye-Ang)
        XX    -155.2495     XY      12.6140     YY    -161.3169
        XZ       0.6513     YZ      -3.9174     ZZ    -153.2276

 Total job time:  77.21s(wall), 3681.07s(cpu)
        *  Thank you very much for using Q-Chem.  Have a nice day.  *
