 Q-Chem 5.0, Q-Chem, Inc., Pleasanton, CA (2017)
 Q-Chem 5.0.1 for Intel X86 EM64T Linux

User input:
--------------------------------------------------------------
$molecule
0  1
O -0.2787522695 -1.0997195266 0.5700333639
C -1.7713400661 -1.0107540801 0.7087628677
C -2.2657283102 0.3372088953 0.016015355
C -3.6459566571 0.2259318118 -0.7685833683
C -4.5529710191 -1.0606359321 -0.573559325
O -3.9988379507 -2.1708955483 0.145863918
C -2.5292604008 -2.1930455684 -0.0085384238
C 0.1993865335 -2.2889079981 -0.2178776227
O 1.6512165981 -2.3397934197 -0.3172105758
C 2.3296135301 -1.1963134391 -0.9284998316
C 1.8830362382 0.2308258628 -0.4168361101
C 3.0571198109 1.114007888 0.1618531347
C 4.2806472286 0.4001873225 0.8323241365
O 5.0958223563 0.9445417704 1.6111866411
O -2.0934283931 -0.8886263562 2.1329205216
O 4.3215001009 -0.9874365343 0.5024295186
O 3.1531099439 -1.4199694509 -1.8348499302
C 5.4681859969 -1.6504744121 1.1591809458
C 1.5420786755 1.0865478524 -1.7085246914
C 1.0743676377 2.5420872093 -1.2815321732
C 2.4534452069 3.2675912495 -1.0629825495
C 3.4216572934 2.0248221608 -1.1111953097
O 2.8967064975 1.2885518384 -2.2826320128
H 1.0339078464 0.0741216704 0.279441171
H 2.643592997 1.7775769417 0.9441866655
H 0.8791636628 0.5818970152 -2.4385903348
H 0.472577722 3.020431458 -2.0703368684
H 0.47970983 2.5051206951 -0.3547422225
H 2.6800731897 3.9457054484 -1.902483252
H 2.5030759968 3.8340605963 -0.1183949047
H 4.4998854947 2.2442937892 -1.2401757656
O -5.7534873789 -1.1058981817 -0.9164395959
C -1.6130367011 -2.0682115989 2.867467186
C -2.5802541103 1.5236416919 1.0229575934
C -2.4983892815 2.8835025665 0.2231843741
C -3.8081028409 2.8064774494 -0.6412556321
C -4.4347405883 1.451673181 -0.129367238
O -4.0310744137 1.384211684 1.2934570155
H -1.4662467092 0.6220249675 -0.6911811127
H -3.4914910867 0.3764805428 -1.8535901758
H -1.819526134 -1.8612106477 3.9325159
H -2.0058239696 1.4808187774 1.9672138235
H -2.5166857388 3.7392365196 0.916548167
H -1.592061843 2.9509606233 -0.3959733959
H -4.4888349359 3.6457242539 -0.4263629075
H -3.6020631479 2.7866051141 -1.7232275638
H -5.5339819248 1.3662516898 -0.2326945326
H -0.529993288 -2.2157108573 2.7317343106
H -2.143888497 -2.9926082556 2.58430965
H 5.4089551533 -2.7153517825 0.865941931
H 5.4125182315 -1.5628505034 2.2643918892
H 6.4340875051 -1.223826963 0.8175028689
H -0.0667262261 -3.2304127472 0.3246317207
H -0.2735962611 -2.3109831347 -1.238199207
H -2.2735722436 -2.1566155019 -1.0881137647
H -2.2172732435 -3.1807482684 0.3770645791
$end

$rem
JOBTYPE                   OPT
METHOD                    B3LYP
DFT_D                     d3_op
BASIS                     STO-3G
GEOM_OPT_MAX_CYCLES       100
GEOM_OPT_TOL_GRADIENT     300
GEOM_OPT_TOL_DISPLACEMENT 1200
GEOM_OPT_TOL_ENERGY       100
SYMMETRY                  False
THRESH                    12
SCF_CONVERGENCE           8
MAX_SUB_FILE_NUM          128
MEM_STATIC                400
MEM_TOTAL                 4000
$end
--------------------------------------------------------------

   15   -1510.2497856722      9.02E-09 Convergence criterion met
 Total energy in the final basis set = -1510.24978567
   14   -1510.2544503859      3.96E-09 Convergence criterion met
 Total energy in the final basis set = -1510.25445039
   14   -1510.2578782695      5.31E-09 Convergence criterion met
 Total energy in the final basis set = -1510.25787827
   14   -1510.2601986829      4.16E-09 Convergence criterion met
 Total energy in the final basis set = -1510.26019868
   13   -1510.2622361526      9.21E-09 Convergence criterion met
 Total energy in the final basis set = -1510.26223615
   13   -1510.2639241377      3.39E-09 Convergence criterion met
 Total energy in the final basis set = -1510.26392414
   13   -1510.2654414576      5.47E-09 Convergence criterion met
 Total energy in the final basis set = -1510.26544146
   12   -1510.2668647601      8.67E-09 Convergence criterion met
   11   -1510.2801119477      8.51E-09 Convergence criterion met
 Total energy in the final basis set = -1510.28011195
   11   -1510.2801479845      5.53E-09 Convergence criterion met
 Total energy in the final basis set = -1510.28014798
   11   -1510.2801479249      3.50E-09 Convergence criterion met
 Total energy in the final basis set = -1510.28014792
   10   -1510.2801493451      9.57E-09 Convergence criterion met
 Total energy in the final basis set = -1510.28014935
   10   -1510.2801525265      6.07E-09 Convergence criterion met
 Total energy in the final basis set = -1510.28015253
   10   -1510.2801529672      3.18E-09 Convergence criterion met
 Total energy in the final basis set = -1510.28015297

             Standard Nuclear Orientation (Angstroms)
    I     Atom           X                Y                Z
 ----------------------------------------------------------------
    1      O      -0.2666586274    -1.7666358285    -0.2472634622
    2      C      -1.6982167352    -1.3836266220    -0.1790227947
    3      C      -1.9054440110     0.1743596876    -0.0529008302
    4      C      -3.4423514840     0.5206854279    -0.1472271601
    5      C      -4.4073778799    -0.7328333298    -0.2076357185
    6      O      -4.0184420809    -1.8769575332    -0.9988587301
    7      C      -2.6030527876    -1.8414673090    -1.4173307153
    8      C       0.2633869173    -1.7387269138    -1.6229438780
    9      O       1.6857590754    -2.0890933200    -1.5214835909
   10      C       2.4959473218    -1.1307404454    -0.8007149304
   11      C       1.9089924955     0.3059405778    -0.5458472863
   12      C       2.7683133539     1.1492480511     0.4797818886
   13      C       3.9747799718     0.3684294615     1.1251847469
   14      O       5.1926349540     0.5819081456     0.9503493838
   15      O      -2.2010793477    -1.9227518818     1.0846587894
   16      O       3.4311301851    -0.5557095282     2.0788230554
   17      O       3.6550279918    -1.4895915085    -0.5008429744
   18      C       4.5162656643    -1.3853942234     2.6472894784
   19      C       2.0746695362     1.1874860138    -1.8647300036
   20      C       1.2092408060     2.4988043011    -1.7195504904
   21      C       2.0798133135     3.3261739836    -0.7026055562
   22      C       3.2768975443     2.3291888709    -0.4448624252
   23      O       3.4666156755     1.6743180944    -1.7622268269
   24      H       0.8642730536     0.2187321443    -0.2076248398
   25      H       2.1239703153     1.5164288153     1.2990372097
   26      H       1.9320724300     0.6319025848    -2.8124358149
   27      H       1.1260306778     3.0108080967    -2.6914049081
   28      H       0.1943884103     2.2907163260    -1.3451952460
   29      H       2.4466949187     4.2604289289    -1.1561943463
   30      H       1.5343172907     3.5730766842     0.2224056232
   31      H       4.2257370097     2.7882586433    -0.1062968020
   32      O      -5.5295840491    -0.7720033098     0.3383276979
   33      C      -2.1627839537    -3.3999112747     1.0534344553
   34      C      -1.5467720724     0.7504257167     1.3784715440
   35      C      -1.4569554705     2.3243846308     1.2714874133
   36      C      -2.9778862372     2.7061603355     1.1301742366
   37      C      -3.6598516988     1.2842214624     1.2235677987
   38      O      -2.7869714809     0.5388535555     2.1603339100
   39      H      -1.3358911771     0.6750441638    -0.8551252190
   40      H      -3.6624907830     1.1659731373    -1.0181461037
   41      H      -2.3430914608    -3.7258874479     2.0941893700
   42      H      -0.6864116706     0.2547051516     1.8691910261
   43      H      -1.0192903249     2.7437481515     2.1913300454
   44      H      -0.8539937659     2.6571882347     0.4125620748
   45      H      -3.3123695208     3.3497927637     1.9590171646
   46      H      -3.2022765468     3.2123870412     0.1775117936
   47      H      -4.7105546248     1.2695174506     1.5739102365
   48      H      -1.1771131970    -3.7817041962     0.7173683278
   49      H      -2.9614189491    -3.8184698498     0.4054345274
   50      H       4.0570464305    -1.9833094389     3.4559167193
   51      H       5.3357697039    -0.7625485086     3.0596145149
   52      H       4.9395340236    -2.0641330074     1.8781785910
   53      H      -0.1743039563    -2.5398740312    -2.2683284506
   54      H       0.0988945465    -0.7489800026    -2.1231159903
   55      H      -2.4479653651    -1.1463781445    -2.2718857230
   56      H      -2.3664266475    -2.8710651051    -1.7504004490
 ----------------------------------------------------------------

    9   -1510.2801533457      7.37E-09 Convergence criterion met
 Total energy in the final basis set = -1510.28015335
 Final energy is   -1510.28015334572
 **  OPTIMIZATION CONVERGED  **

                    Orbital Energies (a.u.)
 --------------------------------------------------------------

 Alpha MOs
 -- Occupied --
-18.951 -18.944 -18.921 -18.920 -18.915 -18.898 -18.897 -18.892
-18.883 -18.864 -10.130 -10.124 -10.116 -10.108 -10.093 -10.088
-10.074 -10.066 -10.064 -10.064 -10.056 -10.053 -10.047 -10.046
-10.045 -10.039 -10.034 -10.029 -10.028 -10.026  -1.033  -1.019
 -1.002  -0.996  -0.979  -0.975  -0.963  -0.945  -0.931  -0.926
 -0.778  -0.770  -0.737  -0.731  -0.715  -0.714  -0.693  -0.668
 -0.656  -0.648  -0.607  -0.603  -0.572  -0.556  -0.547  -0.544
 -0.533  -0.522  -0.497  -0.488  -0.478  -0.475  -0.463  -0.461
 -0.452  -0.447  -0.443  -0.430  -0.429  -0.419  -0.412  -0.409
 -0.404  -0.402  -0.396  -0.386  -0.368  -0.364  -0.358  -0.354
 -0.347  -0.340  -0.338  -0.335  -0.335  -0.330  -0.324  -0.323
 -0.320  -0.318  -0.311  -0.307  -0.303  -0.301  -0.284  -0.279
 -0.271  -0.263  -0.249  -0.245  -0.243  -0.239  -0.238  -0.195
 -0.184  -0.178  -0.166  -0.165  -0.163  -0.154  -0.152  -0.147
 -0.143

          Ground-State Mulliken Net Atomic Charges

     Atom                 Charge (a.u.)
  ----------------------------------------
      1 O                    -0.197534
      2 C                     0.173802
      3 C                    -0.075593
      4 C                    -0.087569
      5 C                     0.212976
      6 O                    -0.166946
      7 C                    -0.064994
      8 C                     0.039466
      9 O                    -0.166425
     10 C                     0.221721
     11 C                    -0.088227
     12 C                    -0.079855
     13 C                     0.216918
     14 O                    -0.214117
     15 O                    -0.178855
     16 O                    -0.176566
     17 O                    -0.185201
     18 C                    -0.128905
     19 C                     0.021401
     20 C                    -0.144532
     21 C                    -0.144239
     22 C                     0.025082
     23 O                    -0.185067
     24 H                     0.088453
     25 H                     0.083686
     26 H                     0.078944
     27 H                     0.079553
     28 H                     0.065761
     29 H                     0.080267
     30 H                     0.074223
     31 H                     0.092902
     32 O                    -0.196687
     33 C                    -0.134831
     34 C                     0.024328
     35 C                    -0.145580
     36 C                    -0.144558
     37 C                     0.025779
     38 O                    -0.182236
     39 H                     0.066450
     40 H                     0.080960
     41 H                     0.092093
     42 H                     0.089611
     43 H                     0.078931
     44 H                     0.068093
     45 H                     0.080346
     46 H                     0.071976
     47 H                     0.093960
     48 H                     0.085024
     49 H                     0.080346
     50 H                     0.087186
     51 H                     0.088400
     52 H                     0.092730
     53 H                     0.087407
     54 H                     0.072130
     55 H                     0.076595
     56 H                     0.091016
  ----------------------------------------
  Sum of atomic charges =     0.000000

                    Cartesian Multipole Moments
 -----------------------------------------------------------------
    Charge (ESU x 10^10)
                -0.0000
    Dipole Moment (Debye)
         X      -1.5105      Y       2.0839      Z      -2.1316
       Tot       3.3418
    Quadrupole Moments (Debye-Ang)
        XX    -201.3365     XY      -4.5866     YY    -152.7088
        XZ      13.7510     YZ       0.4907     ZZ    -157.7934

 Total job time:  107.84s(wall), 5143.53s(cpu)
        *  Thank you very much for using Q-Chem.  Have a nice day.  *
