 Q-Chem 5.0, Q-Chem, Inc., Pleasanton, CA (2017)
 Q-Chem 5.0.1 for Intel X86 EM64T Linux

User input:
--------------------------------------------------------------
$molecule
0  1
O 3.8375975341 -3.2042978365 0.4260940728
C 3.3035480261 -2.0961131648 0.1918324069
C 4.0738619344 -0.8728239598 -0.4168186345
C 3.3352690032 0.4999633122 -0.6871861715
C 1.9834964666 0.782084058 0.0624213731
O 1.0869070061 1.4771043115 -0.8486030179
C 0.6621411661 2.7652929461 -0.2482781011
C -0.581122575 2.6108183744 0.7091246919
O -1.8009427888 2.672991962 -0.1198919218
C -2.8323505783 1.7561813714 0.3335295212
C -2.4330799306 0.2414055027 0.1641310176
C -3.4985288077 -0.8254955721 0.6329096698
C -4.9881220395 -0.3325882111 0.7334068731
O -5.8128159385 -0.6666848077 1.6133504113
O 1.9010799145 -1.8514614584 0.3306467603
O -5.3409423112 0.3594615516 -0.4687069326
O -3.9387097561 2.1986598538 0.7033780898
C -6.7553490733 0.7885482794 -0.4076190426
C -2.1295475659 -0.222768599 -1.3309151485
C -1.0830769343 -1.4001447343 -1.2347911273
C -1.982370583 -2.5302996788 -0.6063169541
C -3.4039159902 -1.8360248652 -0.5982018298
O -3.3619821736 -0.9180176666 -1.760164798
H -1.513203674 0.0925694337 0.7570209078
H -3.2237591487 -1.2958897467 1.5926136425
H -1.8677483806 0.5969814892 -2.0277309396
H -0.7364323828 -1.6814999773 -2.2422043625
H -0.2052888208 -1.1426137246 -0.6190355626
H -1.9980913012 -3.4350826394 -1.23410957
H -1.66485568 -2.8129495997 0.4095365499
H -4.2626412005 -2.5298769449 -0.6858695368
O 1.7472465626 0.6369348863 1.2804110243
C 1.2298465809 -3.0497238632 0.8892402964
C 5.3053781886 -0.399756638 0.4809328851
C 6.4047544116 0.1771234884 -0.4917248755
C 5.7113898952 1.5100008926 -0.9593256045
C 4.4057424652 1.5097568626 -0.068326381
O 4.8080639941 0.8109295455 1.1729349227
H 4.468885949 -1.2475865199 -1.3802422941
H 3.1710525571 0.668693178 -1.7655776839
H 1.980758374 -3.727136256 1.3420622142
H 5.6587591563 -1.1544930808 1.2102804295
H 7.3352673596 0.3810126707 0.0620987683
H 6.6305395397 -0.5058490878 -1.3261306757
H 6.3312975187 2.3927070703 -0.7358984234
H 5.4728437936 1.5101396701 -2.0350541949
H 4.0037276447 2.5145003859 0.1663591666
H 0.6933190812 -3.5899063527 0.0840668083
H 0.5038082537 -2.7041761885 1.6491984816
H -6.9936663863 1.1953503714 -1.4074973908
H -6.9015174491 1.5788380069 0.3570412432
H -7.4320713347 -0.0590434026 -0.175638032
H -0.4675135399 1.6725292596 1.290120227
H -0.5934810253 3.4604105934 1.4308721862
H 0.3753127755 3.4162403716 -1.100346127
H 1.4958395592 3.2455385013 0.3077601549
$end

$rem
JOBTYPE                   OPT
METHOD                    B3LYP
DFT_D                     d3_op
BASIS                     STO-3G
GEOM_OPT_MAX_CYCLES       100
GEOM_OPT_TOL_GRADIENT     300
GEOM_OPT_TOL_DISPLACEMENT 1200
GEOM_OPT_TOL_ENERGY       100
SYMMETRY                  False
THRESH                    12
SCF_CONVERGENCE           8
MAX_SUB_FILE_NUM          128
MEM_STATIC                400
MEM_TOTAL                 4000
$end
--------------------------------------------------------------

   16   -1510.2426803003      4.62E-09 Convergence criterion met
 Total energy in the final basis set = -1510.24268030
   14   -1510.2410721198      6.68E-09 Convergence criterion met
 Total energy in the final basis set = -1510.24107212
   14   -1510.2530485808      4.65E-09 Convergence criterion met
 Total energy in the final basis set = -1510.25304858
   14   -1510.2576955676      4.41E-09 Convergence criterion met
 Total energy in the final basis set = -1510.25769557
   14   -1510.2626190732      1.99E-09 Convergence criterion met
 Total energy in the final basis set = -1510.26261907
   14   -1510.2658995467      2.56E-09 Convergence criterion met
 Total energy in the final basis set = -1510.26589955
   13   -1510.2686263386      6.89E-09 Convergence criterion met
 Total energy in the final basis set = -1510.26862634
   13   -1510.2705371311      5.45E-09 Convergence criterion met
   10   -1510.2837078952      8.03E-09 Convergence criterion met
 Total energy in the final basis set = -1510.28370790
   12   -1510.2837062281      2.08E-09 Convergence criterion met
 Total energy in the final basis set = -1510.28370623
   12   -1510.2837058744      5.03E-09 Convergence criterion met
 Total energy in the final basis set = -1510.28370587
   11   -1510.2837127841      5.68E-09 Convergence criterion met
 Total energy in the final basis set = -1510.28371278
   11   -1510.2837210473      7.44E-09 Convergence criterion met
 Total energy in the final basis set = -1510.28372105
   10   -1510.2837249602      7.36E-09 Convergence criterion met
 Total energy in the final basis set = -1510.28372496

             Standard Nuclear Orientation (Angstroms)
    I     Atom           X                Y                Z
 ----------------------------------------------------------------
    1      O       3.7197116622    -1.4323594175     2.3086311497
    2      C       2.9407308524    -1.2080700759     1.3608610409
    3      C       3.3087834734    -0.8209875144    -0.1166720142
    4      C       2.7971820506     0.6130900900    -0.5594087550
    5      C       2.0738061601     1.3663797547     0.5983495721
    6      O       0.9860432648     2.1370534425     0.0612585870
    7      C       0.2869565969     2.8423649977     1.1629374220
    8      C      -0.6043968449     1.8753153745     2.0496133814
    9      O      -2.0397296435     2.0852336594     1.7832930969
   10      C      -2.6952542268     1.1895663827     0.8732282687
   11      C      -2.0014957580    -0.1422304499     0.3965825547
   12      C      -3.0588495679    -1.1611969007    -0.2065101615
   13      C      -4.5591806484    -0.6740484166    -0.1558579471
   14      O      -5.3599292809    -0.8701492859     0.7851178523
   15      O       1.5097280053    -1.3561075081     1.4508917051
   16      O      -4.9246495633    -0.1243494527    -1.4291012171
   17      O      -3.8583047720     1.5186976060     0.5396371492
   18      C      -6.3165333546     0.3715493164    -1.3734786333
   19      C      -1.0495395455     0.0849356081    -0.8645268307
   20      C      -0.1559480306    -1.2011343832    -1.0582267266
   21      C      -1.2070024744    -2.2262862373    -1.6159892113
   22      C      -2.5037376246    -1.3247458955    -1.6811531184
   23      O      -1.9854715799     0.0263074669    -2.0071891379
   24      H      -1.4540422749    -0.6073824144     1.2339623510
   25      H      -3.0162815216    -2.1144180330     0.3501993890
   26      H      -0.4741948316     1.0349019472    -0.8375297130
   27      H       0.6158084770    -0.9941210369    -1.8154425350
   28      H       0.3442961485    -1.5052283911    -0.1192494202
   29      H      -0.9298479310    -2.5823994353    -2.6209995384
   30      H      -1.3456632218    -3.1007621219    -0.9602922059
   31      H      -3.2640216070    -1.6344487547    -2.4230101562
   32      O       2.3629688200     1.3339284540     1.8150833999
   33      C       1.1196760765    -1.7039991183     2.8350328916
   34      C       4.8754510732    -0.6562788844    -0.2928364494
   35      C       5.2058474879    -0.7050424143    -1.8352156591
   36      C       4.6823324714     0.7040312801    -2.3009399245
   37      C       4.1800313221     1.3123745232    -0.9325342196
   38      O       5.1164173686     0.7606489611     0.0691189422
   39      H       2.9006635466    -1.5990074676    -0.7869978906
   40      H       2.1227528642     0.5651927079    -1.4305390615
   41      H       1.3379290221    -0.8700514482     3.5334821697
   42      H       5.4737755181    -1.3258892542     0.3550430135
   43      H       6.2913731807    -0.8052204916    -1.9935530567
   44      H       4.6948489761    -1.5384524026    -2.3434622773
   45      H       5.4938207867     1.3202760050    -2.7192101671
   46      H       3.8721637486     0.6332263690    -3.0442618386
   47      H       4.1624964305     2.4186612714    -0.8849224445
   48      H       1.6463948578    -2.6115509440     3.1927909318
   49      H       0.0304297269    -1.8930748041     2.8108189336
   50      H      -6.5535970171     0.7348194918    -2.3904522995
   51      H      -6.4148315288     1.2053150733    -0.6485878294
   52      H      -7.0281457353    -0.4306278502    -1.0884487275
   53      H      -0.2733984201     0.8278720147     1.9075416266
   54      H      -0.4599840987     2.1393803662     3.1177967117
   55      H      -0.3664616264     3.5929479790     0.6737016057
   56      H       1.0236205620     3.3603020325     1.8118315749
 ----------------------------------------------------------------

    9   -1510.2837242613      4.39E-09 Convergence criterion met
 Total energy in the final basis set = -1510.28372426
 Final energy is   -1510.28372426126
 **  OPTIMIZATION CONVERGED  **

                    Orbital Energies (a.u.)
 --------------------------------------------------------------

 Alpha MOs
 -- Occupied --
-18.956 -18.946 -18.941 -18.914 -18.898 -18.895 -18.890 -18.885
-18.883 -18.848 -10.117 -10.112 -10.107 -10.087 -10.086 -10.084
-10.076 -10.072 -10.067 -10.053 -10.052 -10.051 -10.048 -10.047
-10.039 -10.029 -10.029 -10.027 -10.015 -10.008  -1.033  -1.021
 -1.014  -0.991  -0.980  -0.965  -0.956  -0.948  -0.943  -0.916
 -0.775  -0.758  -0.735  -0.724  -0.717  -0.710  -0.702  -0.674
 -0.646  -0.629  -0.599  -0.596  -0.557  -0.547  -0.543  -0.535
 -0.523  -0.512  -0.492  -0.485  -0.475  -0.466  -0.457  -0.448
 -0.443  -0.436  -0.431  -0.423  -0.421  -0.412  -0.404  -0.399
 -0.396  -0.393  -0.388  -0.375  -0.368  -0.361  -0.360  -0.353
 -0.352  -0.344  -0.338  -0.333  -0.330  -0.325  -0.320  -0.320
 -0.314  -0.313  -0.307  -0.302  -0.299  -0.296  -0.286  -0.278
 -0.271  -0.266  -0.261  -0.249  -0.243  -0.236  -0.228  -0.204
 -0.190  -0.174  -0.172  -0.164  -0.156  -0.154  -0.154  -0.141
 -0.132

          Ground-State Mulliken Net Atomic Charges

     Atom                 Charge (a.u.)
  ----------------------------------------
      1 O                    -0.201656
      2 C                     0.217930
      3 C                    -0.079590
      4 C                    -0.079511
      5 C                     0.211195
      6 O                    -0.169910
      7 C                    -0.052860
      8 C                    -0.049922
      9 O                    -0.169825
     10 C                     0.213130
     11 C                    -0.084872
     12 C                    -0.079973
     13 C                     0.214473
     14 O                    -0.226720
     15 O                    -0.179701
     16 O                    -0.170268
     17 O                    -0.191451
     18 C                    -0.126994
     19 C                     0.012495
     20 C                    -0.157687
     21 C                    -0.146093
     22 C                     0.025866
     23 O                    -0.188494
     24 H                     0.076786
     25 H                     0.079916
     26 H                     0.090147
     27 H                     0.065079
     28 H                     0.088742
     29 H                     0.073955
     30 H                     0.070433
     31 H                     0.088483
     32 O                    -0.209530
     33 C                    -0.129974
     34 C                     0.025266
     35 C                    -0.143791
     36 C                    -0.143594
     37 C                     0.026481
     38 O                    -0.185695
     39 H                     0.087298
     40 H                     0.090270
     41 H                     0.093981
     42 H                     0.091917
     43 H                     0.080291
     44 H                     0.074334
     45 H                     0.080411
     46 H                     0.075487
     47 H                     0.084564
     48 H                     0.094067
     49 H                     0.087055
     50 H                     0.086093
     51 H                     0.092512
     52 H                     0.084819
     53 H                     0.091565
     54 H                     0.095787
     55 H                     0.101113
     56 H                     0.096169
  ----------------------------------------
  Sum of atomic charges =     0.000000

                    Cartesian Multipole Moments
 -----------------------------------------------------------------
    Charge (ESU x 10^10)
                -0.0000
    Dipole Moment (Debye)
         X       2.6693      Y      -1.3362      Z      -1.3326
       Tot       3.2690
    Quadrupole Moments (Debye-Ang)
        XX    -180.9810     XY       2.2210     YY    -154.1389
        XZ      -6.7300     YZ       1.2425     ZZ    -161.2845

 Total job time:  125.22s(wall), 5976.65s(cpu)
        *  Thank you very much for using Q-Chem.  Have a nice day.  *
