 Q-Chem 5.0, Q-Chem, Inc., Pleasanton, CA (2017)
 Q-Chem 5.0.1 for Intel X86 EM64T Linux

User input:
--------------------------------------------------------------
$molecule
0  1
O -3.94934 -3.66094 2.70899
C -3.26408 -4.56952 2.26188
C -3.36658 -6.02376 2.66595
C -2.40867 -7.01244 1.98128
C -1.33566 -6.41165 1.10049
O -1.14507 -7.19749 -0.00021
C 0.20761 -7.64241 -0.14708
C 1.03125 -6.5879 -0.87902
O 0.88991 -6.75493 -2.29853
C 0.83074 -5.60672 -3.01774
C -0.41317 -4.79853 -2.73457
C -0.5271 -3.48717 -3.52553
C 0.40329 -3.34928 -4.71384
O 0.96317 -2.31906 -5.0599
O -2.48023 -4.19236 1.21846
O 0.40164 -4.38025 -5.60801
O 1.79739 -5.27029 -3.68211
C 1.09504 -4.38697 -6.80069
C -1.7109 -5.51141 -3.17768
C -2.89919 -4.96205 -2.39126
C -3.01028 -3.57076 -2.98371
C -1.95295 -3.6618 -4.0905
O -1.9704 -5.01774 -4.46644
H -0.49465 -4.58587 -1.65084
H -0.42866 -2.57259 -2.89966
H -1.66552 -6.6179 -3.0784
H -3.79008 -5.55316 -2.70343
H -2.80917 -5.00649 -1.28702
H -4.03007 -3.4541 -3.41275
H -2.79153 -2.73312 -2.28803
H -2.17219 -2.9312 -4.90078
O -0.47343 -5.65661 1.54172
C -2.33125 -2.90221 0.7467
C -2.96377 -6.2198 4.13951
C -3.56908 -7.51563 4.6788
C -2.70694 -8.54252 3.97564
C -1.73662 -7.62431 3.22635
O -1.59156 -6.51954 4.08496
H -4.43239 -6.31114 2.52385
H -2.95916 -7.79071 1.404
H -1.93281 -2.24577 1.54931
H -3.25216 -5.36409 4.78893
H -3.35235 -7.56048 5.77014
H -4.66332 -7.62007 4.51541
H -2.15518 -9.12504 4.7469
H -3.24847 -9.23431 3.29487
H -0.80272 -8.17458 2.97609
H -3.30605 -2.5103 0.38596
H -1.61116 -2.90468 -0.09629
H 0.91498 -5.35045 -7.31998
H 2.18429 -4.28117 -6.60952
H 0.74476 -3.55841 -7.4525
H 0.96534 -5.55684 -0.47672
H 2.08407 -6.88248 -0.67879
H 0.24239 -8.60814 -0.69505
H 0.65588 -7.84393 0.85529
$end

$opt
CONSTRAINT
tors           1           2           3           4    -180.000
tors           3           4           5           6    -142.105
tors           4           5           6           7    -123.158
tors           5           6           7           8     -85.263
tors           6           7           8           9     -85.263
tors           7           8           9          10    +142.105
tors           8           9          10          11     -66.316
tors           9          10          11          12    -180.000
tors          11          12          13          14    -142.105
ENDCONSTRAINT
$end

$rem
JOBTYPE                   OPT
METHOD                    B3LYP
DFT_D                     d3_op
BASIS                     STO-3G
GEOM_OPT_MAX_CYCLES       100
GEOM_OPT_TOL_GRADIENT     300
GEOM_OPT_TOL_DISPLACEMENT 1200
GEOM_OPT_TOL_ENERGY       100
SYMMETRY                  False
THRESH                    12
SCF_CONVERGENCE           8
MAX_SUB_FILE_NUM          128
MEM_STATIC                400
MEM_TOTAL                 4000
$end
--------------------------------------------------------------

   15   -1510.1004719015      8.83E-09 Convergence criterion met
 Total energy in the final basis set = -1510.10047190
   13   -1510.1739446897      9.84E-09 Convergence criterion met
 Total energy in the final basis set = -1510.17394469
   14   -1510.2138237926      2.16E-09 Convergence criterion met
 Total energy in the final basis set = -1510.21382379
    2   -1510.2138237927      4.59E-09 Convergence criterion met
 Total energy in the final basis set = -1510.21382379
   13   -1510.2319339329      9.92E-09 Convergence criterion met
 Total energy in the final basis set = -1510.23193393
   13   -1510.2382986109      5.51E-09 Convergence criterion met
 Total energy in the final basis set = -1510.23829861
   13   -1510.2403126630      4.88E-09 Convergence criterion met
 Total energy in the final basis set = -1510.24031266
   13   -1510.2407258076      6.12E-09 Convergence criterion met
   14   -1510.2369618189      9.92E-09 Convergence criterion met
 Total energy in the final basis set = -1510.23696182
   13   -1510.2424834683      9.85E-09 Convergence criterion met
 Total energy in the final basis set = -1510.24248347
   12   -1510.2425733189      9.01E-09 Convergence criterion met
 Total energy in the final basis set = -1510.24257332
   11   -1510.2425857947      5.14E-09 Convergence criterion met
 Total energy in the final basis set = -1510.24258579
   11   -1510.2425933264      6.89E-09 Convergence criterion met
 Total energy in the final basis set = -1510.24259333
    9   -1510.2425944668      4.82E-09 Convergence criterion met
 Total energy in the final basis set = -1510.24259447

             Standard Nuclear Orientation (Angstroms)
    I     Atom           X                Y                Z
 ----------------------------------------------------------------
    1      O       3.8375975341    -3.2042978365     0.4260940728
    2      C       3.3035480261    -2.0961131648     0.1918324069
    3      C       4.0738619344    -0.8728239598    -0.4168186345
    4      C       3.3352690032     0.4999633122    -0.6871861715
    5      C       1.9834964666     0.7820840580     0.0624213731
    6      O       1.0869070061     1.4771043115    -0.8486030179
    7      C       0.6621411661     2.7652929461    -0.2482781011
    8      C      -0.5811225750     2.6108183744     0.7091246919
    9      O      -1.8009427888     2.6729919620    -0.1198919218
   10      C      -2.8323505783     1.7561813714     0.3335295212
   11      C      -2.4330799306     0.2414055027     0.1641310176
   12      C      -3.4985288077    -0.8254955721     0.6329096698
   13      C      -4.9881220395    -0.3325882111     0.7334068731
   14      O      -5.8128159385    -0.6666848077     1.6133504113
   15      O       1.9010799145    -1.8514614584     0.3306467603
   16      O      -5.3409423112     0.3594615516    -0.4687069326
   17      O      -3.9387097561     2.1986598538     0.7033780898
   18      C      -6.7553490733     0.7885482794    -0.4076190426
   19      C      -2.1295475659    -0.2227685990    -1.3309151485
   20      C      -1.0830769343    -1.4001447343    -1.2347911273
   21      C      -1.9823705830    -2.5302996788    -0.6063169541
   22      C      -3.4039159902    -1.8360248652    -0.5982018298
   23      O      -3.3619821736    -0.9180176666    -1.7601647980
   24      H      -1.5132036740     0.0925694337     0.7570209078
   25      H      -3.2237591487    -1.2958897467     1.5926136425
   26      H      -1.8677483806     0.5969814892    -2.0277309396
   27      H      -0.7364323828    -1.6814999773    -2.2422043625
   28      H      -0.2052888208    -1.1426137246    -0.6190355626
   29      H      -1.9980913012    -3.4350826394    -1.2341095700
   30      H      -1.6648556800    -2.8129495997     0.4095365499
   31      H      -4.2626412005    -2.5298769449    -0.6858695368
   32      O       1.7472465626     0.6369348863     1.2804110243
   33      C       1.2298465809    -3.0497238632     0.8892402964
   34      C       5.3053781886    -0.3997566380     0.4809328851
   35      C       6.4047544116     0.1771234884    -0.4917248755
   36      C       5.7113898952     1.5100008926    -0.9593256045
   37      C       4.4057424652     1.5097568626    -0.0683263810
   38      O       4.8080639941     0.8109295455     1.1729349227
   39      H       4.4688859490    -1.2475865199    -1.3802422941
   40      H       3.1710525571     0.6686931780    -1.7655776839
   41      H       1.9807583740    -3.7271362560     1.3420622142
   42      H       5.6587591563    -1.1544930808     1.2102804295
   43      H       7.3352673596     0.3810126707     0.0620987683
   44      H       6.6305395397    -0.5058490878    -1.3261306757
   45      H       6.3312975187     2.3927070703    -0.7358984234
   46      H       5.4728437936     1.5101396701    -2.0350541949
   47      H       4.0037276447     2.5145003859     0.1663591666
   48      H       0.6933190812    -3.5899063527     0.0840668083
   49      H       0.5038082537    -2.7041761885     1.6491984816
   50      H      -6.9936663863     1.1953503714    -1.4074973908
   51      H      -6.9015174491     1.5788380069     0.3570412432
   52      H      -7.4320713347    -0.0590434026    -0.1756380320
   53      H      -0.4675135399     1.6725292596     1.2901202270
   54      H      -0.5934810253     3.4604105934     1.4308721862
   55      H       0.3753127755     3.4162403716    -1.1003461270
   56      H       1.4958395592     3.2455385013     0.3077601549
 ----------------------------------------------------------------

    9   -1510.2425949596      4.65E-09 Convergence criterion met
 Total energy in the final basis set = -1510.24259496
 Final energy is   -1510.24259495961
 **  OPTIMIZATION CONVERGED  **

                    Orbital Energies (a.u.)
 --------------------------------------------------------------

 Alpha MOs
 -- Occupied --
-18.945 -18.921 -18.917 -18.907 -18.899 -18.899 -18.895 -18.888
-18.880 -18.859 -10.110 -10.109 -10.106 -10.088 -10.078 -10.073
-10.072 -10.068 -10.067 -10.059 -10.058 -10.051 -10.047 -10.046
-10.034 -10.033 -10.030 -10.027 -10.020 -10.016  -1.021  -1.012
 -1.006  -0.996  -0.981  -0.969  -0.946  -0.942  -0.935  -0.922
 -0.771  -0.761  -0.731  -0.720  -0.718  -0.708  -0.700  -0.668
 -0.650  -0.617  -0.599  -0.591  -0.552  -0.546  -0.544  -0.537
 -0.523  -0.512  -0.487  -0.481  -0.469  -0.462  -0.453  -0.442
 -0.437  -0.434  -0.420  -0.416  -0.416  -0.412  -0.406  -0.400
 -0.394  -0.391  -0.382  -0.374  -0.364  -0.359  -0.355  -0.347
 -0.343  -0.341  -0.340  -0.334  -0.333  -0.329  -0.322  -0.322
 -0.315  -0.313  -0.306  -0.303  -0.298  -0.297  -0.286  -0.281
 -0.271  -0.258  -0.246  -0.243  -0.241  -0.240  -0.230  -0.185
 -0.179  -0.166  -0.164  -0.160  -0.159  -0.154  -0.149  -0.141
 -0.138

          Ground-State Mulliken Net Atomic Charges

     Atom                 Charge (a.u.)
  ----------------------------------------
      1 O                    -0.216423
      2 C                     0.211247
      3 C                    -0.079956
      4 C                    -0.079290
      5 C                     0.218227
      6 O                    -0.189989
      7 C                    -0.047924
      8 C                    -0.049688
      9 O                    -0.193706
     10 C                     0.220894
     11 C                    -0.084759
     12 C                    -0.079798
     13 C                     0.211183
     14 O                    -0.219713
     15 O                    -0.168524
     16 O                    -0.163175
     17 O                    -0.178411
     18 C                    -0.126719
     19 C                     0.026993
     20 C                    -0.145067
     21 C                    -0.146642
     22 C                     0.026168
     23 O                    -0.184302
     24 H                     0.080409
     25 H                     0.083258
     26 H                     0.089073
     27 H                     0.076091
     28 H                     0.081404
     29 H                     0.076124
     30 H                     0.071270
     31 H                     0.082368
     32 O                    -0.195239
     33 C                    -0.133634
     34 C                     0.026362
     35 C                    -0.142076
     36 C                    -0.144715
     37 C                     0.025763
     38 O                    -0.185975
     39 H                     0.086801
     40 H                     0.088489
     41 H                     0.103369
     42 H                     0.089442
     43 H                     0.080032
     44 H                     0.075859
     45 H                     0.079981
     46 H                     0.075514
     47 H                     0.079578
     48 H                     0.087391
     49 H                     0.088436
     50 H                     0.089109
     51 H                     0.089783
     52 H                     0.087385
     53 H                     0.091042
     54 H                     0.081328
     55 H                     0.095735
     56 H                     0.079616
  ----------------------------------------
  Sum of atomic charges =    -0.000000

                    Cartesian Multipole Moments
 -----------------------------------------------------------------
    Charge (ESU x 10^10)
                -0.0000
    Dipole Moment (Debye)
         X       3.7309      Y      -0.0037      Z      -1.5603
       Tot       4.0441
    Quadrupole Moments (Debye-Ang)
        XX    -166.0741     XY      10.0481     YY    -157.4177
        XZ      -4.1994     YZ      -0.3277     ZZ    -165.4432

 Total job time:  86.91s(wall), 4144.66s(cpu)
        *  Thank you very much for using Q-Chem.  Have a nice day.  *
