 Q-Chem 5.0, Q-Chem, Inc., Pleasanton, CA (2017)
 Q-Chem 5.0.1 for Intel X86 EM64T Linux

User input:
--------------------------------------------------------------
$molecule
0  1
O -5.2924754532 -2.31995614 1.5871718578
C -4.6101970985 -1.6354150241 0.792066839
C -3.6500666219 -0.4553238407 1.1952272106
C -2.6546695392 0.0786355293 0.0932175895
C -2.1717792954 -0.9127910762 -1.0277433088
O -1.4127917538 -0.1852248062 -2.0544586902
C 0.020020639 -0.2431847713 -1.698807438
C 0.7168671996 0.9612857231 -2.4428055817
O 2.1826999581 0.8012745824 -2.6064928395
C 2.7306369181 0.1867148326 -1.4053822253
C 2.9554196067 1.1927346807 -0.2166138338
C 3.2896792184 0.4719322318 1.1540604222
C 3.0470845136 -1.0830813008 1.0956552818
O 1.9270416961 -1.6412224506 1.1314149896
O -4.8082776786 -1.6379664667 -0.622881402
O 4.296695539 -1.7748658465 1.0807901813
O 3.1406735407 -0.9932303354 -1.4218592036
C 4.0613474914 -3.2290409719 0.9316738975
C 4.31656484 1.9778526662 -0.4757158137
C 4.4156719345 3.1722905165 0.5546994805
C 4.801109169 2.405606475 1.8741723755
C 4.7989844677 0.9100516517 1.3679699844
O 5.3381574808 1.0157375088 -0.0088877512
H 2.0959808203 1.8802207949 -0.1356069724
H 2.6427835569 0.8706229532 1.9564412268
H 4.4884217302 2.2513514156 -1.5352634664
H 5.2037138018 3.8789642002 0.2493596471
H 3.4643425232 3.7212522637 0.6431591423
H 5.8053230093 2.6906269873 2.2264709846
H 4.0799739234 2.5706355858 2.6903226645
H 5.4016165511 0.1999819111 1.9653600829
O -2.3370514648 -2.1458102828 -1.0768410862
C -5.8128470728 -2.6586647504 -0.9950873281
C -4.5961681523 0.8263750441 1.3186438469
C -3.7840790983 2.061032261 1.8830124093
C -3.0159330321 2.5457276198 0.5962836463
C -3.3953879777 1.394800975 -0.4132553634
O -4.8242308299 1.1619123661 -0.1078729836
H -3.1417830212 -0.7080437699 2.1420125974
H -1.7184619867 0.3862405539 0.5978897816
H -6.7755570034 -2.4944232025 -0.4692654964
H -5.5585532071 0.6275216395 1.8295209162
H -4.4702833304 2.8337103767 2.2642618916
H -3.1023418754 1.7644755935 2.6966669028
H -3.4038790429 3.5128275931 0.2374657559
H -1.9288389559 2.6344120836 0.7513775352
H -3.2465133668 1.621586869 -1.4867419528
H -5.4547799439 -3.6831515388 -0.7658661385
H -5.9600945352 -2.5552469568 -2.0858475337
H 5.0586531924 -3.7048064199 0.9629982215
H 3.5717773523 -3.454957216 -0.0376518777
H 3.4296102232 -3.6288777352 1.7510841253
H 0.3056099307 1.0363843839 -3.471094821
H 0.4741671586 1.9086615707 -1.9079655889
H 0.4767273474 -1.2023973453 -2.0381901702
H 0.1926049869 -0.1597242513 -0.6020603622
$end

$rem
JOBTYPE                   OPT
METHOD                    B3LYP
DFT_D                     d3_op
BASIS                     STO-3G
GEOM_OPT_MAX_CYCLES       100
GEOM_OPT_TOL_GRADIENT     300
GEOM_OPT_TOL_DISPLACEMENT 1200
GEOM_OPT_TOL_ENERGY       100
SYMMETRY                  False
THRESH                    12
SCF_CONVERGENCE           8
MAX_SUB_FILE_NUM          128
MEM_STATIC                400
MEM_TOTAL                 4000
$end
--------------------------------------------------------------

   16   -1510.2346237607      3.97E-09 Convergence criterion met
 Total energy in the final basis set = -1510.23462376
   13   -1510.2376293647      6.67E-09 Convergence criterion met
 Total energy in the final basis set = -1510.23762936
   13   -1510.2405147535      9.02E-09 Convergence criterion met
 Total energy in the final basis set = -1510.24051475
   14   -1510.2433445780      2.49E-09 Convergence criterion met
 Total energy in the final basis set = -1510.24334458
   14   -1510.2457751875      3.00E-09 Convergence criterion met
 Total energy in the final basis set = -1510.24577519
   14   -1510.2479224147      2.03E-09 Convergence criterion met
 Total energy in the final basis set = -1510.24792241
   13   -1510.2501950483      2.88E-09 Convergence criterion met
 Total energy in the final basis set = -1510.25019505
   13   -1510.2521791988      5.40E-09 Convergence criterion met
   12   -1510.2765870654      3.17E-09 Convergence criterion met
 Total energy in the final basis set = -1510.27658707
   11   -1510.2765927244      4.24E-09 Convergence criterion met
 Total energy in the final basis set = -1510.27659272
   10   -1510.2765926289      8.66E-09 Convergence criterion met
 Total energy in the final basis set = -1510.27659263
   11   -1510.2765851488      8.76E-09 Convergence criterion met
 Total energy in the final basis set = -1510.27658515
   11   -1510.2765785203      5.41E-09 Convergence criterion met
 Total energy in the final basis set = -1510.27657852
    9   -1510.2765774908      4.58E-09 Convergence criterion met
 Total energy in the final basis set = -1510.27657749

             Standard Nuclear Orientation (Angstroms)
    I     Atom           X                Y                Z
 ----------------------------------------------------------------
    1      O      -4.0767782742     1.2348516647    -1.8091984543
    2      C      -3.4121471998     1.0468802917    -0.7667452175
    3      C      -3.2695677314    -0.3215598572     0.0066223735
    4      C      -1.8800011454    -1.0690969591    -0.1891138468
    5      C      -0.9873362458    -0.3416748434    -1.2610766295
    6      O       0.1554904974    -1.0077765021    -1.8198658516
    7      C       0.7846068806    -2.0886224348    -1.0203084514
    8      C       2.2027748424    -2.3133545763    -1.6801242640
    9      O       3.3565100877    -1.8010316144    -0.9099438121
   10      C       3.5653949487    -0.3666190413    -0.9019094589
   11      C       2.3315442186     0.5977715401    -1.0729988628
   12      C       1.6325625885     0.9167757949     0.3257607714
   13      C       2.1067614041    -0.0330344501     1.4655116200
   14      O       1.5996563201    -1.1644841851     1.7106323307
   15      O      -2.8071564056     2.0960062327     0.0069495593
   16      O       3.2083780742     0.5033953195     2.1694796204
   17      O       4.7269615812     0.0158811166    -0.6417902735
   18      C       3.6951805424    -0.4653011392     3.1836380804
   19      C       2.7915972875     2.0531747429    -1.4858504607
   20      C       1.4943487628     2.8865770456    -1.8487381417
   21      C       0.9420683661     3.2392374074    -0.4178126782
   22      C       1.9667896618     2.4593697136     0.4951737187
   23      O       3.2557425632     2.6390391821    -0.2065100606
   24      H       1.5755283816     0.1642770604    -1.7572690993
   25      H       0.5416251956     0.7774635784     0.2382770804
   26      H       3.6041874512     2.0808052131    -2.2373911535
   27      H       1.7565944224     3.7899051321    -2.4213500078
   28      H       0.7729954718     2.2870529491    -2.4287573977
   29      H       0.9957484851     4.3211190602    -0.2174151752
   30      H      -0.0945823073     2.8964491947    -0.2693049679
   31      H       2.0395715940     2.8058302430     1.5438586613
   32      O      -1.2544759281     0.7732366687    -1.7725491400
   33      C      -2.9204891852     3.3741787302    -0.7287124381
   34      C      -3.2794293138    -0.1104072342     1.5785860485
   35      C      -3.5356531527    -1.5041273883     2.2763711939
   36      C      -2.1358076306    -2.1957661077     2.0923346928
   37      C      -1.3353646392    -1.0761496506     1.3165245195
   38      O      -1.8603981996     0.1806902569     1.8852645268
   39      H      -4.1012531621    -0.9663821051    -0.3284416043
   40      H      -2.0395952139    -2.1053171362    -0.5399472501
   41      H      -3.9760472420     3.6233983455    -0.9614582000
   42      H      -3.9286641697     0.7173376179     1.9222498593
   43      H      -3.7805195561    -1.3625452759     3.3410054719
   44      H      -4.3553189542    -2.0629333457     1.7970860619
   45      H      -1.6549222043    -2.3997934835     3.0621557567
   46      H      -2.1954614389    -3.1381681201     1.5247360413
   47      H      -0.2298955938    -1.1257705065     1.4478647075
   48      H      -2.3483852971     3.3410167621    -1.6785919651
   49      H      -2.4930160904     4.1490012946    -0.0660470063
   50      H       4.5288157447     0.0397788790     3.7046237545
   51      H       4.0617045703    -1.3942880768     2.7018352971
   52      H       2.8978787727    -0.7259890744     3.9086561396
   53      H       2.3976719855    -3.4032510452    -1.7496876936
   54      H       2.1801067681    -1.9003919398    -2.7131029100
   55      H       0.1799324964    -3.0181304369    -1.0842853663
   56      H       0.9367182854    -1.8084441084     0.0509760288
 ----------------------------------------------------------------

    9   -1510.2765781171      3.17E-09 Convergence criterion met
 Total energy in the final basis set = -1510.27657812
 Final energy is   -1510.27657811710
 **  OPTIMIZATION CONVERGED  **

                    Orbital Energies (a.u.)
 --------------------------------------------------------------

 Alpha MOs
 -- Occupied --
-18.965 -18.952 -18.925 -18.918 -18.899 -18.896 -18.889 -18.883
-18.878 -18.856 -10.122 -10.120 -10.097 -10.090 -10.082 -10.077
-10.076 -10.060 -10.057 -10.054 -10.053 -10.053 -10.046 -10.040
-10.035 -10.026 -10.021 -10.020 -10.012 -10.010  -1.033  -1.027
 -1.003  -0.997  -0.972  -0.965  -0.957  -0.955  -0.934  -0.922
 -0.765  -0.763  -0.724  -0.719  -0.717  -0.707  -0.702  -0.671
 -0.652  -0.612  -0.602  -0.596  -0.550  -0.548  -0.540  -0.534
 -0.526  -0.513  -0.495  -0.483  -0.472  -0.465  -0.456  -0.445
 -0.436  -0.434  -0.426  -0.423  -0.417  -0.412  -0.405  -0.402
 -0.398  -0.394  -0.385  -0.382  -0.370  -0.364  -0.359  -0.346
 -0.345  -0.335  -0.334  -0.330  -0.327  -0.327  -0.317  -0.310
 -0.309  -0.307  -0.304  -0.300  -0.296  -0.290  -0.285  -0.281
 -0.276  -0.267  -0.257  -0.243  -0.239  -0.235  -0.228  -0.200
 -0.191  -0.174  -0.172  -0.164  -0.162  -0.146  -0.146  -0.139
 -0.138

          Ground-State Mulliken Net Atomic Charges

     Atom                 Charge (a.u.)
  ----------------------------------------
      1 O                    -0.223055
      2 C                     0.213700
      3 C                    -0.081253
      4 C                    -0.086180
      5 C                     0.211993
      6 O                    -0.175583
      7 C                    -0.067034
      8 C                    -0.048801
      9 O                    -0.178008
     10 C                     0.198617
     11 C                    -0.099704
     12 C                    -0.084164
     13 C                     0.218217
     14 O                    -0.223723
     15 O                    -0.173427
     16 O                    -0.149086
     17 O                    -0.191441
     18 C                    -0.125868
     19 C                     0.025702
     20 C                    -0.146814
     21 C                    -0.144664
     22 C                     0.027046
     23 O                    -0.185137
     24 H                     0.104797
     25 H                     0.086709
     26 H                     0.084860
     27 H                     0.075751
     28 H                     0.082296
     29 H                     0.075447
     30 H                     0.082453
     31 H                     0.086535
     32 O                    -0.192675
     33 C                    -0.128865
     34 C                     0.026759
     35 C                    -0.145152
     36 C                    -0.144148
     37 C                     0.006065
     38 O                    -0.190734
     39 H                     0.082974
     40 H                     0.081408
     41 H                     0.086572
     42 H                     0.086286
     43 H                     0.077497
     44 H                     0.073082
     45 H                     0.078054
     46 H                     0.070099
     47 H                     0.100341
     48 H                     0.090759
     49 H                     0.086249
     50 H                     0.099408
     51 H                     0.097575
     52 H                     0.093398
     53 H                     0.092843
     54 H                     0.089944
     55 H                     0.081237
     56 H                     0.110842
  ----------------------------------------
  Sum of atomic charges =    -0.000000

                    Cartesian Multipole Moments
 -----------------------------------------------------------------
    Charge (ESU x 10^10)
                -0.0000
    Dipole Moment (Debye)
         X      -1.8200      Y      -2.6394      Z       1.4541
       Tot       3.5205
    Quadrupole Moments (Debye-Ang)
        XX    -178.9658     XY      -0.3123     YY    -152.5896
        XZ      -3.1672     YZ       1.0992     ZZ    -156.9980

 Total job time:  212.12s(wall), 10114.07s(cpu)
        *  Thank you very much for using Q-Chem.  Have a nice day.  *
