 Q-Chem 5.0, Q-Chem, Inc., Pleasanton, CA (2017)
 Q-Chem 5.0.1 for Intel X86 EM64T Linux

User input:
--------------------------------------------------------------
$molecule
0  1
O -3.94934 -3.66094 2.70899
C -3.26408 -4.56952 2.26188
C -3.36658 -6.02376 2.66595
C -2.63438 -7.05063 1.78659
C -1.7357 -6.49335 0.70496
O -1.02202 -7.50482 0.1279
C -1.65735 -8.05138 -1.03265
C -1.13359 -9.45758 -1.30548
O -1.37956 -9.81433 -2.67482
C -2.56426 -9.39347 -3.18327
C -3.72161 -10.28035 -2.79002
C -5.11121 -9.71381 -3.1161
C -5.13902 -8.54801 -4.08401
O -4.83332 -7.39544 -3.81437
O -2.01538 -4.1596 1.89637
O -5.60025 -8.78981 -5.34348
O -2.52661 -8.8956 -4.2982
C -5.70158 -7.83924 -6.33794
C -3.76246 -11.62623 -3.53989
C -4.51067 -12.65403 -2.69455
C -5.92236 -12.11013 -2.77856
C -5.71726 -10.97059 -3.78684
O -4.65959 -11.41616 -4.60058
H -3.63174 -10.48307 -1.69981
H -5.69416 -9.41079 -2.21886
H -2.75626 -12.00969 -3.81704
H -4.46515 -13.61797 -3.25079
H -4.12437 -12.81008 -1.66427
H -6.57879 -12.90593 -3.19513
H -6.34211 -11.72741 -1.82303
H -6.67651 -10.75274 -4.30602
O -2.16824 -5.62416 -0.04451
C -1.63117 -2.85096 1.67642
C -2.67767 -6.27287 4.02123
C -3.24473 -7.53364 4.67103
C -2.63494 -8.60178 3.78915
C -1.76944 -7.73885 2.86478
O -1.3714 -6.66439 3.67964
H -4.45305 -6.24883 2.75703
H -3.34886 -7.7546 1.30559
H -1.75351 -2.25119 2.60344
H -2.76296 -5.41079 4.71911
H -2.79508 -7.61429 5.68667
H -4.35239 -7.56137 4.75597
H -1.99092 -9.25257 4.42182
H -3.36078 -9.22345 3.22151
H -0.94732 -8.35585 2.44171
H -2.2385 -2.409 0.85781
H -0.56278 -2.83187 1.37933
H -6.1046 -8.31471 -7.2555
H -4.69986 -7.41557 -6.5647
H -6.39132 -7.02731 -6.02296
H -0.0306 -9.46171 -1.17465
H -1.5645 -10.19395 -0.59398
H -1.37247 -7.39039 -1.88237
H -2.7692 -8.0764 -0.95036
$end

$opt
CONSTRAINT
tors           1           2           3           4    +167.384
tors           3           4           5           6    +171.988
tors           4           5           6           7     +92.766
tors           5           6           7           8    -158.365
tors           6           7           8           9    -159.440
tors           7           8           9          10     -38.362
tors           8           9          10          11     -80.400
tors           9          10          11          12    +169.193
tors          11          12          13          14     -75.943
ENDCONSTRAINT
$end

$rem
JOBTYPE                   OPT
METHOD                    B3LYP
DFT_D                     d3_op
BASIS                     STO-3G
GEOM_OPT_MAX_CYCLES       100
GEOM_OPT_TOL_GRADIENT     300
GEOM_OPT_TOL_DISPLACEMENT 1200
GEOM_OPT_TOL_ENERGY       100
SYMMETRY                  False
THRESH                    12
SCF_CONVERGENCE           8
MAX_SUB_FILE_NUM          128
MEM_STATIC                400
MEM_TOTAL                 4000
$end
--------------------------------------------------------------

   15   -1510.0553243260      9.28E-09 Convergence criterion met
 Total energy in the final basis set = -1510.05532433
   13   -1510.1326768996      8.89E-09 Convergence criterion met
 Total energy in the final basis set = -1510.13267690
   14   -1510.1767635455      3.15E-09 Convergence criterion met
 Total energy in the final basis set = -1510.17676355
   14   -1510.2006708597      5.62E-09 Convergence criterion met
 Total energy in the final basis set = -1510.20067086
   14   -1510.2129802528      5.99E-09 Convergence criterion met
 Total energy in the final basis set = -1510.21298025
   13   -1510.2198772613      5.83E-09 Convergence criterion met
 Total energy in the final basis set = -1510.21987726
    2   -1510.2198772612      4.44E-09 Convergence criterion met
 Total energy in the final basis set = -1510.21987726
   13   -1510.2244627810      5.24E-09 Convergence criterion met
   12   -1510.2347422438      5.39E-09 Convergence criterion met
 Total energy in the final basis set = -1510.23474224
   11   -1510.2347849864      8.52E-09 Convergence criterion met
 Total energy in the final basis set = -1510.23478499
   11   -1510.2348171255      5.09E-09 Convergence criterion met
 Total energy in the final basis set = -1510.23481713
   11   -1510.2348386935      4.51E-09 Convergence criterion met
 Total energy in the final basis set = -1510.23483869
    9   -1510.2348398153      8.57E-09 Convergence criterion met
 Total energy in the final basis set = -1510.23483982
    9   -1510.2348422801      6.42E-09 Convergence criterion met
 Total energy in the final basis set = -1510.23484228

             Standard Nuclear Orientation (Angstroms)
    I     Atom           X                Y                Z
 ----------------------------------------------------------------
    1      O      -5.2924754532    -2.3199561400     1.5871718578
    2      C      -4.6101970985    -1.6354150241     0.7920668390
    3      C      -3.6500666219    -0.4553238407     1.1952272106
    4      C      -2.6546695392     0.0786355293     0.0932175895
    5      C      -2.1717792954    -0.9127910762    -1.0277433088
    6      O      -1.4127917538    -0.1852248062    -2.0544586902
    7      C       0.0200206390    -0.2431847713    -1.6988074380
    8      C       0.7168671996     0.9612857231    -2.4428055817
    9      O       2.1826999581     0.8012745824    -2.6064928395
   10      C       2.7306369181     0.1867148326    -1.4053822253
   11      C       2.9554196067     1.1927346807    -0.2166138338
   12      C       3.2896792184     0.4719322318     1.1540604222
   13      C       3.0470845136    -1.0830813008     1.0956552818
   14      O       1.9270416961    -1.6412224506     1.1314149896
   15      O      -4.8082776786    -1.6379664667    -0.6228814020
   16      O       4.2966955390    -1.7748658465     1.0807901813
   17      O       3.1406735407    -0.9932303354    -1.4218592036
   18      C       4.0613474914    -3.2290409719     0.9316738975
   19      C       4.3165648400     1.9778526662    -0.4757158137
   20      C       4.4156719345     3.1722905165     0.5546994805
   21      C       4.8011091690     2.4056064750     1.8741723755
   22      C       4.7989844677     0.9100516517     1.3679699844
   23      O       5.3381574808     1.0157375088    -0.0088877512
   24      H       2.0959808203     1.8802207949    -0.1356069724
   25      H       2.6427835569     0.8706229532     1.9564412268
   26      H       4.4884217302     2.2513514156    -1.5352634664
   27      H       5.2037138018     3.8789642002     0.2493596471
   28      H       3.4643425232     3.7212522637     0.6431591423
   29      H       5.8053230093     2.6906269873     2.2264709846
   30      H       4.0799739234     2.5706355858     2.6903226645
   31      H       5.4016165511     0.1999819111     1.9653600829
   32      O      -2.3370514648    -2.1458102828    -1.0768410862
   33      C      -5.8128470728    -2.6586647504    -0.9950873281
   34      C      -4.5961681523     0.8263750441     1.3186438469
   35      C      -3.7840790983     2.0610322610     1.8830124093
   36      C      -3.0159330321     2.5457276198     0.5962836463
   37      C      -3.3953879777     1.3948009750    -0.4132553634
   38      O      -4.8242308299     1.1619123661    -0.1078729836
   39      H      -3.1417830212    -0.7080437699     2.1420125974
   40      H      -1.7184619867     0.3862405539     0.5978897816
   41      H      -6.7755570034    -2.4944232025    -0.4692654964
   42      H      -5.5585532071     0.6275216395     1.8295209162
   43      H      -4.4702833304     2.8337103767     2.2642618916
   44      H      -3.1023418754     1.7644755935     2.6966669028
   45      H      -3.4038790429     3.5128275931     0.2374657559
   46      H      -1.9288389559     2.6344120836     0.7513775352
   47      H      -3.2465133668     1.6215868690    -1.4867419528
   48      H      -5.4547799439    -3.6831515388    -0.7658661385
   49      H      -5.9600945352    -2.5552469568    -2.0858475337
   50      H       5.0586531924    -3.7048064199     0.9629982215
   51      H       3.5717773523    -3.4549572160    -0.0376518777
   52      H       3.4296102232    -3.6288777352     1.7510841253
   53      H       0.3056099307     1.0363843839    -3.4710948210
   54      H       0.4741671586     1.9086615707    -1.9079655889
   55      H       0.4767273474    -1.2023973453    -2.0381901702
   56      H       0.1926049869    -0.1597242513    -0.6020603622
 ----------------------------------------------------------------

    9   -1510.2348422215      3.96E-09 Convergence criterion met
 Total energy in the final basis set = -1510.23484222
 Final energy is   -1510.23484222153
 **  OPTIMIZATION CONVERGED  **

                    Orbital Energies (a.u.)
 --------------------------------------------------------------

 Alpha MOs
 -- Occupied --
-18.932 -18.930 -18.916 -18.915 -18.911 -18.899 -18.894 -18.892
-18.865 -18.864 -10.117 -10.112 -10.099 -10.094 -10.078 -10.074
-10.068 -10.064 -10.064 -10.063 -10.059 -10.058 -10.046 -10.041
-10.041 -10.039 -10.027 -10.026 -10.025 -10.025  -1.019  -1.011
 -1.005  -1.003  -0.976  -0.974  -0.949  -0.938  -0.932  -0.928
 -0.769  -0.766  -0.728  -0.726  -0.715  -0.710  -0.699  -0.658
 -0.656  -0.614  -0.605  -0.591  -0.552  -0.549  -0.543  -0.542
 -0.517  -0.516  -0.483  -0.479  -0.469  -0.460  -0.455  -0.444
 -0.440  -0.439  -0.428  -0.413  -0.411  -0.407  -0.407  -0.405
 -0.396  -0.390  -0.376  -0.370  -0.367  -0.359  -0.355  -0.349
 -0.347  -0.343  -0.338  -0.336  -0.335  -0.330  -0.323  -0.320
 -0.315  -0.313  -0.311  -0.307  -0.301  -0.297  -0.287  -0.283
 -0.275  -0.252  -0.249  -0.248  -0.244  -0.239  -0.236  -0.175
 -0.172  -0.170  -0.169  -0.160  -0.156  -0.153  -0.147  -0.146
 -0.145

          Ground-State Mulliken Net Atomic Charges

     Atom                 Charge (a.u.)
  ----------------------------------------
      1 O                    -0.218558
      2 C                     0.211666
      3 C                    -0.077994
      4 C                    -0.081693
      5 C                     0.228871
      6 O                    -0.200890
      7 C                    -0.054453
      8 C                    -0.047086
      9 O                    -0.189111
     10 C                     0.221146
     11 C                    -0.083357
     12 C                    -0.082307
     13 C                     0.211953
     14 O                    -0.228396
     15 O                    -0.163945
     16 O                    -0.165911
     17 O                    -0.172753
     18 C                    -0.126783
     19 C                     0.025047
     20 C                    -0.143761
     21 C                    -0.143834
     22 C                     0.025446
     23 O                    -0.186166
     24 H                     0.078206
     25 H                     0.080656
     26 H                     0.087149
     27 H                     0.079968
     28 H                     0.072649
     29 H                     0.079219
     30 H                     0.072962
     31 H                     0.092525
     32 O                    -0.168413
     33 C                    -0.125785
     34 C                     0.024706
     35 C                    -0.145419
     36 C                    -0.141705
     37 C                     0.025823
     38 O                    -0.187180
     39 H                     0.086253
     40 H                     0.079046
     41 H                     0.089034
     42 H                     0.085163
     43 H                     0.079244
     44 H                     0.073919
     45 H                     0.078375
     46 H                     0.069560
     47 H                     0.090150
     48 H                     0.089925
     49 H                     0.091255
     50 H                     0.090261
     51 H                     0.094500
     52 H                     0.087730
     53 H                     0.096834
     54 H                     0.072036
     55 H                     0.088298
     56 H                     0.075926
  ----------------------------------------
  Sum of atomic charges =    -0.000000

                    Cartesian Multipole Moments
 -----------------------------------------------------------------
    Charge (ESU x 10^10)
                 0.0000
    Dipole Moment (Debye)
         X       0.8140      Y       3.5271      Z       2.1683
       Tot       4.2196
    Quadrupole Moments (Debye-Ang)
        XX    -172.3513     XY      -0.9143     YY    -155.1017
        XZ       8.5530     YZ       3.4889     ZZ    -162.0643

 Total job time:  66.38s(wall), 3159.26s(cpu)
        *  Thank you very much for using Q-Chem.  Have a nice day.  *
