 Q-Chem 5.0, Q-Chem, Inc., Pleasanton, CA (2017)
 Q-Chem 5.0.1 for Intel X86 EM64T Linux

User input:
--------------------------------------------------------------
$molecule
0  1
O -3.94934 -3.66094 2.70899
C -3.26408 -4.56952 2.26188
C -3.36658 -6.02376 2.66595
C -2.05651 -6.75173 3.00891
C -0.80983 -5.89818 3.08186
O 0.18586 -6.58442 3.71677
C 1.44128 -5.89669 3.7027
C 1.74309 -5.32527 5.08419
O 0.51786 -5.10012 5.79904
C 0.26326 -5.96965 6.80811
C -1.19052 -5.9876 7.21657
C -1.80198 -7.38768 7.37205
C -0.8148 -8.53484 7.45088
O -0.4889 -9.25486 6.51818
O -2.55642 -4.32967 1.12332
O -0.23618 -8.78468 8.66016
O 1.13769 -6.54562 7.44477
C 0.6869 -9.78181 8.89724
C -1.41973 -5.38469 8.61451
C -2.866 -4.90601 8.73698
C -3.59367 -6.2322 8.78635
C -2.39911 -7.19643 8.79504
O -1.39622 -6.48608 9.47838
H -1.73938 -5.3483 6.49547
H -2.67526 -7.69306 6.78143
H -0.71603 -4.55769 8.85498
H -2.9638 -4.40803 9.72835
H -3.20657 -4.20823 7.94184
H -4.14918 -6.28988 9.74877
H -4.28244 -6.43018 7.93659
H -2.69967 -8.16483 9.25492
O -0.74169 -4.70183 2.83404
C -2.44357 -3.09429 0.5197
C -4.19193 -6.26741 3.93151
C -4.75355 -7.68784 3.92817
C -3.48864 -8.4923 4.13468
C -2.46993 -7.35889 4.33101
O -3.21913 -6.32751 4.93175
H -3.87043 -6.51851 1.80453
H -1.81737 -7.55425 2.27563
H -1.97005 -2.37041 1.21691
H -5.01176 -5.53273 4.08504
H -5.39141 -7.78833 4.8357
H -5.34674 -7.96132 3.02922
H -3.60295 -9.092 5.06443
H -3.20926 -9.16134 3.29216
H -1.58146 -7.74 4.85731
H -3.44548 -2.72313 0.21532
H -1.80784 -3.18822 -0.38442
H 0.98611 -9.7535 9.96496
H 1.58922 -9.62452 8.26843
H 0.24214 -10.77548 8.67602
H 2.3709 -6.10328 5.57257
H 2.38108 -4.41696 5.04326
H 1.46989 -5.03644 2.99686
H 2.25972 -6.55374 3.33788
$end

$opt
CONSTRAINT
tors           1           2           3           4    -131.785
tors           3           4           5           6    +164.514
tors           4           5           6           7    +173.877
tors           5           6           7           8    +106.250
tors           6           7           8           9     -25.718
tors           7           8           9          10    +107.136
tors           8           9          10          11    -161.050
tors           9          10          11          12    +133.079
tors          11          12          13          14     -97.900
ENDCONSTRAINT
$end

$rem
JOBTYPE                   OPT
METHOD                    B3LYP
DFT_D                     d3_op
BASIS                     STO-3G
GEOM_OPT_MAX_CYCLES       100
GEOM_OPT_TOL_GRADIENT     300
GEOM_OPT_TOL_DISPLACEMENT 1200
GEOM_OPT_TOL_ENERGY       100
SYMMETRY                  False
THRESH                    12
SCF_CONVERGENCE           8
MAX_SUB_FILE_NUM          128
MEM_STATIC                400
MEM_TOTAL                 4000
$end
--------------------------------------------------------------

   15   -1510.1362688762      8.84E-09 Convergence criterion met
 Total energy in the final basis set = -1510.13626888
   14   -1510.2076781355      5.63E-09 Convergence criterion met
 Total energy in the final basis set = -1510.20767814
   14   -1510.2368459180      6.78E-09 Convergence criterion met
 Total energy in the final basis set = -1510.23684592
   14   -1510.2665157788      6.02E-09 Convergence criterion met
 Total energy in the final basis set = -1510.26651578
   13   -1510.2752586717      6.39E-09 Convergence criterion met
 Total energy in the final basis set = -1510.27525867
   13   -1510.2799016775      4.08E-09 Convergence criterion met
 Total energy in the final basis set = -1510.27990168
   13   -1510.2821963226      3.05E-09 Convergence criterion met
 Total energy in the final basis set = -1510.28219632
   13   -1510.2832491487      4.11E-09 Convergence criterion met
   12   -1510.2857731838      2.80E-09 Convergence criterion met
 Total energy in the final basis set = -1510.28577318
   11   -1510.2858217085      8.30E-09 Convergence criterion met
 Total energy in the final basis set = -1510.28582171
   11   -1510.2858646454      9.63E-09 Convergence criterion met
 Total energy in the final basis set = -1510.28586465
   10   -1510.2858852694      9.24E-09 Convergence criterion met
 Total energy in the final basis set = -1510.28588527
   10   -1510.2858876998      6.82E-09 Convergence criterion met
 Total energy in the final basis set = -1510.28588770
   10   -1510.2858893387      8.31E-09 Convergence criterion met
 Total energy in the final basis set = -1510.28588934

             Standard Nuclear Orientation (Angstroms)
    I     Atom           X                Y                Z
 ----------------------------------------------------------------
    1      O      -4.5547119449    -0.7630504403     1.2990436057
    2      C      -4.2137165934    -0.3751350297     0.1612989939
    3      C      -3.1335783693    -1.0206091817    -0.7808262599
    4      C      -2.0942493131    -0.0153213280    -1.4036255498
    5      C      -1.9984455671     1.2700881948    -0.5024913106
    6      O      -0.8286563170     2.0052831801    -0.8473694458
    7      C      -0.7766001252     3.2976640201    -0.1243556365
    8      C       0.2984734325     3.2901345973     1.0366188615
    9      O       0.5438513250     1.9162911410     1.5293002106
   10      C       1.8201270494     1.4153353420     1.1064593982
   11      C       1.7707295674    -0.1471223643     1.2449563473
   12      C       2.3182097214    -0.9424305587    -0.0137746576
   13      C       2.6608082581    -0.0191855237    -1.2250635905
   14      O       1.9066989752     0.1905019841    -2.2084433393
   15      O      -4.9829611913     0.5409088365    -0.6417320153
   16      O       3.9883858583     0.4785802717    -1.1182975992
   17      O       2.7385208096     2.1415494472     0.6682352131
   18      C       4.2744901821     1.4078834725    -2.2363366824
   19      C       2.7661833281    -0.6633788300     2.3709337525
   20      C       2.4125496073    -2.1667779709     2.7034381123
   21      C       3.0257862508    -2.9081348858     1.4586141677
   22      C       3.5723252033    -1.6864746683     0.6195826996
   23      O       4.0600382890    -0.7504290969     1.6572710411
   24      H       0.7190490367    -0.4325481705     1.4379083618
   25      H       1.5549783487    -1.6656672221    -0.3475353772
   26      H       2.8509119230     0.0049237941     3.2495479211
   27      H       2.8983844658    -2.4786972817     3.6414527604
   28      H       1.3258221887    -2.3222880603     2.7964276124
   29      H       3.8541378166    -3.5728949388     1.7515035002
   30      H       2.2787704754    -3.4972434102     0.9029942577
   31      H       4.3803079061    -1.9233324126    -0.0989342006
   32      O      -2.7849273657     1.5994499958     0.4159456042
   33      C      -6.0435032593     1.1551373698     0.1844092143
   34      C      -2.1502805633    -2.0695031191    -0.0961017049
   35      C      -1.7471117030    -3.1004775505    -1.2171383227
   36      C      -0.8781805455    -2.1751396154    -2.1484330051
   37      C      -0.7663832662    -0.8529192853    -1.2864399133
   38      O      -0.8766557132    -1.3312149357     0.1186614112
   39      H      -3.6985383779    -1.5151054837    -1.5921744418
   40      H      -2.3436240323     0.2762731425    -2.4403751035
   41      H      -5.6119894759     1.8115342483     0.9679795835
   42      H      -2.5230290624    -2.4952763941     0.8561853081
   43      H      -1.1456657834    -3.9190404843    -0.7894413489
   44      H      -2.6201914094    -3.5323467438    -1.7317658346
   45      H       0.1219308050    -2.5984632588    -2.3321624821
   46      H      -1.3593447234    -1.9868079293    -3.1215532129
   47      H       0.1687090189    -0.2783364212    -1.4850935537
   48      H      -6.6762030125     0.3886108870     0.6770332886
   49      H      -6.6610000778     1.7608229861    -0.5043396605
   50      H       5.3410244443     1.6807215150    -2.1388964846
   51      H       3.6495926731     2.3209690819    -2.1624779628
   52      H       4.0947985975     0.9297150007    -3.2208001231
   53      H       1.2648574538     3.7070068095     0.6782450357
   54      H      -0.0723453387     3.8991318820     1.8865130388
   55      H      -1.7817073997     3.5031887671     0.3004321615
   56      H      -0.5133035344     4.0761865261    -0.8695915292
 ----------------------------------------------------------------

    9   -1510.2858896574      4.63E-09 Convergence criterion met
 Total energy in the final basis set = -1510.28588966
 Final energy is   -1510.28588965743
 **  OPTIMIZATION CONVERGED  **

                    Orbital Energies (a.u.)
 --------------------------------------------------------------

 Alpha MOs
 -- Occupied --
-18.942 -18.942 -18.928 -18.913 -18.885 -18.885 -18.881 -18.878
-18.876 -18.857 -10.106 -10.102 -10.099 -10.088 -10.073 -10.069
-10.063 -10.057 -10.056 -10.054 -10.051 -10.044 -10.036 -10.033
-10.030 -10.028 -10.017 -10.017 -10.015 -10.015  -1.021  -1.015
 -1.007  -0.993  -0.967  -0.965  -0.944  -0.938  -0.933  -0.920
 -0.761  -0.759  -0.726  -0.719  -0.711  -0.701  -0.693  -0.660
 -0.650  -0.618  -0.596  -0.574  -0.544  -0.541  -0.534  -0.531
 -0.511  -0.505  -0.485  -0.478  -0.464  -0.453  -0.451  -0.437
 -0.430  -0.427  -0.422  -0.413  -0.411  -0.407  -0.401  -0.398
 -0.396  -0.378  -0.376  -0.365  -0.362  -0.356  -0.352  -0.349
 -0.344  -0.335  -0.331  -0.328  -0.326  -0.321  -0.319  -0.312
 -0.306  -0.304  -0.302  -0.298  -0.296  -0.279  -0.276  -0.271
 -0.267  -0.253  -0.249  -0.241  -0.240  -0.234  -0.227  -0.186
 -0.179  -0.169  -0.164  -0.158  -0.156  -0.150  -0.143  -0.140
 -0.138

          Ground-State Mulliken Net Atomic Charges

     Atom                 Charge (a.u.)
  ----------------------------------------
      1 O                    -0.221509
      2 C                     0.216147
      3 C                    -0.081989
      4 C                    -0.074663
      5 C                     0.223189
      6 O                    -0.168893
      7 C                    -0.053744
      8 C                    -0.055041
      9 O                    -0.173397
     10 C                     0.209636
     11 C                    -0.081967
     12 C                    -0.082131
     13 C                     0.211503
     14 O                    -0.219453
     15 O                    -0.178599
     16 O                    -0.154875
     17 O                    -0.210063
     18 C                    -0.125485
     19 C                     0.025874
     20 C                    -0.143847
     21 C                    -0.143207
     22 C                     0.026376
     23 O                    -0.185869
     24 H                     0.105734
     25 H                     0.092071
     26 H                     0.082522
     27 H                     0.076979
     28 H                     0.078402
     29 H                     0.076614
     30 H                     0.073819
     31 H                     0.084878
     32 O                    -0.206470
     33 C                    -0.128608
     34 C                     0.021938
     35 C                    -0.142634
     36 C                    -0.145872
     37 C                     0.008639
     38 O                    -0.202186
     39 H                     0.082868
     40 H                     0.088078
     41 H                     0.088377
     42 H                     0.088490
     43 H                     0.073897
     44 H                     0.072989
     45 H                     0.074183
     46 H                     0.073359
     47 H                     0.107239
     48 H                     0.086710
     49 H                     0.084574
     50 H                     0.093649
     51 H                     0.092196
     52 H                     0.089401
     53 H                     0.096160
     54 H                     0.087806
     55 H                     0.098078
     56 H                     0.088121
  ----------------------------------------
  Sum of atomic charges =    -0.000000

                    Cartesian Multipole Moments
 -----------------------------------------------------------------
    Charge (ESU x 10^10)
                -0.0000
    Dipole Moment (Debye)
         X      -0.1690      Y       0.0511      Z      -1.9580
       Tot       1.9659
    Quadrupole Moments (Debye-Ang)
        XX    -165.2071     XY      -4.8278     YY    -145.7157
        XZ       1.0954     YZ       0.8341     ZZ    -159.0094

 Total job time:  62.32s(wall), 2966.94s(cpu)
        *  Thank you very much for using Q-Chem.  Have a nice day.  *
