 Q-Chem 5.0, Q-Chem, Inc., Pleasanton, CA (2017)
 Q-Chem 5.0.1 for Intel X86 EM64T Linux

User input:
--------------------------------------------------------------
$molecule
0  1
O -4.5547119449 -0.7630504403 1.2990436057
C -4.2137165934 -0.3751350297 0.1612989939
C -3.1335783693 -1.0206091817 -0.7808262599
C -2.0942493131 -0.015321328 -1.4036255498
C -1.9984455671 1.2700881948 -0.5024913106
O -0.828656317 2.0052831801 -0.8473694458
C -0.7766001252 3.2976640201 -0.1243556365
C 0.2984734325 3.2901345973 1.0366188615
O 0.543851325 1.916291141 1.5293002106
C 1.8201270494 1.415335342 1.1064593982
C 1.7707295674 -0.1471223643 1.2449563473
C 2.3182097214 -0.9424305587 -0.0137746576
C 2.6608082581 -0.0191855237 -1.2250635905
O 1.9066989752 0.1905019841 -2.2084433393
O -4.9829611913 0.5409088365 -0.6417320153
O 3.9883858583 0.4785802717 -1.1182975992
O 2.7385208096 2.1415494472 0.6682352131
C 4.2744901821 1.4078834725 -2.2363366824
C 2.7661833281 -0.66337883 2.3709337525
C 2.4125496073 -2.1667779709 2.7034381123
C 3.0257862508 -2.9081348858 1.4586141677
C 3.5723252033 -1.6864746683 0.6195826996
O 4.060038289 -0.7504290969 1.6572710411
H 0.7190490367 -0.4325481705 1.4379083618
H 1.5549783487 -1.6656672221 -0.3475353772
H 2.850911923 0.0049237941 3.2495479211
H 2.8983844658 -2.4786972817 3.6414527604
H 1.3258221887 -2.3222880603 2.7964276124
H 3.8541378166 -3.5728949388 1.7515035002
H 2.2787704754 -3.4972434102 0.9029942577
H 4.3803079061 -1.9233324126 -0.0989342006
O -2.7849273657 1.5994499958 0.4159456042
C -6.0435032593 1.1551373698 0.1844092143
C -2.1502805633 -2.0695031191 -0.0961017049
C -1.747111703 -3.1004775505 -1.2171383227
C -0.8781805455 -2.1751396154 -2.1484330051
C -0.7663832662 -0.8529192853 -1.2864399133
O -0.8766557132 -1.3312149357 0.1186614112
H -3.6985383779 -1.5151054837 -1.5921744418
H -2.3436240323 0.2762731425 -2.4403751035
H -5.6119894759 1.8115342483 0.9679795835
H -2.5230290624 -2.4952763941 0.8561853081
H -1.1456657834 -3.9190404843 -0.7894413489
H -2.6201914094 -3.5323467438 -1.7317658346
H 0.121930805 -2.5984632588 -2.3321624821
H -1.3593447234 -1.9868079293 -3.1215532129
H 0.1687090189 -0.2783364212 -1.4850935537
H -6.6762030125 0.388610887 0.6770332886
H -6.6610000778 1.7608229861 -0.5043396605
H 5.3410244443 1.680721515 -2.1388964846
H 3.6495926731 2.3209690819 -2.1624779628
H 4.0947985975 0.9297150007 -3.2208001231
H 1.2648574538 3.7070068095 0.6782450357
H -0.0723453387 3.899131882 1.8865130388
H -1.7817073997 3.5031887671 0.3004321615
H -0.5133035344 4.0761865261 -0.8695915292
$end

$rem
JOBTYPE                   OPT
METHOD                    B3LYP
DFT_D                     d3_op
BASIS                     STO-3G
GEOM_OPT_MAX_CYCLES       100
GEOM_OPT_TOL_GRADIENT     300
GEOM_OPT_TOL_DISPLACEMENT 1200
GEOM_OPT_TOL_ENERGY       100
SYMMETRY                  False
THRESH                    12
SCF_CONVERGENCE           8
MAX_SUB_FILE_NUM          128
MEM_STATIC                400
MEM_TOTAL                 4000
$end
--------------------------------------------------------------

   16   -1510.2858506317      6.85E-09 Convergence criterion met
 Total energy in the final basis set = -1510.28585063
   15   -1510.2735963651      4.19E-09 Convergence criterion met
 Total energy in the final basis set = -1510.27359637
   15   -1510.2823207916      3.99E-09 Convergence criterion met
 Total energy in the final basis set = -1510.28232079
   15   -1510.2892235712      6.48E-09 Convergence criterion met
 Total energy in the final basis set = -1510.28922357
   15   -1510.2887344457      3.46E-09 Convergence criterion met
 Total energy in the final basis set = -1510.28873445
   14   -1510.2902618750      5.29E-09 Convergence criterion met
 Total energy in the final basis set = -1510.29026188
   13   -1510.2936691280      8.76E-09 Convergence criterion met
 Total energy in the final basis set = -1510.29366913
   14   -1510.2964104676      2.07E-09 Convergence criterion met
   12   -1510.3054649865      3.49E-09 Convergence criterion met
 Total energy in the final basis set = -1510.30546499
   11   -1510.3054938268      7.79E-09 Convergence criterion met
 Total energy in the final basis set = -1510.30549383
   11   -1510.3054948828      6.02E-09 Convergence criterion met
 Total energy in the final basis set = -1510.30549488
   10   -1510.3054987869      9.30E-09 Convergence criterion met
 Total energy in the final basis set = -1510.30549879
   10   -1510.3054982979      9.15E-09 Convergence criterion met
 Total energy in the final basis set = -1510.30549830
    9   -1510.3054978662      4.78E-09 Convergence criterion met
 Total energy in the final basis set = -1510.30549787

             Standard Nuclear Orientation (Angstroms)
    I     Atom           X                Y                Z
 ----------------------------------------------------------------
    1      O      -1.5684422924    -1.0072542091     1.5225987978
    2      C      -2.6057313266    -0.9201996783     0.8216515375
    3      C      -2.7264652109    -1.1062403283    -0.7376174669
    4      C      -2.0053826408     0.0510942494    -1.5443390576
    5      C      -1.8305885446     1.3246884039    -0.6486949500
    6      O      -1.1162469241     2.3503390235    -1.3410324770
    7      C      -1.1451062119     3.6088446613    -0.5476604662
    8      C       0.0734086779     3.6930591345     0.4498415654
    9      O       0.1947080260     2.4023277582     1.1649293272
   10      C       1.2353022008     1.6217050806     0.5585607560
   11      C       1.1282234282     0.1443981759     1.0283015216
   12      C       1.8999827083    -0.8438975506     0.0597203961
   13      C       2.5670794089    -0.1219994349    -1.1637106767
   14      O       1.9974968543     0.1773915206    -2.2469928689
   15      O      -3.9219411875    -0.7911933974     1.3649401138
   16      O       3.9635827464     0.0613977493    -0.9443181596
   17      O       2.0718589553     2.0972363480    -0.2459930192
   18      C       4.5555089365     0.8063003823    -2.0784272386
   19      C       1.8781343485    -0.1385606141     2.4020955419
   20      C       1.3525990353    -1.5317047813     2.9303129666
   21      C       2.1199664845    -2.5216983588     1.9782256257
   22      C       2.9230280315    -1.5121137421     1.0645296031
   23      O       3.2734746044    -0.4112187054     1.9950022537
   24      H       0.0564528958    -0.1497590611     1.1114376011
   25      H       1.1574701442    -1.5610293927    -0.3501954599
   26      H       1.8373027774     0.6924075269     3.1329740794
   27      H       1.6318450251    -1.6812223032     3.9853026114
   28      H       0.2577568661    -1.6099921171     2.8260622086
   29      H       2.8141484693    -3.1677008545     2.5393641624
   30      H       1.4381035715    -3.1577220217     1.3916855159
   31      H       3.8361181318    -1.9222597753     0.5924093796
   32      O      -2.3543994549     1.4757922941     0.4814334635
   33      C      -3.8403249058    -0.5874677522     2.8294154119
   34      C      -1.8632830531    -2.3546651868    -1.1874502208
   35      C      -2.0935667336    -2.6301280075    -2.7263046973
   36      C      -1.1979688820    -1.5102755098    -3.3788157848
   37      C      -0.7178406836    -0.7118727916    -2.1045891010
   38      O      -0.4928857963    -1.8063316988    -1.1313603689
   39      H      -3.7944830798    -1.1957199617    -1.0015300162
   40      H      -2.6336596058     0.3649798376    -2.3987744195
   41      H      -3.3076255033     0.3547978249     3.0715426109
   42      H      -1.9568836356    -3.2392124492    -0.5279006432
   43      H      -1.7452683512    -3.6399935349    -2.9949269715
   44      H      -3.1559381936    -2.5393177180    -3.0043959448
   45      H      -0.3287566190    -1.9463921109    -3.8969944297
   46      H      -1.7525213342    -0.8797306461    -4.0918065171
   47      H       0.2456417152    -0.1411124845    -2.2221143186
   48      H      -3.3186833259    -1.4285519571     3.3302638904
   49      H      -4.8838820477    -0.5288718584     3.1893938444
   50      H       5.6352927886     0.8907723369    -1.8572129220
   51      H       4.1103670880     1.8186144920    -2.1626108067
   52      H       4.4105661157     0.2730391647    -3.0402393978
   53      H       1.0178839348     3.8830641092    -0.1038696931
   54      H      -0.1079206569     4.4913950718     1.1975288445
   55      H      -2.0960386719     3.6653551247     0.0221595118
   56      H      -1.0907987956     4.4373857302    -1.2827166502
 ----------------------------------------------------------------

    9   -1510.3054974579      2.94E-09 Convergence criterion met
 Total energy in the final basis set = -1510.30549746
 Final energy is   -1510.30549745792
 **  OPTIMIZATION CONVERGED  **

                    Orbital Energies (a.u.)
 --------------------------------------------------------------

 Alpha MOs
 -- Occupied --
-18.946 -18.932 -18.931 -18.925 -18.888 -18.886 -18.875 -18.869
-18.867 -18.857 -10.108 -10.100 -10.094 -10.089 -10.076 -10.069
-10.062 -10.060 -10.052 -10.043 -10.040 -10.039 -10.037 -10.036
-10.018 -10.013 -10.009 -10.005 -10.002  -9.998  -1.024  -1.009
 -1.005  -0.997  -0.971  -0.952  -0.945  -0.934  -0.930  -0.921
 -0.762  -0.745  -0.722  -0.715  -0.702  -0.697  -0.685  -0.660
 -0.647  -0.616  -0.591  -0.569  -0.544  -0.535  -0.530  -0.520
 -0.508  -0.499  -0.486  -0.474  -0.458  -0.453  -0.448  -0.433
 -0.430  -0.422  -0.414  -0.413  -0.408  -0.405  -0.399  -0.399
 -0.392  -0.379  -0.368  -0.365  -0.359  -0.355  -0.351  -0.347
 -0.343  -0.339  -0.327  -0.323  -0.318  -0.315  -0.312  -0.308
 -0.300  -0.297  -0.294  -0.288  -0.285  -0.278  -0.273  -0.265
 -0.264  -0.255  -0.249  -0.244  -0.235  -0.227  -0.212  -0.195
 -0.174  -0.168  -0.163  -0.160  -0.154  -0.149  -0.143  -0.137
 -0.126

          Ground-State Mulliken Net Atomic Charges

     Atom                 Charge (a.u.)
  ----------------------------------------
      1 O                    -0.227086
      2 C                     0.222633
      3 C                    -0.080016
      4 C                    -0.081708
      5 C                     0.212358
      6 O                    -0.165553
      7 C                    -0.051539
      8 C                    -0.056092
      9 O                    -0.170990
     10 C                     0.209279
     11 C                    -0.093814
     12 C                    -0.097245
     13 C                     0.220696
     14 O                    -0.230429
     15 O                    -0.167762
     16 O                    -0.163060
     17 O                    -0.212913
     18 C                    -0.126209
     19 C                     0.025502
     20 C                    -0.146877
     21 C                    -0.143558
     22 C                     0.024162
     23 O                    -0.192737
     24 H                     0.112398
     25 H                     0.111987
     26 H                     0.078551
     27 H                     0.070749
     28 H                     0.087446
     29 H                     0.072032
     30 H                     0.074055
     31 H                     0.083122
     32 O                    -0.207119
     33 C                    -0.127790
     34 C                     0.027181
     35 C                    -0.145436
     36 C                    -0.142987
     37 C                     0.005750
     38 O                    -0.196686
     39 H                     0.085869
     40 H                     0.085871
     41 H                     0.094106
     42 H                     0.081738
     43 H                     0.076853
     44 H                     0.072489
     45 H                     0.078153
     46 H                     0.071727
     47 H                     0.120684
     48 H                     0.087654
     49 H                     0.088736
     50 H                     0.088374
     51 H                     0.093618
     52 H                     0.086365
     53 H                     0.102405
     54 H                     0.088435
     55 H                     0.095557
     56 H                     0.091073
  ----------------------------------------
  Sum of atomic charges =    -0.000000

                    Cartesian Multipole Moments
 -----------------------------------------------------------------
    Charge (ESU x 10^10)
                -0.0000
    Dipole Moment (Debye)
         X      -2.8287      Y       0.3322      Z      -0.9592
       Tot       3.0053
    Quadrupole Moments (Debye-Ang)
        XX    -158.7367     XY      -0.0412     YY    -146.2979
        XZ      -3.1433     YZ       0.5804     ZZ    -156.2279

 Total job time:  124.03s(wall), 5843.52s(cpu)
        *  Thank you very much for using Q-Chem.  Have a nice day.  *
