 Q-Chem 5.0, Q-Chem, Inc., Pleasanton, CA (2017)
 Q-Chem 5.0.1 for Intel X86 EM64T Linux

User input:
--------------------------------------------------------------
$molecule
0  1
O -3.8085612612 1.2842337295 1.597962048
C -3.7607957982 0.9765330895 0.3875340747
C -3.8155014522 -0.476618912 -0.2239771802
C -2.4771930467 -1.0002413905 -0.9165853934
C -1.2689890957 -0.0738317725 -0.437285324
O 0.1048695427 -0.4191395316 -0.376854719
C 0.5798662759 -1.7806143503 -0.7079186985
C 1.8510663849 -1.6008390129 -1.6485733162
O 2.1049337575 -0.1479329306 -1.739042521
C 3.5250113716 0.1695520647 -1.7507574576
C 4.1825828244 0.516330246 -0.3487066373
C 3.2804293139 1.1719527714 0.7726924882
C 2.0868064311 2.1329132915 0.4185331549
O 1.6162300306 2.967556172 1.226528785
O -3.9697776843 1.9009700188 -0.6984585031
O 1.7508150166 2.0921541831 -0.9609548224
O 4.1652959095 0.2379593732 -2.8218421341
C 0.5472544414 2.9213990147 -1.2143792275
C 4.4954075964 -0.8693182091 0.3788464114
C 5.3009628173 -0.6246476697 1.7199589363
C 4.1462678485 -0.2213157675 2.7130001021
C 2.9445233844 -0.0849016717 1.7020744402
O 3.1450784732 -1.2712050524 0.839262966
H 5.0948869774 1.1072010924 -0.5445894294
H 3.9494400296 1.8246415679 1.3641587663
H 4.9287960257 -1.6447398023 -0.2829537964
H 5.8119187501 -1.546495721 2.0390512862
H 6.0532684918 0.1715865277 1.6018619299
H 3.9451387502 -1.025539767 3.4390808399
H 4.3519921454 0.7120003604 3.2607992864
H 1.9294043948 -0.0878521951 2.144313528
O -1.5026762783 1.11000762 -0.0639163896
C -3.9052174984 3.2856142582 -0.1864962038
C -4.1346290913 -1.6054944822 0.8345377207
C -4.8914186235 -2.7533237809 0.0666759193
C -3.7304554898 -3.2811446933 -0.8531166709
C -2.4855292627 -2.4757297737 -0.2913565862
O -2.8185642769 -2.2177876992 1.12542438
H -4.6114220512 -0.4426851166 -0.990602218
H -2.5368031635 -0.990031783 -2.0204928384
H -2.8896676231 3.5272006558 0.1897499765
H -4.6074083778 -1.2342497915 1.7644484671
H -5.2343325288 -3.5304600963 0.7688171149
H -5.756648461 -2.3806308035 -0.5040865567
H -3.5713064856 -4.3639751967 -0.7304268456
H -3.9073243494 -3.0720294781 -1.9205163389
H -1.5463986205 -3.0481119521 -0.3430096732
H -4.6335367508 3.455749828 0.6328101624
H -4.147490005 3.9437073266 -1.0412922986
H -0.3393350802 2.4365019164 -0.7401254741
H 0.4273485747 2.9486741578 -2.3125368169
H 0.6720330617 3.9502534661 -0.821441337
H 2.69922053 -2.1706125452 -1.221919649
H 1.6254368106 -2.0073736101 -2.661571813
H -0.1728230379 -2.3760618656 -1.251651784
H 0.8615435764 -2.2885113406 0.2383874257
$end

$rem
JOBTYPE                   OPT
METHOD                    B3LYP
DFT_D                     d3_op
BASIS                     STO-3G
GEOM_OPT_MAX_CYCLES       100
GEOM_OPT_TOL_GRADIENT     300
GEOM_OPT_TOL_DISPLACEMENT 1200
GEOM_OPT_TOL_ENERGY       100
SYMMETRY                  False
THRESH                    12
SCF_CONVERGENCE           8
MAX_SUB_FILE_NUM          128
MEM_STATIC                400
MEM_TOTAL                 4000
$end
--------------------------------------------------------------

   16   -1510.2253211267      6.16E-09 Convergence criterion met
 Total energy in the final basis set = -1510.22532113
   14   -1510.2312671709      7.26E-09 Convergence criterion met
 Total energy in the final basis set = -1510.23126717
   14   -1510.2318250547      7.14E-09 Convergence criterion met
 Total energy in the final basis set = -1510.23182505
   14   -1510.2369555559      5.76E-09 Convergence criterion met
 Total energy in the final basis set = -1510.23695556
   14   -1510.2375010956      8.78E-09 Convergence criterion met
 Total energy in the final basis set = -1510.23750110
   14   -1510.2407481227      7.55E-09 Convergence criterion met
 Total energy in the final basis set = -1510.24074812
   14   -1510.2441006976      5.74E-09 Convergence criterion met
 Total energy in the final basis set = -1510.24410070
   14   -1510.2461775982      3.87E-09 Convergence criterion met
   10   -1510.2808343474      8.59E-09 Convergence criterion met
 Total energy in the final basis set = -1510.28083435
    9   -1510.2808446101      9.67E-09 Convergence criterion met
 Total energy in the final basis set = -1510.28084461
   10   -1510.2808515444      7.69E-09 Convergence criterion met
 Total energy in the final basis set = -1510.28085154
    9   -1510.2808546286      8.86E-09 Convergence criterion met
 Total energy in the final basis set = -1510.28085463
    9   -1510.2808529682      4.50E-09 Convergence criterion met
 Total energy in the final basis set = -1510.28085297
    9   -1510.2808510273      4.58E-09 Convergence criterion met
 Total energy in the final basis set = -1510.28085103

             Standard Nuclear Orientation (Angstroms)
    I     Atom           X                Y                Z
 ----------------------------------------------------------------
    1      O      -4.6452521094     1.9550164416     0.8627389506
    2      C      -3.8674604196     1.5083990255    -0.0061758904
    3      C      -3.9262201400     0.0901843126    -0.6931222428
    4      C      -2.7991208817    -0.9289737876    -0.2499159940
    5      C      -1.8434111828    -0.3231004996     0.8462325330
    6      O      -0.7051405844    -1.0691855315     1.2939379078
    7      C      -0.2790313613    -2.1858939102     0.4236210419
    8      C       0.5780059744    -1.6874321934    -0.7914981266
    9      O       1.8307266417    -1.1462780732    -0.2203749296
   10      C       2.6707538385    -0.6247927560    -1.2615021746
   11      C       3.9800982976    -0.0877780484    -0.5961192027
   12      C       3.7137721381     0.9044290379     0.6122369353
   13      C       2.2007602272     1.2501554997     0.8504967720
   14      O       1.5743868556     1.1978127107     1.9292089902
   15      O      -2.8863839725     2.2951092210    -0.7049559627
   16      O       1.6547888773     1.7069804162    -0.3954997147
   17      O       2.3808652543    -0.6598575320    -2.4761432755
   18      C       0.2559604586     2.1602190811    -0.2195693522
   19      C       4.7586566544    -1.2520635811     0.1602998712
   20      C       6.2059244306    -0.7314700194     0.5254192726
   21      C       5.8958201431     0.2015051674     1.7555662787
   22      C       4.3237492949     0.0902987990     1.8266525695
   23      O       4.0674526459    -1.3244328647     1.4651994968
   24      H       4.5961909920     0.3776368760    -1.3847827788
   25      H       4.2553226753     1.8553486353     0.4525220577
   26      H       4.7274866786    -2.2334182319    -0.3518193050
   27      H       6.8584684924    -1.5724646310     0.8086528703
   28      H       6.6722760543    -0.1883064721    -0.3121356196
   29      H       6.3516257930    -0.1864945047     2.6804636038
   30      H       6.2358275951     1.2380891741     1.6015727022
   31      H       3.8585115741     0.3303562571     2.8025627355
   32      O      -2.0565270291     0.7709258130     1.4219403855
   33      C      -2.8084896135     3.6397195210    -0.0935109788
   34      C      -5.2337958188    -0.6946823971    -0.2612398852
   35      C      -5.4784556397    -1.8696747135    -1.2866458260
   36      C      -4.3515509973    -2.8836561900    -0.8613163655
   37      C      -3.6900320460    -2.1112934926     0.3485793116
   38      O      -4.8201980749    -1.3977001468     0.9759349306
   39      H      -3.8868635313     0.2448369958    -1.7862963510
   40      H      -2.2200442786    -1.2645086202    -1.1255033068
   41      H      -2.3910530338     3.5886923527     0.9330911387
   42      H      -6.1043142918    -0.0418463209    -0.0567701007
   43      H      -6.4819625538    -2.3016698179    -1.1460309329
   44      H      -5.3797809054    -1.5373913361    -2.3324236186
   45      H      -4.7746550032    -3.8423607307    -0.5216309785
   46      H      -3.6304383118    -3.0808682790    -1.6706440730
   47      H      -3.1789796503    -2.7485809510     1.0962439546
   48      H      -3.8046435208     4.1246243766    -0.0450167634
   49      H      -2.1358532321     4.2350143373    -0.7378670978
   50      H      -0.1534254993     1.8095371552     0.7500108581
   51      H      -0.3543288938     1.7575791555    -1.0505622155
   52      H       0.2215992093     3.2671904069    -0.2544413583
   53      H       0.7867799787    -2.5403915747    -1.4755686761
   54      H       0.0374710461    -0.9081066601    -1.3724495445
   55      H      -1.1259048061    -2.8020691996     0.0601511865
   56      H       0.3622132410    -2.8189511169     1.0711412145
 ----------------------------------------------------------------

    9   -1510.2808502167      4.72E-09 Convergence criterion met
 Total energy in the final basis set = -1510.28085022
 Final energy is   -1510.28085021672
 **  OPTIMIZATION CONVERGED  **

                    Orbital Energies (a.u.)
 --------------------------------------------------------------

 Alpha MOs
 -- Occupied --
-18.946 -18.936 -18.924 -18.918 -18.894 -18.891 -18.887 -18.877
-18.872 -18.859 -10.112 -10.101 -10.095 -10.091 -10.089 -10.084
-10.069 -10.061 -10.061 -10.056 -10.054 -10.047 -10.047 -10.038
-10.036 -10.035 -10.028 -10.024 -10.021 -10.019  -1.021  -1.014
 -1.002  -0.997  -0.976  -0.969  -0.949  -0.937  -0.930  -0.923
 -0.768  -0.764  -0.731  -0.727  -0.715  -0.710  -0.702  -0.657
 -0.652  -0.617  -0.604  -0.590  -0.551  -0.546  -0.542  -0.537
 -0.522  -0.513  -0.487  -0.480  -0.464  -0.460  -0.459  -0.442
 -0.439  -0.436  -0.430  -0.417  -0.413  -0.407  -0.403  -0.402
 -0.401  -0.386  -0.373  -0.368  -0.363  -0.354  -0.351  -0.349
 -0.348  -0.342  -0.335  -0.332  -0.330  -0.328  -0.324  -0.318
 -0.314  -0.310  -0.305  -0.303  -0.294  -0.290  -0.279  -0.275
 -0.273  -0.258  -0.249  -0.244  -0.242  -0.239  -0.234  -0.182
 -0.180  -0.169  -0.164  -0.158  -0.157  -0.150  -0.148  -0.143
 -0.141

          Ground-State Mulliken Net Atomic Charges

     Atom                 Charge (a.u.)
  ----------------------------------------
      1 O                    -0.216176
      2 C                     0.217416
      3 C                    -0.080852
      4 C                    -0.085847
      5 C                     0.215398
      6 O                    -0.159008
      7 C                    -0.046722
      8 C                    -0.047565
      9 O                    -0.168384
     10 C                     0.213459
     11 C                    -0.078354
     12 C                    -0.077888
     13 C                     0.215749
     14 O                    -0.205708
     15 O                    -0.180548
     16 O                    -0.179142
     17 O                    -0.214319
     18 C                    -0.139965
     19 C                     0.025724
     20 C                    -0.144097
     21 C                    -0.143668
     22 C                     0.024529
     23 O                    -0.186809
     24 H                     0.085648
     25 H                     0.084062
     26 H                     0.080468
     27 H                     0.077677
     28 H                     0.073596
     29 H                     0.078192
     30 H                     0.073338
     31 H                     0.092405
     32 O                    -0.189666
     33 C                    -0.129384
     34 C                     0.025657
     35 C                    -0.144043
     36 C                    -0.144481
     37 C                     0.022359
     38 O                    -0.184872
     39 H                     0.082725
     40 H                     0.078379
     41 H                     0.092086
     42 H                     0.091713
     43 H                     0.079697
     44 H                     0.074146
     45 H                     0.079539
     46 H                     0.070837
     47 H                     0.082016
     48 H                     0.088390
     49 H                     0.084136
     50 H                     0.110200
     51 H                     0.085679
     52 H                     0.079904
     53 H                     0.087538
     54 H                     0.085934
     55 H                     0.084645
     56 H                     0.104256
  ----------------------------------------
  Sum of atomic charges =     0.000000

                    Cartesian Multipole Moments
 -----------------------------------------------------------------
    Charge (ESU x 10^10)
                 0.0000
    Dipole Moment (Debye)
         X       1.6069      Y      -1.7961      Z      -3.3921
       Tot       4.1610
    Quadrupole Moments (Debye-Ang)
        XX    -152.4166     XY       8.7901     YY    -148.2621
        XZ      14.0125     YZ       1.1693     ZZ    -172.5738

 Total job time:  138.49s(wall), 6598.93s(cpu)
        *  Thank you very much for using Q-Chem.  Have a nice day.  *
