 Q-Chem 5.0, Q-Chem, Inc., Pleasanton, CA (2017)
 Q-Chem 5.0.1 for Intel X86 EM64T Linux

User input:
--------------------------------------------------------------
$molecule
0  1
O -3.94934 -3.66094 2.70899
C -3.26408 -4.56952 2.26188
C -3.36658 -6.02376 2.66595
C -2.183 -6.62196 3.44387
C -1.10794 -5.65385 3.88557
O -0.45669 -6.15069 4.97847
C -1.00524 -7.38716 5.44697
C 0.11379 -8.38132 5.7395
O 1.39034 -7.75293 5.54344
C 2.35609 -8.1062 6.42755
C 2.45845 -7.15687 7.59757
C 2.0475 -5.70868 7.29401
C 1.27294 -5.4972 6.0087
O 1.18661 -4.44125 5.39873
O -2.35384 -4.27969 1.2927
O 2.29 -5.99501 5.15967
O 2.73166 -9.26576 6.52059
C 2.48061 -5.87262 3.77823
C 1.49747 -7.48733 8.75545
C 2.03172 -6.88215 10.05277
C 1.79292 -5.40713 9.79613
C 1.061 -5.4765 8.45076
O 0.36179 -6.69627 8.50787
H 3.50858 -7.21844 7.96261
H 2.90896 -5.0005 7.31584
H 1.31989 -8.57762 8.88101
H 1.35251 -7.21433 10.87051
H 3.07705 -7.15556 10.3124
H 1.11819 -5.01796 10.59068
H 2.7089 -4.78064 9.73226
H 0.43943 -4.56623 8.29751
O -0.76489 -4.62 3.33812
C -2.14096 -3.01821 0.77705
C -4.72777 -6.26735 3.25189
C -5.04575 -7.75858 3.29478
C -4.15096 -8.14651 4.42489
C -3.40344 -6.81455 4.63302
O -4.43441 -5.87859 4.51728
H -3.38465 -6.5252 1.67077
H -1.81117 -7.59146 3.03459
H -1.81442 -2.32563 1.58204
H -5.5379 -5.70091 2.7387
H -6.1052 -7.95291 3.57563
H -4.81235 -8.24061 2.31968
H -4.79483 -8.30068 5.323
H -3.5501 -9.06695 4.26201
H -3.17834 -6.78049 5.70758
H -3.07161 -2.63541 0.30619
H -1.34543 -3.07022 0.00579
H 1.61602 -6.30014 3.23041
H 3.39155 -6.43644 3.49102
H 2.62604 -4.8111 3.48573
H -0.01257 -8.93899 6.69773
H 0.11016 -9.16717 4.9437
H -1.6616 -8.17009 5.04014
H -1.3297 -7.14232 6.4827
$end

$opt
CONSTRAINT
tors           1           2           3           4    -111.944
tors           3           4           5           6    +154.842
tors           4           5           6           7      -3.347
tors           5           6           7           8    +134.496
tors           6           7           8           9      +3.831
tors           7           8           9          10    +142.214
tors           8           9          10          11     -94.276
tors           9          10          11          12     -29.160
tors          11          12          13          14    -157.881
ENDCONSTRAINT
$end

$rem
JOBTYPE                   OPT
METHOD                    B3LYP
DFT_D                     d3_op
BASIS                     STO-3G
GEOM_OPT_MAX_CYCLES       100
GEOM_OPT_TOL_GRADIENT     300
GEOM_OPT_TOL_DISPLACEMENT 1200
GEOM_OPT_TOL_ENERGY       100
SYMMETRY                  False
THRESH                    12
SCF_CONVERGENCE           8
MAX_SUB_FILE_NUM          128
MEM_STATIC                400
MEM_TOTAL                 4000
$end
--------------------------------------------------------------

   18   -1509.8151086036      4.06E-09 Convergence criterion met
 Total energy in the final basis set = -1509.81510860
   15   -1509.9198024685      8.81E-09 Convergence criterion met
 Total energy in the final basis set = -1509.91980247
   15   -1510.0046507838      5.94E-09 Convergence criterion met
 Total energy in the final basis set = -1510.00465078
   15   -1510.0671245306      3.42E-09 Convergence criterion met
 Total energy in the final basis set = -1510.06712453
   15   -1510.1095435493      2.31E-09 Convergence criterion met
 Total energy in the final basis set = -1510.10954355
   14   -1510.1379311232      8.85E-09 Convergence criterion met
 Total energy in the final basis set = -1510.13793112
   14   -1510.1574126143      7.87E-09 Convergence criterion met
 Total energy in the final basis set = -1510.15741261
   14   -1510.1716931186      5.68E-09 Convergence criterion met
   10   -1510.2250887813      7.32E-09 Convergence criterion met
 Total energy in the final basis set = -1510.22508878
    9   -1510.2250930433      7.79E-09 Convergence criterion met
 Total energy in the final basis set = -1510.22509304
   10   -1510.2250957653      6.03E-09 Convergence criterion met
 Total energy in the final basis set = -1510.22509577
    9   -1510.2250978356      8.67E-09 Convergence criterion met
 Total energy in the final basis set = -1510.22509784
    9   -1510.2250991885      6.74E-09 Convergence criterion met
 Total energy in the final basis set = -1510.22509919
    9   -1510.2251003049      6.98E-09 Convergence criterion met
 Total energy in the final basis set = -1510.22510030

             Standard Nuclear Orientation (Angstroms)
    I     Atom           X                Y                Z
 ----------------------------------------------------------------
    1      O      -3.8085612612     1.2842337295     1.5979620480
    2      C      -3.7607957982     0.9765330895     0.3875340747
    3      C      -3.8155014522    -0.4766189120    -0.2239771802
    4      C      -2.4771930467    -1.0002413905    -0.9165853934
    5      C      -1.2689890957    -0.0738317725    -0.4372853240
    6      O       0.1048695427    -0.4191395316    -0.3768547190
    7      C       0.5798662759    -1.7806143503    -0.7079186985
    8      C       1.8510663849    -1.6008390129    -1.6485733162
    9      O       2.1049337575    -0.1479329306    -1.7390425210
   10      C       3.5250113716     0.1695520647    -1.7507574576
   11      C       4.1825828244     0.5163302460    -0.3487066373
   12      C       3.2804293139     1.1719527714     0.7726924882
   13      C       2.0868064311     2.1329132915     0.4185331549
   14      O       1.6162300306     2.9675561720     1.2265287850
   15      O      -3.9697776843     1.9009700188    -0.6984585031
   16      O       1.7508150166     2.0921541831    -0.9609548224
   17      O       4.1652959095     0.2379593732    -2.8218421341
   18      C       0.5472544414     2.9213990147    -1.2143792275
   19      C       4.4954075964    -0.8693182091     0.3788464114
   20      C       5.3009628173    -0.6246476697     1.7199589363
   21      C       4.1462678485    -0.2213157675     2.7130001021
   22      C       2.9445233844    -0.0849016717     1.7020744402
   23      O       3.1450784732    -1.2712050524     0.8392629660
   24      H       5.0948869774     1.1072010924    -0.5445894294
   25      H       3.9494400296     1.8246415679     1.3641587663
   26      H       4.9287960257    -1.6447398023    -0.2829537964
   27      H       5.8119187501    -1.5464957210     2.0390512862
   28      H       6.0532684918     0.1715865277     1.6018619299
   29      H       3.9451387502    -1.0255397670     3.4390808399
   30      H       4.3519921454     0.7120003604     3.2607992864
   31      H       1.9294043948    -0.0878521951     2.1443135280
   32      O      -1.5026762783     1.1100076200    -0.0639163896
   33      C      -3.9052174984     3.2856142582    -0.1864962038
   34      C      -4.1346290913    -1.6054944822     0.8345377207
   35      C      -4.8914186235    -2.7533237809     0.0666759193
   36      C      -3.7304554898    -3.2811446933    -0.8531166709
   37      C      -2.4855292627    -2.4757297737    -0.2913565862
   38      O      -2.8185642769    -2.2177876992     1.1254243800
   39      H      -4.6114220512    -0.4426851166    -0.9906022180
   40      H      -2.5368031635    -0.9900317830    -2.0204928384
   41      H      -2.8896676231     3.5272006558     0.1897499765
   42      H      -4.6074083778    -1.2342497915     1.7644484671
   43      H      -5.2343325288    -3.5304600963     0.7688171149
   44      H      -5.7566484610    -2.3806308035    -0.5040865567
   45      H      -3.5713064856    -4.3639751967    -0.7304268456
   46      H      -3.9073243494    -3.0720294781    -1.9205163389
   47      H      -1.5463986205    -3.0481119521    -0.3430096732
   48      H      -4.6335367508     3.4557498280     0.6328101624
   49      H      -4.1474900050     3.9437073266    -1.0412922986
   50      H      -0.3393350802     2.4365019164    -0.7401254741
   51      H       0.4273485747     2.9486741578    -2.3125368169
   52      H       0.6720330617     3.9502534661    -0.8214413370
   53      H       2.6992205300    -2.1706125452    -1.2219196490
   54      H       1.6254368106    -2.0073736101    -2.6615718130
   55      H      -0.1728230379    -2.3760618656    -1.2516517840
   56      H       0.8615435764    -2.2885113406     0.2383874257
 ----------------------------------------------------------------

    9   -1510.2251008076      7.66E-09 Convergence criterion met
 Total energy in the final basis set = -1510.22510081
 Final energy is   -1510.22510080758
 **  OPTIMIZATION CONVERGED  **

                    Orbital Energies (a.u.)
 --------------------------------------------------------------

 Alpha MOs
 -- Occupied --
-18.954 -18.921 -18.908 -18.898 -18.895 -18.892 -18.892 -18.890
-18.853 -18.850 -10.117 -10.105 -10.086 -10.086 -10.083 -10.072
-10.067 -10.066 -10.062 -10.060 -10.050 -10.047 -10.038 -10.034
-10.032 -10.032 -10.026 -10.025 -10.023 -10.021  -1.022  -1.002
 -0.994  -0.989  -0.977  -0.976  -0.948  -0.927  -0.917  -0.916
 -0.765  -0.763  -0.724  -0.722  -0.711  -0.708  -0.705  -0.649
 -0.643  -0.607  -0.600  -0.590  -0.550  -0.545  -0.541  -0.540
 -0.524  -0.513  -0.492  -0.473  -0.464  -0.456  -0.452  -0.446
 -0.436  -0.434  -0.425  -0.414  -0.406  -0.401  -0.397  -0.397
 -0.392  -0.386  -0.374  -0.363  -0.361  -0.353  -0.347  -0.342
 -0.340  -0.334  -0.333  -0.332  -0.328  -0.323  -0.318  -0.317
 -0.317  -0.312  -0.308  -0.303  -0.293  -0.287  -0.280  -0.270
 -0.266  -0.248  -0.241  -0.240  -0.238  -0.235  -0.226  -0.182
 -0.165  -0.157  -0.155  -0.154  -0.151  -0.149  -0.142  -0.135
 -0.134

          Ground-State Mulliken Net Atomic Charges

     Atom                 Charge (a.u.)
  ----------------------------------------
      1 O                    -0.224974
      2 C                     0.217463
      3 C                    -0.081350
      4 C                    -0.079332
      5 C                     0.222016
      6 O                    -0.151934
      7 C                    -0.041760
      8 C                    -0.042177
      9 O                    -0.180860
     10 C                     0.226653
     11 C                    -0.079602
     12 C                    -0.080523
     13 C                     0.210505
     14 O                    -0.220167
     15 O                    -0.179598
     16 O                    -0.162461
     17 O                    -0.184879
     18 C                    -0.140016
     19 C                     0.021198
     20 C                    -0.145170
     21 C                    -0.140707
     22 C                     0.026562
     23 O                    -0.199425
     24 H                     0.085811
     25 H                     0.083366
     26 H                     0.077658
     27 H                     0.078054
     28 H                     0.075584
     29 H                     0.077643
     30 H                     0.077528
     31 H                     0.090466
     32 O                    -0.195135
     33 C                    -0.128883
     34 C                     0.023121
     35 C                    -0.141969
     36 C                    -0.145682
     37 C                     0.019261
     38 O                    -0.191360
     39 H                     0.083141
     40 H                     0.088339
     41 H                     0.090046
     42 H                     0.092775
     43 H                     0.078480
     44 H                     0.075205
     45 H                     0.077721
     46 H                     0.073204
     47 H                     0.078614
     48 H                     0.085984
     49 H                     0.083877
     50 H                     0.108021
     51 H                     0.082203
     52 H                     0.083596
     53 H                     0.088465
     54 H                     0.073618
     55 H                     0.084277
     56 H                     0.097507
  ----------------------------------------
  Sum of atomic charges =    -0.000000

                    Cartesian Multipole Moments
 -----------------------------------------------------------------
    Charge (ESU x 10^10)
                 0.0000
    Dipole Moment (Debye)
         X       0.3428      Y      -3.6970      Z      -1.4106
       Tot       3.9718
    Quadrupole Moments (Debye-Ang)
        XX    -146.7589     XY       1.1072     YY    -154.0444
        XZ      16.0528     YZ       1.2127     ZZ    -167.8980

 Total job time:  125.13s(wall), 5970.08s(cpu)
        *  Thank you very much for using Q-Chem.  Have a nice day.  *
