 Q-Chem 5.0, Q-Chem, Inc., Pleasanton, CA (2017)
 Q-Chem 5.0.1 for Intel X86 EM64T Linux

User input:
--------------------------------------------------------------
$molecule
0  1
O -3.94934 -3.66094 2.70899
C -3.26408 -4.56952 2.26188
C -3.36658 -6.02376 2.66595
C -2.11413 -6.89535 2.47741
C -0.8465 -6.17595 2.07285
O -1.1033 -5.33598 1.02694
C 0.03714 -4.56801 0.62834
C -0.25022 -3.84133 -0.68144
O -0.25069 -2.42168 -0.46358
C 0.30739 -1.67985 -1.45221
C 1.79124 -1.47076 -1.26477
C 2.49048 -0.72842 -2.41293
C 1.57928 -0.00363 -3.38304
O 1.62937 -0.08949 -4.60151
O -3.18577 -4.43976 0.90199
O 0.71515 0.90482 -2.84734
O -0.32557 -1.4841 -2.47821
C -0.15329 1.68578 -3.58109
C 2.1514 -0.55704 -0.07592
C 3.57453 -0.8648 0.38837
C 4.37761 -0.30492 -0.77053
C 3.25539 0.33274 -1.59919
O 2.30323 0.72253 -0.63785
H 2.24549 -2.4728 -1.09411
H 3.16244 -1.38653 -3.00717
H 1.43999 -0.63829 0.77465
H 3.76266 -0.23529 1.28775
H 3.78097 -1.92762 0.63887
H 5.07025 0.47047 -0.37455
H 4.94235 -1.05587 -1.3645
H 3.65557 1.14507 -2.24565
O 0.20372 -6.19743 2.70666
C -3.50539 -3.30394 0.17307
C -3.54255 -6.17628 4.19742
C -4.21683 -7.51068 4.51252
C -3.09489 -8.4749 4.19376
C -1.96284 -7.48782 3.88783
O -2.24333 -6.376 4.69954
H -4.27883 -6.43599 2.17755
H -2.28666 -7.66685 1.69496
H -2.853 -2.45832 0.47762
H -4.12086 -5.34921 4.66425
H -4.39643 -7.52923 5.61171
H -5.17522 -7.70412 3.98446
H -2.87005 -9.06738 5.10835
H -3.28303 -9.15522 3.33496
H -0.97678 -7.97715 4.04554
H -4.57045 -3.03039 0.33097
H -3.36762 -3.50436 -0.90789
H -0.73582 2.32878 -2.89003
H -0.8577 1.04222 -4.15028
H 0.41389 2.33471 -4.28196
H 0.5346 -4.12408 -1.42334
H -1.20267 -4.18081 -1.13278
H 0.87463 -5.27389 0.4157
H 0.37571 -3.8702 1.42736
$end

$opt
CONSTRAINT
tors           1           2           3           4    -155.139
tors           3           4           5           6     -48.361
tors           4           5           6           7    +177.101
tors           5           6           7           8    +170.219
tors           6           7           8           9    +114.810
tors           7           8           9          10    +141.320
tors           8           9          10          11     -89.162
tors           9          10          11          12    +175.524
tors          11          12          13          14    -130.592
ENDCONSTRAINT
$end

$rem
JOBTYPE                   OPT
METHOD                    B3LYP
DFT_D                     d3_op
BASIS                     STO-3G
GEOM_OPT_MAX_CYCLES       100
GEOM_OPT_TOL_GRADIENT     300
GEOM_OPT_TOL_DISPLACEMENT 1200
GEOM_OPT_TOL_ENERGY       100
SYMMETRY                  False
THRESH                    12
SCF_CONVERGENCE           8
MAX_SUB_FILE_NUM          128
MEM_STATIC                400
MEM_TOTAL                 4000
$end
--------------------------------------------------------------

   16   -1510.0875465286      3.11E-09 Convergence criterion met
 Total energy in the final basis set = -1510.08754653
   14   -1510.1615653478      5.72E-09 Convergence criterion met
 Total energy in the final basis set = -1510.16156535
   14   -1510.1982854974      7.49E-09 Convergence criterion met
 Total energy in the final basis set = -1510.19828550
   15   -1510.2221712187      3.46E-09 Convergence criterion met
 Total energy in the final basis set = -1510.22217122
   14   -1510.2321668656      4.97E-09 Convergence criterion met
 Total energy in the final basis set = -1510.23216687
   13   -1510.2377488733      4.70E-09 Convergence criterion met
 Total energy in the final basis set = -1510.23774887
   13   -1510.2407398824      3.65E-09 Convergence criterion met
 Total energy in the final basis set = -1510.24073988
   12   -1510.2418264764      8.80E-09 Convergence criterion met
   11   -1510.2481586966      7.86E-09 Convergence criterion met
 Total energy in the final basis set = -1510.24815870
   11   -1510.2481995072      8.58E-09 Convergence criterion met
 Total energy in the final basis set = -1510.24819951
   11   -1510.2482437781      3.12E-09 Convergence criterion met
 Total energy in the final basis set = -1510.24824378
   11   -1510.2482890865      6.99E-09 Convergence criterion met
 Total energy in the final basis set = -1510.24828909
   11   -1510.2482976111      4.65E-09 Convergence criterion met
 Total energy in the final basis set = -1510.24829761
    9   -1510.2483006450      6.94E-09 Convergence criterion met
 Total energy in the final basis set = -1510.24830064

             Standard Nuclear Orientation (Angstroms)
    I     Atom           X                Y                Z
 ----------------------------------------------------------------
    1      O      -4.1320749493     2.3845833898     1.9715947032
    2      C      -3.8055398693     1.4886056368     1.1600161678
    3      C      -4.6003456509     1.1527732253    -0.1647083663
    4      C      -4.4489926495    -0.3111727967    -0.7382019188
    5      C      -3.0762866675    -1.0378953826    -0.5308978483
    6      O      -2.0287089703    -0.1383237644    -0.9201610014
    7      C      -0.7099260046    -0.7641064152    -0.6729386633
    8      C       0.3835782836     0.1486565199    -1.3448238336
    9      O       1.2356204179     0.7084083787    -0.2700503161
   10      C       2.6265953663     0.7371734942    -0.7179646956
   11      C       3.3604474265    -0.6078532932    -0.3683090239
   12      C       4.8421412815    -0.7461796452    -0.8981859581
   13      C       5.5266029129     0.5997656870    -1.3402452300
   14      O       6.1297361443     0.8001768951    -2.4177804266
   15      O      -2.7597284989     0.5475695387     1.4069456632
   16      O       5.5372778390     1.5082439667    -0.2339917477
   17      O       3.1216821566     1.7347623449    -1.2794171841
   18      C       6.1794051726     2.7791520183    -0.6355580084
   19      C       3.5408159585    -0.8968162721     1.1882970570
   20      C       3.6231999986    -2.4643867473     1.3557261506
   21      C       5.0422037621    -2.7499803967     0.7344584117
   22      C       5.5495639793    -1.2837179878     0.4242343236
   23      O       4.9213104692    -0.4602813555     1.4842364844
   24      H       2.7355315417    -1.4094015895    -0.8043922183
   25      H       4.9139270064    -1.4584634442    -1.7380867745
   26      H       2.8116287273    -0.3814063693     1.8431683567
   27      H       3.5881694735    -2.7384585141     2.4224330062
   28      H       2.8091475646    -2.9871111558     0.8284045894
   29      H       5.7098222468    -3.2434611590     1.4582653011
   30      H       4.9907386588    -3.3688443548    -0.1757917881
   31      H       6.6493081273    -1.1561082871     0.4381174003
   32      O      -2.8928720848    -2.2090582909    -0.1366133881
   33      C      -2.0883059560     0.8331932135     2.6956157471
   34      C      -6.1158345101     1.0701770936     0.3137525528
   35      C      -7.0927052017     0.8015688425    -0.8996996009
   36      C      -6.9202278087    -0.7512105972    -1.1067126587
   37      C      -5.7223441533    -1.0346779800    -0.1221528886
   38      O      -6.0885130946    -0.2162199253     1.0588743757
   39      H      -4.4098196239     1.9286183837    -0.9279187684
   40      H      -4.5769300798    -0.2464675088    -1.8360924240
   41      H      -2.1379977242    -0.0756314985     3.3261708465
   42      H      -6.4058871648     1.9008503395     0.9865326664
   43      H      -8.1273098969     1.0660591618    -0.6305996281
   44      H      -6.8024169960     1.3792674200    -1.7922272250
   45      H      -7.8195294602    -1.2999735054    -0.7835469220
   46      H      -6.6908930060    -1.0241724890    -2.1491531338
   47      H      -5.5561499961    -2.0919705272     0.1628827042
   48      H      -2.6019523113     1.6793373037     3.1957121443
   49      H      -1.0285800085     1.0903981293     2.4991190308
   50      H       6.2507159720     3.3887917647     0.2837326879
   51      H       5.5666274551     3.3154667015    -1.3890018661
   52      H       7.1925297093     2.6130463476    -1.0553471352
   53      H       0.9698460188    -0.4457855202    -2.0775842958
   54      H      -0.1260411392     0.9695704935    -1.9010204563
   55      H      -0.6842855475    -1.7962825127    -1.0845898956
   56      H      -0.5102778531    -0.8251288612     0.4200228864
 ----------------------------------------------------------------

    9   -1510.2483015160      5.73E-09 Convergence criterion met
 Total energy in the final basis set = -1510.24830152
 Final energy is   -1510.24830151596
 **  OPTIMIZATION CONVERGED  **

                    Orbital Energies (a.u.)
 --------------------------------------------------------------

 Alpha MOs
 -- Occupied --
-18.938 -18.930 -18.925 -18.917 -18.903 -18.894 -18.885 -18.873
-18.872 -18.864 -10.117 -10.101 -10.101 -10.092 -10.079 -10.073
-10.067 -10.064 -10.058 -10.058 -10.058 -10.054 -10.043 -10.041
-10.039 -10.037 -10.025 -10.024 -10.021 -10.020  -1.016  -1.015
 -1.006  -1.001  -0.975  -0.970  -0.945  -0.936  -0.933  -0.926
 -0.767  -0.764  -0.727  -0.725  -0.714  -0.707  -0.698  -0.660
 -0.653  -0.612  -0.602  -0.584  -0.551  -0.545  -0.542  -0.537
 -0.518  -0.511  -0.485  -0.485  -0.468  -0.466  -0.448  -0.442
 -0.438  -0.431  -0.416  -0.416  -0.411  -0.406  -0.404  -0.404
 -0.395  -0.391  -0.377  -0.371  -0.363  -0.358  -0.356  -0.348
 -0.344  -0.340  -0.339  -0.334  -0.330  -0.328  -0.320  -0.316
 -0.312  -0.311  -0.308  -0.303  -0.299  -0.293  -0.290  -0.278
 -0.270  -0.253  -0.251  -0.244  -0.240  -0.238  -0.234  -0.182
 -0.172  -0.168  -0.163  -0.160  -0.158  -0.150  -0.148  -0.144
 -0.144

          Ground-State Mulliken Net Atomic Charges

     Atom                 Charge (a.u.)
  ----------------------------------------
      1 O                    -0.217034
      2 C                     0.215751
      3 C                    -0.073758
      4 C                    -0.081048
      5 C                     0.218597
      6 O                    -0.172772
      7 C                    -0.047109
      8 C                    -0.047030
      9 O                    -0.200786
     10 C                     0.225000
     11 C                    -0.082782
     12 C                    -0.081282
     13 C                     0.210771
     14 O                    -0.218502
     15 O                    -0.167737
     16 O                    -0.165105
     17 O                    -0.170787
     18 C                    -0.127243
     19 C                     0.026758
     20 C                    -0.142243
     21 C                    -0.145033
     22 C                     0.026901
     23 O                    -0.182260
     24 H                     0.078458
     25 H                     0.083822
     26 H                     0.087593
     27 H                     0.079292
     28 H                     0.072976
     29 H                     0.079250
     30 H                     0.073990
     31 H                     0.084392
     32 O                    -0.218303
     33 C                    -0.135597
     34 C                     0.023251
     35 C                    -0.146152
     36 C                    -0.141197
     37 C                     0.022415
     38 O                    -0.192631
     39 H                     0.087286
     40 H                     0.081756
     41 H                     0.088008
     42 H                     0.089748
     43 H                     0.079059
     44 H                     0.073341
     45 H                     0.078139
     46 H                     0.072733
     47 H                     0.090222
     48 H                     0.104815
     49 H                     0.087769
     50 H                     0.089400
     51 H                     0.090565
     52 H                     0.087535
     53 H                     0.077565
     54 H                     0.090555
     55 H                     0.086151
     56 H                     0.092526
  ----------------------------------------
  Sum of atomic charges =    -0.000000

                    Cartesian Multipole Moments
 -----------------------------------------------------------------
    Charge (ESU x 10^10)
                -0.0000
    Dipole Moment (Debye)
         X      -0.3858      Y      -1.8689      Z      -1.4869
       Tot       2.4192
    Quadrupole Moments (Debye-Ang)
        XX    -162.7715     XY      -8.2618     YY    -161.0239
        XZ      16.4829     YZ       0.4704     ZZ    -162.6710

 Total job time:  158.47s(wall), 7547.96s(cpu)
        *  Thank you very much for using Q-Chem.  Have a nice day.  *
