 Q-Chem 5.0, Q-Chem, Inc., Pleasanton, CA (2017)
 Q-Chem 5.0.1 for Intel X86 EM64T Linux

User input:
--------------------------------------------------------------
$molecule
0  1
O -4.1320749493 2.3845833898 1.9715947032
C -3.8055398693 1.4886056368 1.1600161678
C -4.6003456509 1.1527732253 -0.1647083663
C -4.4489926495 -0.3111727967 -0.7382019188
C -3.0762866675 -1.0378953826 -0.5308978483
O -2.0287089703 -0.1383237644 -0.9201610014
C -0.7099260046 -0.7641064152 -0.6729386633
C 0.3835782836 0.1486565199 -1.3448238336
O 1.2356204179 0.7084083787 -0.2700503161
C 2.6265953663 0.7371734942 -0.7179646956
C 3.3604474265 -0.6078532932 -0.3683090239
C 4.8421412815 -0.7461796452 -0.8981859581
C 5.5266029129 0.599765687 -1.34024523
O 6.1297361443 0.8001768951 -2.4177804266
O -2.7597284989 0.5475695387 1.4069456632
O 5.537277839 1.5082439667 -0.2339917477
O 3.1216821566 1.7347623449 -1.2794171841
C 6.1794051726 2.7791520183 -0.6355580084
C 3.5408159585 -0.8968162721 1.188297057
C 3.6231999986 -2.4643867473 1.3557261506
C 5.0422037621 -2.7499803967 0.7344584117
C 5.5495639793 -1.2837179878 0.4242343236
O 4.9213104692 -0.4602813555 1.4842364844
H 2.7355315417 -1.4094015895 -0.8043922183
H 4.9139270064 -1.4584634442 -1.7380867745
H 2.8116287273 -0.3814063693 1.8431683567
H 3.5881694735 -2.7384585141 2.4224330062
H 2.8091475646 -2.9871111558 0.8284045894
H 5.7098222468 -3.243461159 1.4582653011
H 4.9907386588 -3.3688443548 -0.1757917881
H 6.6493081273 -1.1561082871 0.4381174003
O -2.8928720848 -2.2090582909 -0.1366133881
C -2.088305956 0.8331932135 2.6956157471
C -6.1158345101 1.0701770936 0.3137525528
C -7.0927052017 0.8015688425 -0.8996996009
C -6.9202278087 -0.7512105972 -1.1067126587
C -5.7223441533 -1.03467798 -0.1221528886
O -6.0885130946 -0.2162199253 1.0588743757
H -4.4098196239 1.9286183837 -0.9279187684
H -4.5769300798 -0.2464675088 -1.836092424
H -2.1379977242 -0.0756314985 3.3261708465
H -6.4058871648 1.9008503395 0.9865326664
H -8.1273098969 1.0660591618 -0.6305996281
H -6.802416996 1.37926742 -1.792227225
H -7.8195294602 -1.2999735054 -0.783546922
H -6.690893006 -1.024172489 -2.1491531338
H -5.5561499961 -2.0919705272 0.1628827042
H -2.6019523113 1.6793373037 3.1957121443
H -1.0285800085 1.0903981293 2.4991190308
H 6.250715972 3.3887917647 0.2837326879
H 5.5666274551 3.3154667015 -1.3890018661
H 7.1925297093 2.6130463476 -1.0553471352
H 0.9698460188 -0.4457855202 -2.0775842958
H -0.1260411392 0.9695704935 -1.9010204563
H -0.6842855475 -1.7962825127 -1.0845898956
H -0.5102778531 -0.8251288612 0.4200228864
$end

$rem
JOBTYPE                   OPT
METHOD                    B3LYP
DFT_D                     d3_op
BASIS                     STO-3G
GEOM_OPT_MAX_CYCLES       100
GEOM_OPT_TOL_GRADIENT     300
GEOM_OPT_TOL_DISPLACEMENT 1200
GEOM_OPT_TOL_ENERGY       100
SYMMETRY                  False
THRESH                    12
SCF_CONVERGENCE           8
MAX_SUB_FILE_NUM          128
MEM_STATIC                400
MEM_TOTAL                 4000
$end
--------------------------------------------------------------

   16   -1510.2481828597      5.37E-09 Convergence criterion met
 Total energy in the final basis set = -1510.24818286
   13   -1510.2508488399      4.67E-09 Convergence criterion met
 Total energy in the final basis set = -1510.25084884
   13   -1510.2529444222      9.60E-09 Convergence criterion met
 Total energy in the final basis set = -1510.25294442
   14   -1510.2545960017      2.24E-09 Convergence criterion met
 Total energy in the final basis set = -1510.25459600
   14   -1510.2561633165      5.06E-09 Convergence criterion met
 Total energy in the final basis set = -1510.25616332
   13   -1510.2575739060      6.94E-09 Convergence criterion met
 Total energy in the final basis set = -1510.25757391
   13   -1510.2592561213      8.26E-09 Convergence criterion met
 Total energy in the final basis set = -1510.25925612
   13   -1510.2609252809      9.98E-09 Convergence criterion met
   12   -1510.2860566052      3.16E-09 Convergence criterion met
 Total energy in the final basis set = -1510.28605661
   12   -1510.2860917862      2.92E-09 Convergence criterion met
 Total energy in the final basis set = -1510.28609179
   12   -1510.2860809597      4.66E-09 Convergence criterion met
 Total energy in the final basis set = -1510.28608096
   11   -1510.2860969726      6.75E-09 Convergence criterion met
 Total energy in the final basis set = -1510.28609697
   11   -1510.2861059605      3.99E-09 Convergence criterion met
 Total energy in the final basis set = -1510.28610596
   11   -1510.2861088349      3.59E-09 Convergence criterion met
 Total energy in the final basis set = -1510.28610883

             Standard Nuclear Orientation (Angstroms)
    I     Atom           X                Y                Z
 ----------------------------------------------------------------
    1      O      -0.3718303492     1.4619388668     1.2136422553
    2      C      -1.4356035587     0.8963573714     0.8812848413
    3      C      -2.0376259000     0.8141118835    -0.5618152528
    4      C      -2.5254807510    -0.6348875441    -0.9892943123
    5      C      -2.3808060214    -1.7027760931     0.1497459391
    6      O      -0.9773772799    -1.8654821826     0.4400276277
    7      C      -0.7929790174    -2.7460582987     1.6153602306
    8      C       0.6674886042    -2.5669680558     2.1631248761
    9      O       0.9629133511    -1.2050413486     2.6675108418
   10      C       1.7041965105    -0.3380048413     1.7635280433
   11      C       1.6450110093    -0.6478274300     0.2261103519
   12      C       1.9487906644     0.6223762204    -0.6738580664
   13      C       2.5298002017     1.8660673984     0.1012829349
   14      O       1.9187031884     2.9229997535     0.3679991971
   15      O      -2.3025122943     0.2221598288     1.7968114030
   16      O       3.9290129708     1.6603167348     0.3406894367
   17      O       2.2508377012     0.6551535418     2.2886076839
   18      C       4.4658686703     2.7929784086     1.1251217579
   19      C       2.7380340075    -1.6730598318    -0.3341716389
   20      C       2.1473622362    -2.2674902892    -1.6739266400
   21      C       2.2869049907    -1.0247923123    -2.6291265137
   22      C       3.0097386933     0.0182026060    -1.6822031909
   23      O       3.8513416436    -0.8265423893    -0.8041647175
   24      H       0.6224827073    -1.0334663362     0.0285424886
   25      H       1.0301956657     0.9599827641    -1.1846508482
   26      H       3.1192168650    -2.4200938967     0.3884908065
   27      H       2.7606392755    -3.1140769968    -2.0219133534
   28      H       1.1046161807    -2.6052517124    -1.5591331404
   29      H       2.9136757323    -1.2551632052    -3.5051097806
   30      H       1.3120920288    -0.6513059960    -2.9819100803
   31      H       3.6309233599     0.7721868390    -2.2024291922
   32      O      -3.2790809326    -2.3703771712     0.6991236317
   33      C      -1.6912316985     0.2222444318     3.1515754116
   34      C      -3.3990792961     1.6296874761    -0.6982695040
   35      C      -3.6823268276     1.8562881967    -2.2359337769
   36      C      -4.1499690658     0.4186142342    -2.6741997431
   37      C      -4.0527937695    -0.3638581362    -1.3064657797
   38      O      -4.4310657535     0.6498050523    -0.2941055531
   39      H      -1.2717252958     1.1999096314    -1.2572516649
   40      H      -1.9697544211    -0.9909933186    -1.8762756319
   41      H      -2.3855791937    -0.3511785714     3.7922236887
   42      H      -3.4547368595     2.5378903046    -0.0675541057
   43      H      -4.4827703313     2.6006565376    -2.3727219067
   44      H      -2.7860553429     2.1982355714    -2.7776457936
   45      H      -5.1888103572     0.4259034767    -3.0407396165
   46      H      -3.5044966774    -0.0211161629    -3.4513330663
   47      H      -4.6963376279    -1.2601079662    -1.2137980156
   48      H      -1.5924003834     1.2539797464     3.5441873649
   49      H      -0.6859626589    -0.2621408753     3.1345428805
   50      H       5.5503370329     2.6058375036     1.2307346786
   51      H       3.9970540474     2.8401051246     2.1294315753
   52      H       4.3026016897     3.7634591382     0.6128740034
   53      H       0.7701703790    -3.2368499551     3.0439416820
   54      H       1.3918114385    -2.9011278952     1.3979527641
   55      H      -0.9344456250    -3.8126087446     1.3287403324
   56      H      -1.5412928702    -2.5029629916     2.3979012412
 ----------------------------------------------------------------

    9   -1510.2861077801      5.32E-09 Convergence criterion met
 Total energy in the final basis set = -1510.28610778
 Final energy is   -1510.28610778014
 **  OPTIMIZATION CONVERGED  **

                    Orbital Energies (a.u.)
 --------------------------------------------------------------

 Alpha MOs
 -- Occupied --
-18.947 -18.937 -18.933 -18.911 -18.892 -18.891 -18.889 -18.889
-18.875 -18.850 -10.114 -10.105 -10.097 -10.090 -10.087 -10.080
-10.064 -10.063 -10.062 -10.057 -10.048 -10.046 -10.044 -10.041
-10.028 -10.025 -10.024 -10.023 -10.023 -10.021  -1.027  -1.010
 -1.008  -0.988  -0.974  -0.970  -0.952  -0.940  -0.934  -0.913
 -0.770  -0.759  -0.734  -0.721  -0.719  -0.708  -0.704  -0.654
 -0.644  -0.621  -0.598  -0.590  -0.552  -0.547  -0.542  -0.538
 -0.518  -0.515  -0.492  -0.485  -0.470  -0.463  -0.449  -0.440
 -0.437  -0.431  -0.427  -0.415  -0.411  -0.405  -0.404  -0.402
 -0.395  -0.391  -0.378  -0.365  -0.364  -0.362  -0.357  -0.345
 -0.339  -0.335  -0.334  -0.331  -0.328  -0.325  -0.319  -0.313
 -0.312  -0.310  -0.309  -0.302  -0.301  -0.295  -0.284  -0.275
 -0.270  -0.259  -0.251  -0.245  -0.238  -0.233  -0.232  -0.193
 -0.181  -0.171  -0.167  -0.155  -0.153  -0.149  -0.147  -0.142
 -0.129

          Ground-State Mulliken Net Atomic Charges

     Atom                 Charge (a.u.)
  ----------------------------------------
      1 O                    -0.205273
      2 C                     0.206004
      3 C                    -0.079810
      4 C                    -0.079517
      5 C                     0.222642
      6 O                    -0.184890
      7 C                    -0.050184
      8 C                    -0.050952
      9 O                    -0.175342
     10 C                     0.218306
     11 C                    -0.100858
     12 C                    -0.076493
     13 C                     0.215791
     14 O                    -0.213899
     15 O                    -0.171490
     16 O                    -0.169464
     17 O                    -0.183197
     18 C                    -0.127335
     19 C                     0.022239
     20 C                    -0.144171
     21 C                    -0.144680
     22 C                     0.026271
     23 O                    -0.183173
     24 H                     0.103155
     25 H                     0.079189
     26 H                     0.076133
     27 H                     0.076259
     28 H                     0.072041
     29 H                     0.077200
     30 H                     0.070452
     31 H                     0.085217
     32 O                    -0.203405
     33 C                    -0.142778
     34 C                     0.026615
     35 C                    -0.143500
     36 C                    -0.144278
     37 C                     0.025391
     38 O                    -0.184614
     39 H                     0.083053
     40 H                     0.082578
     41 H                     0.084553
     42 H                     0.086417
     43 H                     0.079531
     44 H                     0.074477
     45 H                     0.079306
     46 H                     0.072407
     47 H                     0.090134
     48 H                     0.088043
     49 H                     0.104474
     50 H                     0.085429
     51 H                     0.092532
     52 H                     0.083996
     53 H                     0.093547
     54 H                     0.089842
     55 H                     0.087179
     56 H                     0.098897
  ----------------------------------------
  Sum of atomic charges =     0.000000

                    Cartesian Multipole Moments
 -----------------------------------------------------------------
    Charge (ESU x 10^10)
                -0.0000
    Dipole Moment (Debye)
         X      -0.6390      Y      -2.9589      Z      -2.6586
       Tot       4.0288
    Quadrupole Moments (Debye-Ang)
        XX    -173.5385     XY      -4.6507     YY    -154.8042
        XZ       3.2572     YZ      -5.5320     ZZ    -153.5395

 Total job time:  198.18s(wall), 9450.13s(cpu)
        *  Thank you very much for using Q-Chem.  Have a nice day.  *
