 Q-Chem 5.0, Q-Chem, Inc., Pleasanton, CA (2017)
 Q-Chem 5.0.1 for Intel X86 EM64T Linux

User input:
--------------------------------------------------------------
$molecule
0  1
O 5.4239507415 -2.6987149036 -0.2908556439
C 4.7065838236 -1.7411609163 -0.6538252132
C 5.0619866234 -0.2177581191 -0.5250907299
C 3.8802368384 0.8260300858 -0.4764943247
C 2.5383219357 0.2887986187 0.1567009857
O 1.6810932903 1.4236728239 0.4730542372
C 0.3821865068 1.2713325843 -0.2195268117
C -0.7172309965 0.5602402294 0.6756919531
O -1.6420627582 1.5887038995 1.2086379168
C -3.0043540145 1.0690494137 1.1956421457
C -3.6248222607 0.9970317943 -0.2561155011
C -4.3581240232 -0.3583432141 -0.6463722674
C -4.3313634079 -1.4808002325 0.4456478186
O -4.7279334144 -1.4366217216 1.6289239275
O 3.5743697248 -1.8824665919 -1.5217157282
O -3.7346783833 -2.6442306808 -0.1509026718
O -3.6431510005 0.953790228 2.260161152
C -3.681772808 -3.7478467 0.835561169
C -4.8367264256 2.0282942173 -0.373986781
C -5.1329080522 2.2675033234 -1.9074652443
C -5.8596453991 0.9253578546 -2.2890354856
C -5.8395193118 0.1651420082 -0.9042122798
O -6.0017340274 1.2471523266 0.0912353601
H -2.8347296561 1.2363357586 -0.9881138416
H -3.9207301627 -0.7857544398 -1.5659464224
H -4.7191598097 2.9470406642 0.2329068003
H -5.7953881914 3.1378652259 -2.0386241191
H -4.2107372392 2.4343644544 -2.4867675082
H -6.8969777391 1.1052109602 -2.61334014
H -5.3345591406 0.3645517568 -3.0787389795
H -6.6275511407 -0.601699644 -0.7744110269
O 2.2234306995 -0.8888019872 0.4187434258
C 3.2703870908 -3.3158192431 -1.7280277669
C 5.9134004986 0.1944328144 0.7517320857
C 6.8590466168 1.3747247901 0.3064415752
C 5.7990503445 2.5147401499 0.0673734638
C 4.4768906404 1.8339801544 0.6027394747
O 4.9460912469 0.8805924366 1.6404809205
H 5.6633113697 -0.0045735761 -1.4307371414
H 3.6650297052 1.2910116745 -1.4552071735
H 2.934531857 -3.7961805757 -0.7863863385
H 6.4009839531 -0.6530497293 1.2721358345
H 7.5524521399 1.6364766702 1.1218952168
H 7.4447880195 1.1346965271 -0.5953826312
H 6.0326749173 3.4190782369 0.6509776917
H 5.7124773394 2.7950431821 -0.994911199
H 3.7208859046 2.5260827134 1.0219872377
H 4.149671559 -3.8709066295 -2.1142749344
H 2.451769335 -3.3508397141 -2.4703218993
H -3.1743627392 -4.588693085 0.3278013434
H -4.6976749062 -4.0638378311 1.1497955571
H -3.1096896287 -3.4597891471 1.741045943
H -1.2501631215 -0.2009283622 0.0661644815
H -0.2156836294 0.0308532815 1.517359675
H 0.4942622873 0.724368455 -1.1795369261
H 0.0295158106 2.3020424008 -0.4390426038
$end

$rem
JOBTYPE                   OPT
METHOD                    B3LYP
DFT_D                     d3_op
BASIS                     STO-3G
GEOM_OPT_MAX_CYCLES       100
GEOM_OPT_TOL_GRADIENT     300
GEOM_OPT_TOL_DISPLACEMENT 1200
GEOM_OPT_TOL_ENERGY       100
SYMMETRY                  False
THRESH                    12
SCF_CONVERGENCE           8
MAX_SUB_FILE_NUM          128
MEM_STATIC                400
MEM_TOTAL                 4000
$end
--------------------------------------------------------------

   16   -1510.2329558975      4.02E-09 Convergence criterion met
 Total energy in the final basis set = -1510.23295590
   14   -1510.2382334989      7.73E-09 Convergence criterion met
 Total energy in the final basis set = -1510.23823350
   14   -1510.2435020127      8.53E-09 Convergence criterion met
 Total energy in the final basis set = -1510.24350201
   14   -1510.2484199410      9.01E-09 Convergence criterion met
 Total energy in the final basis set = -1510.24841994
   14   -1510.2529646561      6.18E-09 Convergence criterion met
 Total energy in the final basis set = -1510.25296466
   15   -1510.2565471162      2.03E-09 Convergence criterion met
 Total energy in the final basis set = -1510.25654712
   14   -1510.2598725556      9.62E-09 Convergence criterion met
 Total energy in the final basis set = -1510.25987256
   14   -1510.2622266581      7.59E-09 Convergence criterion met
   12   -1510.2922618593      4.96E-09 Convergence criterion met
 Total energy in the final basis set = -1510.29226186
   12   -1510.2922655017      4.42E-09 Convergence criterion met
 Total energy in the final basis set = -1510.29226550
   11   -1510.2922887083      8.38E-09 Convergence criterion met
 Total energy in the final basis set = -1510.29228871
   11   -1510.2922940491      7.35E-09 Convergence criterion met
 Total energy in the final basis set = -1510.29229405
   10   -1510.2922980290      6.00E-09 Convergence criterion met
 Total energy in the final basis set = -1510.29229803
    9   -1510.2922956751      9.28E-09 Convergence criterion met
 Total energy in the final basis set = -1510.29229568

             Standard Nuclear Orientation (Angstroms)
    I     Atom           X                Y                Z
 ----------------------------------------------------------------
    1      O       3.1302116798    -2.8624495787    -0.4217598292
    2      C       3.7663126379    -1.8102755694    -0.6435312929
    3      C       3.8123429490    -0.5154849533     0.2480873810
    4      C       3.0422658774     0.7181133686    -0.3707683112
    5      C       2.2644328686     0.4060757569    -1.6895488866
    6      O       1.7078270466     1.6460239939    -2.1398716633
    7      C       0.5223169318     1.4177002566    -2.9953528652
    8      C      -0.7306886868     1.0964701022    -2.0943703459
    9      O      -0.5437014797     1.8816928394    -0.8438695643
   10      C      -1.6220519246     1.8077302612     0.1090139231
   11      C      -3.0233968597     1.2466679782    -0.3538027758
   12      C      -3.1582829469    -0.3400335518    -0.3468612832
   13      C      -1.8945060719    -1.0881256230     0.2097070700
   14      O      -1.6122583086    -1.3205422619     1.4032099522
   15      O       4.6775304725    -1.6272399092    -1.7355382533
   16      O      -1.0920778282    -1.5071549383    -0.9035464384
   17      O      -1.3889567852     2.2680763261     1.2480309702
   18      C       0.1465817065    -2.1784847564    -0.4232161776
   19      C      -4.1498306754     1.6444332686     0.6958120502
   20      C      -5.5519108196     1.5104913021    -0.0181411439
   21      C      -5.7042259098    -0.0551053938    -0.0864767926
   22      C      -4.3836163445    -0.5240050613     0.6430482815
   23      O      -4.1482209837     0.5240213600     1.6611544282
   24      H      -3.2635204989     1.6481508375    -1.3536924634
   25      H      -3.3723255428    -0.7219187828    -1.3609043528
   26      H      -3.9615232086     2.6025000512     1.2177648291
   27      H      -6.3415602732     1.9653090088     0.6009367803
   28      H      -5.5644384339     1.9858860204    -1.0117991764
   29      H      -6.5928116195    -0.4002520813     0.4652686992
   30      H      -5.7619487578    -0.4316510465    -1.1203653386
   31      H      -4.4325402318    -1.5213713095     1.1210034162
   32      O       2.0727011042    -0.7028637722    -2.2354253214
   33      C       4.6009592944    -2.7897297615    -2.6480925873
   34      C       3.0200852472    -0.7156667836     1.6065956020
   35      C       3.4373232542     0.4269517970     2.6099335458
   36      C       2.6809611286     1.6666995499     1.9972973001
   37      C       1.9597781757     1.0120060203     0.7609276020
   38      O       1.6274725692    -0.3479815086     1.2524695643
   39      H       4.8718972967    -0.2588908153     0.4264148366
   40      H       3.7013117126     1.5885224017    -0.5369346040
   41      H       3.5936178620    -2.8716155305    -3.1056625625
   42      H       3.0526857577    -1.7491960603     2.0026912970
   43      H       3.0770130190     0.1967335907     3.6251445233
   44      H       4.5293315577     0.5685089165     2.6454076629
   45      H       1.9367441579     2.0743784940     2.6999634563
   46      H       3.3648885071     2.4760450387     1.6956811261
   47      H       1.0483923915     1.5231762806     0.3739868990
   48      H       4.8293393518    -3.7398946280    -2.1233104548
   49      H       5.3531429903    -2.6115801788    -3.4384076429
   50      H       0.7343160139    -2.4051242223    -1.3306804915
   51      H      -0.1014317991    -3.1170727972     0.1094297624
   52      H       0.7348375329    -1.4981508610     0.2490186693
   53      H      -1.6504166472     1.3969852209    -2.6384393754
   54      H      -0.7876829622     0.0054991137    -1.8362957801
   55      H       0.6905050276     0.5857182142    -3.7128916879
   56      H       0.3735500896     2.3645415707    -3.5517369014
 ----------------------------------------------------------------

    9   -1510.2922971698      5.90E-09 Convergence criterion met
 Total energy in the final basis set = -1510.29229717
 Final energy is   -1510.29229716978
 **  OPTIMIZATION CONVERGED  **

                    Orbital Energies (a.u.)
 --------------------------------------------------------------

 Alpha MOs
 -- Occupied --
-18.937 -18.932 -18.930 -18.924 -18.900 -18.888 -18.887 -18.877
-18.876 -18.865 -10.107 -10.100 -10.094 -10.093 -10.078 -10.062
-10.060 -10.059 -10.058 -10.057 -10.052 -10.040 -10.039 -10.038
-10.035 -10.024 -10.021 -10.020 -10.018 -10.016  -1.021  -1.007
 -1.003  -1.001  -0.975  -0.969  -0.948  -0.934  -0.930  -0.928
 -0.764  -0.763  -0.725  -0.722  -0.714  -0.704  -0.698  -0.657
 -0.644  -0.614  -0.597  -0.582  -0.549  -0.543  -0.538  -0.534
 -0.511  -0.507  -0.487  -0.469  -0.462  -0.456  -0.454  -0.451
 -0.445  -0.430  -0.428  -0.413  -0.411  -0.405  -0.398  -0.396
 -0.391  -0.384  -0.374  -0.364  -0.359  -0.356  -0.349  -0.346
 -0.341  -0.339  -0.334  -0.331  -0.329  -0.324  -0.317  -0.312
 -0.310  -0.307  -0.304  -0.300  -0.297  -0.282  -0.280  -0.275
 -0.269  -0.259  -0.254  -0.247  -0.241  -0.233  -0.229  -0.182
 -0.181  -0.168  -0.164  -0.161  -0.155  -0.148  -0.145  -0.144
 -0.142

          Ground-State Mulliken Net Atomic Charges

     Atom                 Charge (a.u.)
  ----------------------------------------
      1 O                    -0.217833
      2 C                     0.214450
      3 C                    -0.082763
      4 C                    -0.079262
      5 C                     0.217039
      6 O                    -0.169014
      7 C                    -0.048237
      8 C                    -0.071318
      9 O                    -0.176038
     10 C                     0.205253
     11 C                    -0.084052
     12 C                    -0.081359
     13 C                     0.204872
     14 O                    -0.196241
     15 O                    -0.174227
     16 O                    -0.179632
     17 O                    -0.196211
     18 C                    -0.153431
     19 C                     0.026555
     20 C                    -0.144115
     21 C                    -0.144714
     22 C                     0.026641
     23 O                    -0.182689
     24 H                     0.077469
     25 H                     0.082689
     26 H                     0.090172
     27 H                     0.078919
     28 H                     0.071274
     29 H                     0.078807
     30 H                     0.072208
     31 H                     0.086854
     32 O                    -0.210472
     33 C                    -0.128287
     34 C                     0.026920
     35 C                    -0.143148
     36 C                    -0.142851
     37 C                     0.018337
     38 O                    -0.186244
     39 H                     0.085720
     40 H                     0.089796
     41 H                     0.091157
     42 H                     0.091174
     43 H                     0.080983
     44 H                     0.073351
     45 H                     0.085695
     46 H                     0.074380
     47 H                     0.108833
     48 H                     0.087468
     49 H                     0.087243
     50 H                     0.091238
     51 H                     0.079791
     52 H                     0.117631
     53 H                     0.073712
     54 H                     0.111853
     55 H                     0.094381
     56 H                     0.089272
  ----------------------------------------
  Sum of atomic charges =    -0.000000

                    Cartesian Multipole Moments
 -----------------------------------------------------------------
    Charge (ESU x 10^10)
                -0.0000
    Dipole Moment (Debye)
         X      -0.0539      Y       0.8464      Z      -3.6883
       Tot       3.7845
    Quadrupole Moments (Debye-Ang)
        XX    -140.7423     XY      -1.2060     YY    -162.3946
        XZ      11.4241     YZ      -1.7508     ZZ    -158.5868

 Total job time:  154.11s(wall), 7345.20s(cpu)
        *  Thank you very much for using Q-Chem.  Have a nice day.  *
