 Q-Chem 5.0, Q-Chem, Inc., Pleasanton, CA (2017)
 Q-Chem 5.0.1 for Intel X86 EM64T Linux

User input:
--------------------------------------------------------------
$molecule
0  1
O -3.94934 -3.66094 2.70899
C -3.26408 -4.56952 2.26188
C -3.36658 -6.02376 2.66595
C -2.1179 -6.89823 2.46607
C -0.85209 -6.18162 2.05101
O 0.22682 -6.99683 2.2429
C 0.99074 -7.20978 1.05112
C 2.12884 -6.19784 0.96846
O 3.36534 -6.8195 1.35252
C 4.45232 -6.45092 0.6302
C 4.46444 -7.04373 -0.75872
C 4.7872 -6.04979 -1.88397
C 5.38963 -4.72966 -1.44689
O 6.40865 -4.60048 -0.78395
O -2.87683 -4.3995 0.96545
O 4.72698 -3.6135 -1.84885
O 5.45342 -6.02496 1.18406
C 5.12041 -2.32604 -1.54955
C 5.58975 -8.07855 -0.97764
C 5.20811 -9.0195 -2.12025
C 5.31761 -8.08181 -3.30712
C 5.88697 -6.83456 -2.61919
O 6.64656 -7.34851 -1.55106
H 3.49702 -7.56617 -0.9406
H 3.89829 -5.83383 -2.51804
H 5.83501 -8.66064 -0.06245
H 6.01936 -9.77943 -2.1917
H 4.23206 -9.54049 -2.01652
H 6.04734 -8.51263 -4.02792
H 4.35921 -7.85328 -3.82191
H 6.43739 -6.19904 -3.3481
O -0.68937 -5.0065 1.7691
C -2.91148 -3.20334 0.27625
C -3.57907 -6.16883 4.18641
C -4.22456 -7.51764 4.49755
C -3.06218 -8.44858 4.23903
C -1.96188 -7.4337 3.91164
O -2.28225 -6.31787 4.70283
H -4.25494 -6.43137 2.13306
H -2.27726 -7.7262 1.74035
H -2.27013 -2.45224 0.7849
H -4.18903 -5.35205 4.63051
H -4.45522 -7.53381 5.587
H -5.14932 -7.73873 3.92232
H -2.82306 -8.9808 5.18688
H -3.21239 -9.18396 3.41923
H -0.97264 -7.89699 4.1142
H -3.95427 -2.82602 0.21058
H -2.5265 -3.36522 -0.75136
H 4.40144 -1.61178 -2.00056
H 6.13103 -2.12789 -1.96641
H 5.13154 -2.17569 -0.44876
H 2.18766 -5.84036 -0.0866
H 1.92399 -5.2924 1.57824
H 0.33981 -7.04602 0.15677
H 1.33536 -8.26124 0.95417
$end

$opt
CONSTRAINT
tors           1           2           3           4    -155.654
tors           3           4           5           6    +164.514
tors           4           5           6           7    +122.995
tors           5           6           7           8     +93.339
tors           6           7           8           9    +102.017
tors           7           8           9          10    +141.123
tors           8           9          10          11     -73.466
tors           9          10          11          12    +133.079
tors          11          12          13          14     +56.326
ENDCONSTRAINT
$end

$rem
JOBTYPE                   OPT
METHOD                    B3LYP
DFT_D                     d3_op
BASIS                     STO-3G
GEOM_OPT_MAX_CYCLES       100
GEOM_OPT_TOL_GRADIENT     300
GEOM_OPT_TOL_DISPLACEMENT 1200
GEOM_OPT_TOL_ENERGY       100
SYMMETRY                  False
THRESH                    12
SCF_CONVERGENCE           8
MAX_SUB_FILE_NUM          128
MEM_STATIC                400
MEM_TOTAL                 4000
$end
--------------------------------------------------------------

   15   -1510.0910621883      6.20E-09 Convergence criterion met
 Total energy in the final basis set = -1510.09106219
   14   -1510.1645345749      3.73E-09 Convergence criterion met
 Total energy in the final basis set = -1510.16453457
   14   -1510.2034469032      7.49E-09 Convergence criterion met
 Total energy in the final basis set = -1510.20344690
   14   -1510.2196793310      7.30E-09 Convergence criterion met
 Total energy in the final basis set = -1510.21967933
   14   -1510.2267322195      4.77E-09 Convergence criterion met
 Total energy in the final basis set = -1510.22673222
   13   -1510.2294327964      7.34E-09 Convergence criterion met
 Total energy in the final basis set = -1510.22943280
   12   -1510.2309185241      8.27E-09 Convergence criterion met
 Total energy in the final basis set = -1510.23091852
   13   -1510.2315250147      4.91E-09 Convergence criterion met
   11   -1510.2330589016      3.91E-09 Convergence criterion met
 Total energy in the final basis set = -1510.23305890
   11   -1510.2330676415      2.81E-09 Convergence criterion met
 Total energy in the final basis set = -1510.23306764
   10   -1510.2330731721      8.20E-09 Convergence criterion met
 Total energy in the final basis set = -1510.23307317
   10   -1510.2330748007      8.56E-09 Convergence criterion met
 Total energy in the final basis set = -1510.23307480
   10   -1510.2330836614      7.72E-09 Convergence criterion met
 Total energy in the final basis set = -1510.23308366
    9   -1510.2330851137      6.48E-09 Convergence criterion met
 Total energy in the final basis set = -1510.23308511

             Standard Nuclear Orientation (Angstroms)
    I     Atom           X                Y                Z
 ----------------------------------------------------------------
    1      O       5.4239507415    -2.6987149036    -0.2908556439
    2      C       4.7065838236    -1.7411609163    -0.6538252132
    3      C       5.0619866234    -0.2177581191    -0.5250907299
    4      C       3.8802368384     0.8260300858    -0.4764943247
    5      C       2.5383219357     0.2887986187     0.1567009857
    6      O       1.6810932903     1.4236728239     0.4730542372
    7      C       0.3821865068     1.2713325843    -0.2195268117
    8      C      -0.7172309965     0.5602402294     0.6756919531
    9      O      -1.6420627582     1.5887038995     1.2086379168
   10      C      -3.0043540145     1.0690494137     1.1956421457
   11      C      -3.6248222607     0.9970317943    -0.2561155011
   12      C      -4.3581240232    -0.3583432141    -0.6463722674
   13      C      -4.3313634079    -1.4808002325     0.4456478186
   14      O      -4.7279334144    -1.4366217216     1.6289239275
   15      O       3.5743697248    -1.8824665919    -1.5217157282
   16      O      -3.7346783833    -2.6442306808    -0.1509026718
   17      O      -3.6431510005     0.9537902280     2.2601611520
   18      C      -3.6817728080    -3.7478467000     0.8355611690
   19      C      -4.8367264256     2.0282942173    -0.3739867810
   20      C      -5.1329080522     2.2675033234    -1.9074652443
   21      C      -5.8596453991     0.9253578546    -2.2890354856
   22      C      -5.8395193118     0.1651420082    -0.9042122798
   23      O      -6.0017340274     1.2471523266     0.0912353601
   24      H      -2.8347296561     1.2363357586    -0.9881138416
   25      H      -3.9207301627    -0.7857544398    -1.5659464224
   26      H      -4.7191598097     2.9470406642     0.2329068003
   27      H      -5.7953881914     3.1378652259    -2.0386241191
   28      H      -4.2107372392     2.4343644544    -2.4867675082
   29      H      -6.8969777391     1.1052109602    -2.6133401400
   30      H      -5.3345591406     0.3645517568    -3.0787389795
   31      H      -6.6275511407    -0.6016996440    -0.7744110269
   32      O       2.2234306995    -0.8888019872     0.4187434258
   33      C       3.2703870908    -3.3158192431    -1.7280277669
   34      C       5.9134004986     0.1944328144     0.7517320857
   35      C       6.8590466168     1.3747247901     0.3064415752
   36      C       5.7990503445     2.5147401499     0.0673734638
   37      C       4.4768906404     1.8339801544     0.6027394747
   38      O       4.9460912469     0.8805924366     1.6404809205
   39      H       5.6633113697    -0.0045735761    -1.4307371414
   40      H       3.6650297052     1.2910116745    -1.4552071735
   41      H       2.9345318570    -3.7961805757    -0.7863863385
   42      H       6.4009839531    -0.6530497293     1.2721358345
   43      H       7.5524521399     1.6364766702     1.1218952168
   44      H       7.4447880195     1.1346965271    -0.5953826312
   45      H       6.0326749173     3.4190782369     0.6509776917
   46      H       5.7124773394     2.7950431821    -0.9949111990
   47      H       3.7208859046     2.5260827134     1.0219872377
   48      H       4.1496715590    -3.8709066295    -2.1142749344
   49      H       2.4517693350    -3.3508397141    -2.4703218993
   50      H      -3.1743627392    -4.5886930850     0.3278013434
   51      H      -4.6976749062    -4.0638378311     1.1497955571
   52      H      -3.1096896287    -3.4597891471     1.7410459430
   53      H      -1.2501631215    -0.2009283622     0.0661644815
   54      H      -0.2156836294     0.0308532815     1.5173596750
   55      H       0.4942622873     0.7243684550    -1.1795369261
   56      H       0.0295158106     2.3020424008    -0.4390426038
 ----------------------------------------------------------------

    9   -1510.2330854421      5.21E-09 Convergence criterion met
 Total energy in the final basis set = -1510.23308544
 Final energy is   -1510.23308544207
 **  OPTIMIZATION CONVERGED  **

                    Orbital Energies (a.u.)
 --------------------------------------------------------------

 Alpha MOs
 -- Occupied --
-18.933 -18.931 -18.912 -18.904 -18.902 -18.899 -18.894 -18.887
-18.878 -18.872 -10.109 -10.102 -10.099 -10.098 -10.076 -10.070
-10.065 -10.065 -10.064 -10.063 -10.060 -10.059 -10.042 -10.042
-10.040 -10.038 -10.025 -10.024 -10.022 -10.021  -1.014  -1.011
 -1.006  -1.001  -0.975  -0.971  -0.943  -0.936  -0.934  -0.932
 -0.766  -0.765  -0.726  -0.725  -0.713  -0.709  -0.696  -0.664
 -0.661  -0.610  -0.602  -0.586  -0.551  -0.546  -0.543  -0.539
 -0.518  -0.513  -0.483  -0.473  -0.464  -0.461  -0.455  -0.449
 -0.437  -0.433  -0.419  -0.415  -0.413  -0.412  -0.408  -0.403
 -0.398  -0.387  -0.375  -0.371  -0.370  -0.357  -0.356  -0.348
 -0.345  -0.343  -0.337  -0.335  -0.332  -0.329  -0.325  -0.315
 -0.313  -0.311  -0.311  -0.303  -0.299  -0.289  -0.286  -0.275
 -0.275  -0.257  -0.256  -0.245  -0.240  -0.239  -0.233  -0.179
 -0.178  -0.172  -0.165  -0.157  -0.153  -0.151  -0.149  -0.146
 -0.142

          Ground-State Mulliken Net Atomic Charges

     Atom                 Charge (a.u.)
  ----------------------------------------
      1 O                    -0.215085
      2 C                     0.213362
      3 C                    -0.081379
      4 C                    -0.076306
      5 C                     0.222768
      6 O                    -0.190601
      7 C                    -0.048529
      8 C                    -0.051455
      9 O                    -0.190845
     10 C                     0.211720
     11 C                    -0.083886
     12 C                    -0.081737
     13 C                     0.201588
     14 O                    -0.199369
     15 O                    -0.170623
     16 O                    -0.173995
     17 O                    -0.166250
     18 C                    -0.130045
     19 C                     0.027395
     20 C                    -0.143855
     21 C                    -0.143886
     22 C                     0.027173
     23 O                    -0.181347
     24 H                     0.077203
     25 H                     0.084241
     26 H                     0.086594
     27 H                     0.079618
     28 H                     0.072821
     29 H                     0.079254
     30 H                     0.073619
     31 H                     0.085035
     32 O                    -0.186331
     33 C                    -0.127419
     34 C                     0.023554
     35 C                    -0.141455
     36 C                    -0.145775
     37 C                     0.022698
     38 O                    -0.191579
     39 H                     0.083166
     40 H                     0.084911
     41 H                     0.091217
     42 H                     0.090609
     43 H                     0.078783
     44 H                     0.073261
     45 H                     0.079220
     46 H                     0.072621
     47 H                     0.092445
     48 H                     0.088930
     49 H                     0.087459
     50 H                     0.089444
     51 H                     0.088853
     52 H                     0.090885
     53 H                     0.077045
     54 H                     0.093232
     55 H                     0.079215
     56 H                     0.091813
  ----------------------------------------
  Sum of atomic charges =    -0.000000

                    Cartesian Multipole Moments
 -----------------------------------------------------------------
    Charge (ESU x 10^10)
                -0.0000
    Dipole Moment (Debye)
         X       1.1203      Y       0.1330      Z      -6.1200
       Tot       6.2231
    Quadrupole Moments (Debye-Ang)
        XX    -166.0905     XY      12.5186     YY    -152.9350
        XZ       8.3117     YZ      -4.3642     ZZ    -165.9106

 Total job time:  66.59s(wall), 3163.08s(cpu)
        *  Thank you very much for using Q-Chem.  Have a nice day.  *
