 Q-Chem 5.0, Q-Chem, Inc., Pleasanton, CA (2017)
 Q-Chem 5.0.1 for Intel X86 EM64T Linux

User input:
--------------------------------------------------------------
$molecule
0  1
O -3.94934 -3.66094 2.70899
C -3.26408 -4.56952 2.26188
C -3.36658 -6.02376 2.66595
C -2.05651 -6.75173 3.00891
C -0.80983 -5.89818 3.08186
O 0.18586 -6.58442 3.71677
C -0.25918 -7.81613 4.29477
C 0.93752 -8.65185 4.73707
O 1.16898 -8.46959 6.1428
C 2.06354 -9.3219 6.70179
C 1.6188 -9.84192 8.04806
C 1.76589 -11.35883 8.23685
C 2.6444 -12.06838 7.22618
O 2.2635 -12.54467 6.16664
O -2.52494 -4.31773 1.14606
O 3.95255 -12.26058 7.55841
O 3.15889 -9.54318 6.2027
C 4.87849 -12.90184 6.7621
C 2.47642 -9.31346 9.21568
C 1.65859 -9.35283 10.50521
C 1.56477 -10.84816 10.73013
C 2.48477 -11.34921 9.60834
O 3.42798 -10.31811 9.44879
H 0.57085 -9.50075 8.21741
H 0.80304 -11.91174 8.29833
H 2.8763 -8.29046 9.0416
H 2.29923 -8.91099 11.30222
H 0.68588 -8.81599 10.48258
H 1.98721 -11.0779 11.73338
H 0.54535 -11.28076 10.63402
H 2.89597 -12.34924 9.87087
O -0.67091 -4.72035 2.80288
C -2.4014 -3.07747 0.55452
C -4.37939 -6.25047 3.79701
C -5.13953 -7.53105 3.52511
C -3.99862 -8.50192 3.59828
C -2.88844 -7.57566 4.17786
O -3.57802 -6.58413 4.87655
H -3.78695 -6.47001 1.73184
H -1.83784 -7.4566 2.17273
H -1.95186 -2.35601 1.26986
H -5.0966 -5.42101 3.97829
H -5.82036 -7.6798 4.39485
H -5.7275 -7.57559 2.58301
H -4.31517 -9.33184 4.27235
H -3.66945 -8.91832 2.62155
H -2.4705 -8.32681 4.86604
H -3.39626 -2.70942 0.22431
H -1.7397 -3.16175 -0.33174
H 5.85909 -12.91129 7.28049
H 4.98927 -12.36379 5.79639
H 4.5623 -13.95026 6.57504
H 0.65323 -9.7285 4.62766
H 1.83861 -8.48305 4.10636
H -0.64931 -8.52534 3.52491
H -0.73383 -7.56631 5.26647
$end

$opt
CONSTRAINT
tors           1           2           3           4    -131.785
tors           3           4           5           6    +164.514
tors           4           5           6           7      -8.177
tors           5           6           7           8    +168.780
tors           6           7           8           9     +97.714
tors           7           8           9          10    +169.639
tors           8           9          10          11    -137.580
tors           9          10          11          12    +133.079
tors          11          12          13          14     -89.660
ENDCONSTRAINT
$end

$rem
JOBTYPE                   OPT
METHOD                    B3LYP
DFT_D                     d3_op
BASIS                     STO-3G
GEOM_OPT_MAX_CYCLES       100
GEOM_OPT_TOL_GRADIENT     300
GEOM_OPT_TOL_DISPLACEMENT 1200
GEOM_OPT_TOL_ENERGY       100
SYMMETRY                  False
THRESH                    12
SCF_CONVERGENCE           8
MAX_SUB_FILE_NUM          128
MEM_STATIC                400
MEM_TOTAL                 4000
$end
--------------------------------------------------------------

   15   -1510.0440887271      9.19E-09 Convergence criterion met
 Total energy in the final basis set = -1510.04408873
   14   -1510.1275713485      5.41E-09 Convergence criterion met
 Total energy in the final basis set = -1510.12757135
   14   -1510.1824512508      2.79E-09 Convergence criterion met
 Total energy in the final basis set = -1510.18245125
   14   -1510.2143770630      4.52E-09 Convergence criterion met
 Total energy in the final basis set = -1510.21437706
   13   -1510.2319446663      9.97E-09 Convergence criterion met
 Total energy in the final basis set = -1510.23194467
   13   -1510.2410113803      9.90E-09 Convergence criterion met
 Total energy in the final basis set = -1510.24101138
   13   -1510.2452545450      5.54E-09 Convergence criterion met
 Total energy in the final basis set = -1510.24525455
   13   -1510.2469997055      5.55E-09 Convergence criterion met
   10   -1510.2485053303      7.44E-09 Convergence criterion met
 Total energy in the final basis set = -1510.24850533
   11   -1510.2485320007      4.84E-09 Convergence criterion met
 Total energy in the final basis set = -1510.24853200
   10   -1510.2485583487      6.97E-09 Convergence criterion met
 Total energy in the final basis set = -1510.24855835
   10   -1510.2485764795      4.83E-09 Convergence criterion met
 Total energy in the final basis set = -1510.24857648
   10   -1510.2485879137      5.52E-09 Convergence criterion met
 Total energy in the final basis set = -1510.24858791
    9   -1510.2485891723      7.19E-09 Convergence criterion met
 Total energy in the final basis set = -1510.24858917

             Standard Nuclear Orientation (Angstroms)
    I     Atom           X                Y                Z
 ----------------------------------------------------------------
    1      O      -6.5137888773     0.2455988542     1.4556877944
    2      C      -5.8986911041     0.5622868676     0.4151930055
    3      C      -5.2398151728    -0.4158089932    -0.6298779438
    4      C      -3.7527774348    -0.0631322951    -1.0509641509
    5      C      -3.0917341426     0.7636881038     0.1441113487
    6      O      -1.6876808089     0.9926336773     0.2928041248
    7      C      -0.7499041614     0.2893758206    -0.6051581832
    8      C       0.6546043797     0.9583929771    -0.3942894427
    9      O       1.4006927173     0.0990739410     0.5572547703
   10      C       2.7822051666     0.5170517318     0.6110615441
   11      C       3.7094880390    -0.7482856540     0.6183982921
   12      C       4.9159553917    -0.6318307099    -0.4117033817
   13      C       4.9739879908     0.7627300026    -1.1400788032
   14      O       4.4014621547     1.0546561993    -2.2140598819
   15      O      -6.0008907664     1.8515454410    -0.2276060458
   16      O       5.8370102251     1.6442111687    -0.4216679979
   17      O       3.1456603512     1.7108567556     0.5304992981
   18      C       5.8197869470     2.9856804248    -1.0473061760
   19      C       4.5025048832    -0.9590235055     1.9849042532
   20      C       5.0125991526    -2.4534096608     2.0185281234
   21      C       6.1856253081    -2.3928440806     0.9716611779
   22      C       6.1501999912    -0.8684929866     0.5558963201
   23      O       5.7415384372    -0.1744474819     1.7991104742
   24      H       3.0733860918    -1.6227449974     0.3955854314
   25      H       4.8371472070    -1.4130265510    -1.1889861167
   26      H       3.9594978057    -0.6232652276     2.8897020249
   27      H       5.3817778802    -2.7091510773     3.0245512979
   28      H       4.2251981933    -3.1707806177     1.7374337798
   29      H       7.1536655949    -2.6421822872     1.4343252603
   30      H       6.0241772957    -3.0614942077     0.1109892016
   31      H       7.1073919930    -0.4584222660     0.1815721579
   32      O      -3.7916465992     1.2473127399     1.0700508295
   33      C      -6.6514736986     2.8089767213     0.6900251788
   34      C      -5.1229206685    -1.9282453135    -0.1765423466
   35      C      -5.2792411755    -2.7952189555    -1.4817764161
   36      C      -3.9719821426    -2.3698009853    -2.2463226605
   37      C      -3.1960179301    -1.5556904512    -1.1285697203
   38      O      -3.6886659233    -2.1140657469     0.1523516370
   39      H      -5.8786054994    -0.3535969778    -1.5303977879
   40      H      -3.6891209371     0.4973359840    -2.0014917833
   41      H      -6.0183512822     3.0099214766     1.5790198319
   42      H      -5.7652443874    -2.2000844047     0.6838015798
   43      H      -5.2696290347    -3.8694795727    -1.2364137892
   44      H      -6.1995084324    -2.5635489895    -2.0413800779
   45      H      -3.3802126371    -3.2418501121    -2.5656303076
   46      H      -4.1859046842    -1.7473190203    -3.1302233483
   47      H      -2.1031019757    -1.6696707601    -1.1955677337
   48      H      -7.6380509581     2.4395536071     1.0381455940
   49      H      -6.7869880620     3.7447809280     0.1167220804
   50      H       6.5393072566     3.5982678306    -0.4738450604
   51      H       4.8104696814     3.4410717217    -0.9832506849
   52      H       6.1267101503     2.9456222521    -2.1125833699
   53      H       1.1975362003     1.0206344699    -1.3629054225
   54      H       0.5153072180     1.9918383410    -0.0039807661
   55      H      -1.0567909426     0.3686916841    -1.6701660241
   56      H      -0.6576885602    -0.7823249128    -0.3263555232
 ----------------------------------------------------------------

    9   -1510.2485882388      3.84E-09 Convergence criterion met
 Total energy in the final basis set = -1510.24858824
 Final energy is   -1510.24858823881
 **  OPTIMIZATION CONVERGED  **

                    Orbital Energies (a.u.)
 --------------------------------------------------------------

 Alpha MOs
 -- Occupied --
-18.948 -18.933 -18.927 -18.906 -18.892 -18.892 -18.890 -18.890
-18.867 -18.849 -10.113 -10.107 -10.097 -10.092 -10.086 -10.083
-10.067 -10.063 -10.061 -10.059 -10.059 -10.048 -10.047 -10.041
-10.040 -10.031 -10.026 -10.022 -10.022 -10.021  -1.021  -1.015
 -1.006  -0.989  -0.975  -0.972  -0.949  -0.941  -0.932  -0.915
 -0.765  -0.765  -0.730  -0.725  -0.721  -0.706  -0.705  -0.657
 -0.648  -0.615  -0.600  -0.590  -0.550  -0.548  -0.540  -0.539
 -0.522  -0.516  -0.493  -0.488  -0.467  -0.461  -0.453  -0.445
 -0.435  -0.434  -0.423  -0.419  -0.411  -0.407  -0.401  -0.400
 -0.398  -0.394  -0.380  -0.367  -0.363  -0.355  -0.353  -0.347
 -0.346  -0.343  -0.333  -0.331  -0.327  -0.325  -0.322  -0.319
 -0.313  -0.311  -0.307  -0.304  -0.302  -0.285  -0.283  -0.280
 -0.267  -0.256  -0.248  -0.247  -0.239  -0.237  -0.235  -0.185
 -0.177  -0.173  -0.162  -0.158  -0.153  -0.149  -0.148  -0.145
 -0.134

          Ground-State Mulliken Net Atomic Charges

     Atom                 Charge (a.u.)
  ----------------------------------------
      1 O                    -0.226114
      2 C                     0.218506
      3 C                    -0.080766
      4 C                    -0.079793
      5 C                     0.218323
      6 O                    -0.163981
      7 C                    -0.042311
      8 C                    -0.045164
      9 O                    -0.181316
     10 C                     0.211666
     11 C                    -0.080433
     12 C                    -0.079806
     13 C                     0.208994
     14 O                    -0.224261
     15 O                    -0.183412
     16 O                    -0.161391
     17 O                    -0.197387
     18 C                    -0.126326
     19 C                     0.026185
     20 C                    -0.143310
     21 C                    -0.144837
     22 C                     0.026955
     23 O                    -0.183544
     24 H                     0.085180
     25 H                     0.083180
     26 H                     0.085054
     27 H                     0.078951
     28 H                     0.073876
     29 H                     0.078442
     30 H                     0.072929
     31 H                     0.088236
     32 O                    -0.184982
     33 C                    -0.128904
     34 C                     0.022416
     35 C                    -0.141132
     36 C                    -0.145645
     37 C                     0.018472
     38 O                    -0.192329
     39 H                     0.082170
     40 H                     0.085587
     41 H                     0.088782
     42 H                     0.093915
     43 H                     0.078373
     44 H                     0.074872
     45 H                     0.077359
     46 H                     0.072946
     47 H                     0.077619
     48 H                     0.085572
     49 H                     0.083360
     50 H                     0.091160
     51 H                     0.093391
     52 H                     0.086870
     53 H                     0.088256
     54 H                     0.099428
     55 H                     0.084640
     56 H                     0.095484
  ----------------------------------------
  Sum of atomic charges =    -0.000000

                    Cartesian Multipole Moments
 -----------------------------------------------------------------
    Charge (ESU x 10^10)
                 0.0000
    Dipole Moment (Debye)
         X       1.4269      Y      -2.1030      Z      -4.1470
       Tot       4.8638
    Quadrupole Moments (Debye-Ang)
        XX    -163.3722     XY      -6.2406     YY    -153.5470
        XZ      12.0560     YZ      -0.5270     ZZ    -163.8185

 Total job time:  53.28s(wall), 2529.67s(cpu)
        *  Thank you very much for using Q-Chem.  Have a nice day.  *
