 Q-Chem 5.0, Q-Chem, Inc., Pleasanton, CA (2017)
 Q-Chem 5.0.1 for Intel X86 EM64T Linux

User input:
--------------------------------------------------------------
$molecule
0  1
O -6.5137888773 0.2455988542 1.4556877944
C -5.8986911041 0.5622868676 0.4151930055
C -5.2398151728 -0.4158089932 -0.6298779438
C -3.7527774348 -0.0631322951 -1.0509641509
C -3.0917341426 0.7636881038 0.1441113487
O -1.6876808089 0.9926336773 0.2928041248
C -0.7499041614 0.2893758206 -0.6051581832
C 0.6546043797 0.9583929771 -0.3942894427
O 1.4006927173 0.099073941 0.5572547703
C 2.7822051666 0.5170517318 0.6110615441
C 3.709488039 -0.748285654 0.6183982921
C 4.9159553917 -0.6318307099 -0.4117033817
C 4.9739879908 0.7627300026 -1.1400788032
O 4.4014621547 1.0546561993 -2.2140598819
O -6.0008907664 1.851545441 -0.2276060458
O 5.8370102251 1.6442111687 -0.4216679979
O 3.1456603512 1.7108567556 0.5304992981
C 5.819786947 2.9856804248 -1.047306176
C 4.5025048832 -0.9590235055 1.9849042532
C 5.0125991526 -2.4534096608 2.0185281234
C 6.1856253081 -2.3928440806 0.9716611779
C 6.1501999912 -0.8684929866 0.5558963201
O 5.7415384372 -0.1744474819 1.7991104742
H 3.0733860918 -1.6227449974 0.3955854314
H 4.837147207 -1.413026551 -1.1889861167
H 3.9594978057 -0.6232652276 2.8897020249
H 5.3817778802 -2.7091510773 3.0245512979
H 4.2251981933 -3.1707806177 1.7374337798
H 7.1536655949 -2.6421822872 1.4343252603
H 6.0241772957 -3.0614942077 0.1109892016
H 7.107391993 -0.458422266 0.1815721579
O -3.7916465992 1.2473127399 1.0700508295
C -6.6514736986 2.8089767213 0.6900251788
C -5.1229206685 -1.9282453135 -0.1765423466
C -5.2792411755 -2.7952189555 -1.4817764161
C -3.9719821426 -2.3698009853 -2.2463226605
C -3.1960179301 -1.5556904512 -1.1285697203
O -3.6886659233 -2.1140657469 0.152351637
H -5.8786054994 -0.3535969778 -1.5303977879
H -3.6891209371 0.497335984 -2.0014917833
H -6.0183512822 3.0099214766 1.5790198319
H -5.7652443874 -2.2000844047 0.6838015798
H -5.2696290347 -3.8694795727 -1.2364137892
H -6.1995084324 -2.5635489895 -2.0413800779
H -3.3802126371 -3.2418501121 -2.5656303076
H -4.1859046842 -1.7473190203 -3.1302233483
H -2.1031019757 -1.6696707601 -1.1955677337
H -7.6380509581 2.4395536071 1.038145594
H -6.786988062 3.744780928 0.1167220804
H 6.5393072566 3.5982678306 -0.4738450604
H 4.8104696814 3.4410717217 -0.9832506849
H 6.1267101503 2.9456222521 -2.1125833699
H 1.1975362003 1.0206344699 -1.3629054225
H 0.515307218 1.991838341 -0.0039807661
H -1.0567909426 0.3686916841 -1.6701660241
H -0.6576885602 -0.7823249128 -0.3263555232
$end

$rem
JOBTYPE                   OPT
METHOD                    B3LYP
DFT_D                     d3_op
BASIS                     STO-3G
GEOM_OPT_MAX_CYCLES       100
GEOM_OPT_TOL_GRADIENT     300
GEOM_OPT_TOL_DISPLACEMENT 1200
GEOM_OPT_TOL_ENERGY       100
SYMMETRY                  False
THRESH                    12
SCF_CONVERGENCE           8
MAX_SUB_FILE_NUM          128
MEM_STATIC                400
MEM_TOTAL                 4000
$end
--------------------------------------------------------------

   16   -1510.2486183378      7.63E-09 Convergence criterion met
 Total energy in the final basis set = -1510.24861834
   13   -1510.2547172842      9.23E-09 Convergence criterion met
 Total energy in the final basis set = -1510.25471728
   14   -1510.2603645730      2.10E-09 Convergence criterion met
 Total energy in the final basis set = -1510.26036457
   14   -1510.2643281540      1.75E-09 Convergence criterion met
 Total energy in the final basis set = -1510.26432815
   13   -1510.2669263687      5.12E-09 Convergence criterion met
 Total energy in the final basis set = -1510.26692637
   13   -1510.2688765578      7.57E-09 Convergence criterion met
 Total energy in the final basis set = -1510.26887656
   13   -1510.2702129035      4.65E-09 Convergence criterion met
 Total energy in the final basis set = -1510.27021290
   13   -1510.2713381309      5.89E-09 Convergence criterion met
   10   -1510.2875578795      9.56E-09 Convergence criterion met
 Total energy in the final basis set = -1510.28755788
   10   -1510.2875670553      9.80E-09 Convergence criterion met
 Total energy in the final basis set = -1510.28756706
   11   -1510.2875769226      6.09E-09 Convergence criterion met
 Total energy in the final basis set = -1510.28757692
   11   -1510.2875890258      6.99E-09 Convergence criterion met
 Total energy in the final basis set = -1510.28758903
   10   -1510.2875903833      5.53E-09 Convergence criterion met
 Total energy in the final basis set = -1510.28759038
   10   -1510.2875905060      4.53E-09 Convergence criterion met
 Total energy in the final basis set = -1510.28759051

             Standard Nuclear Orientation (Angstroms)
    I     Atom           X                Y                Z
 ----------------------------------------------------------------
    1      O      -3.1667929683     1.6950501708     2.6785902957
    2      C      -3.3605563299     1.5303058535     1.4561643053
    3      C      -3.3238687867     0.1740121913     0.6552688936
    4      C      -2.1544075274     0.0566158844    -0.4053063764
    5      C      -1.1923211300     1.2956847106    -0.3719310354
    6      O      -0.2436275244     1.4979572613    -1.4253120917
    7      C      -0.4925183141     0.7280345913    -2.6649964721
    8      C       0.8237428206     0.8031021724    -3.5189827564
    9      O       1.7329792027    -0.2751626072    -3.0748948788
   10      C       2.6775125024     0.2181707256    -2.1150552410
   11      C       3.3483338071    -1.0029742484    -1.3838839881
   12      C       3.5936119107    -0.7074347030     0.1589498330
   13      C       3.3754449551     0.7903094405     0.5835824575
   14      O       4.2714690393     1.6182596021     0.8590576037
   15      O      -3.8298483327     2.5517500739     0.5596191634
   16      O       1.9753375399     1.0433981398     0.6633679114
   17      O       2.9085348529     1.4309678806    -1.9212947619
   18      C       1.7282665808     2.4678545685     0.9919025542
   19      C       2.3505656969    -2.2282106550    -1.2981588914
   20      C       3.1104268156    -3.4932180144    -0.7359939996
   21      C       3.1863930585    -3.1552319113     0.7995676812
   22      C       2.5506627902    -1.7115532919     0.8207325756
   23      O       1.4664458487    -1.8227338058    -0.1829020101
   24      H       4.2912829871    -1.2612734358    -1.9007276878
   25      H       4.6277687725    -0.9772196678     0.4364573922
   26      H       1.7614972097    -2.3905026382    -2.2205209280
   27      H       2.5276809180    -4.4091815287    -0.9229438287
   28      H       4.1055914244    -3.6097518096    -1.1944519593
   29      H       2.5743968526    -3.8514077134     1.3951857655
   30      H       4.2167375483    -3.1641589362     1.1890073505
   31      H       2.1389800501    -1.3816163558     1.7939023076
   32      O      -1.1348761869     2.0956565464     0.5963747078
   33      C      -3.8368074148     3.8574013720     1.2539910172
   34      C      -2.9993485358    -1.0487434879     1.6079441050
   35      C      -3.4134305169    -2.3808436161     0.8702582901
   36      C      -2.2652106112    -2.5011374892    -0.2007232119
   37      C      -1.3829051004    -1.2345325275     0.1408352839
   38      O      -1.5199212413    -1.0998149130     1.6062188245
   39      H      -4.3009680073     0.0533852891     0.1531744839
   40      H      -2.5639344245    -0.0991396051    -1.4163320525
   41      H      -2.8101988793     4.1636489175     1.5425458008
   42      H      -3.3813468132    -0.9266294893     2.6400089110
   43      H      -3.4012256704    -3.2297003580     1.5723116511
   44      H      -4.4152534573    -2.3129980936     0.4165193681
   45      H      -1.6774669562    -3.4226866852    -0.0622373239
   46      H      -2.6455401474    -2.4786389891    -1.2348092615
   47      H      -0.2993766146    -1.3219865502    -0.1243774398
   48      H      -4.4672223929     3.8339488365     2.1663751116
   49      H      -4.2517719157     4.5876383904     0.5349349117
   50      H       0.6229891792     2.5857843059     0.9270897127
   51      H       2.2327224541     3.1325445875     0.2628569208
   52      H       2.0910889421     2.7129357125     2.0104683543
   53      H       0.5937718787     0.6211180516    -4.5885716458
   54      H       1.3079631770     1.7950945393    -3.3885111083
   55      H      -1.3434232790     1.1702845605    -3.2307260810
   56      H      -0.7114722716    -0.3408235235    -2.4631223854
 ----------------------------------------------------------------

   10   -1510.2875899834      5.48E-09 Convergence criterion met
 Total energy in the final basis set = -1510.28758998
 Final energy is   -1510.28758998338
 **  OPTIMIZATION CONVERGED  **

                    Orbital Energies (a.u.)
 --------------------------------------------------------------

 Alpha MOs
 -- Occupied --
-18.945 -18.940 -18.914 -18.911 -18.901 -18.889 -18.889 -18.878
-18.857 -18.854 -10.111 -10.108 -10.088 -10.086 -10.084 -10.083
-10.066 -10.064 -10.051 -10.050 -10.044 -10.043 -10.038 -10.033
-10.029 -10.026 -10.024 -10.023 -10.015 -10.014  -1.024  -1.015
 -0.993  -0.991  -0.979  -0.962  -0.950  -0.943  -0.920  -0.916
 -0.766  -0.757  -0.732  -0.719  -0.717  -0.705  -0.698  -0.651
 -0.637  -0.616  -0.597  -0.586  -0.550  -0.541  -0.538  -0.533
 -0.515  -0.511  -0.490  -0.478  -0.465  -0.457  -0.451  -0.447
 -0.437  -0.430  -0.427  -0.414  -0.410  -0.401  -0.399  -0.395
 -0.391  -0.385  -0.378  -0.363  -0.358  -0.353  -0.347  -0.345
 -0.341  -0.337  -0.332  -0.327  -0.327  -0.321  -0.318  -0.311
 -0.310  -0.308  -0.306  -0.299  -0.296  -0.283  -0.273  -0.270
 -0.268  -0.257  -0.252  -0.241  -0.238  -0.233  -0.222  -0.189
 -0.177  -0.165  -0.161  -0.157  -0.156  -0.154  -0.138  -0.136
 -0.134

          Ground-State Mulliken Net Atomic Charges

     Atom                 Charge (a.u.)
  ----------------------------------------
      1 O                    -0.215888
      2 C                     0.216849
      3 C                    -0.079938
      4 C                    -0.085649
      5 C                     0.225203
      6 O                    -0.163989
      7 C                    -0.046769
      8 C                    -0.049567
      9 O                    -0.178128
     10 C                     0.217594
     11 C                    -0.076980
     12 C                    -0.081482
     13 C                     0.209877
     14 O                    -0.217114
     15 O                    -0.180300
     16 O                    -0.175412
     17 O                    -0.201166
     18 C                    -0.142604
     19 C                     0.024748
     20 C                    -0.144827
     21 C                    -0.142813
     22 C                     0.028872
     23 O                    -0.192854
     24 H                     0.087035
     25 H                     0.083576
     26 H                     0.091078
     27 H                     0.077911
     28 H                     0.074961
     29 H                     0.079478
     30 H                     0.076199
     31 H                     0.094629
     32 O                    -0.195098
     33 C                    -0.128838
     34 C                     0.024741
     35 C                    -0.144594
     36 C                    -0.145328
     37 C                     0.006177
     38 O                    -0.189380
     39 H                     0.080848
     40 H                     0.077093
     41 H                     0.091634
     42 H                     0.088544
     43 H                     0.076425
     44 H                     0.070690
     45 H                     0.076392
     46 H                     0.066392
     47 H                     0.111991
     48 H                     0.086389
     49 H                     0.084917
     50 H                     0.111257
     51 H                     0.084787
     52 H                     0.077598
     53 H                     0.089933
     54 H                     0.109322
     55 H                     0.084453
     56 H                     0.091123
  ----------------------------------------
  Sum of atomic charges =     0.000000

                    Cartesian Multipole Moments
 -----------------------------------------------------------------
    Charge (ESU x 10^10)
                -0.0000
    Dipole Moment (Debye)
         X      -1.5457      Y      -3.4431      Z      -4.3455
       Tot       5.7556
    Quadrupole Moments (Debye-Ang)
        XX    -157.6803     XY     -11.7019     YY    -156.0114
        XZ       3.1531     YZ      -1.9387     ZZ    -156.6440

 Total job time:  213.13s(wall), 10162.05s(cpu)
        *  Thank you very much for using Q-Chem.  Have a nice day.  *
