 Q-Chem 5.0, Q-Chem, Inc., Pleasanton, CA (2017)
 Q-Chem 5.0.1 for Intel X86 EM64T Linux

User input:
--------------------------------------------------------------
$molecule
0  1
O -3.94934 -3.66094 2.70899
C -3.26408 -4.56952 2.26188
C -3.36658 -6.02376 2.66595
C -2.12547 -6.66327 3.30978
C -0.98101 -5.73098 3.64016
O -0.11377 -6.34645 4.4972
C 1.04093 -5.55444 4.79494
C 1.80917 -6.16363 5.96319
O 1.02823 -7.20301 6.57368
C 1.67394 -8.37958 6.76836
C 1.19603 -9.47315 5.84296
C -0.11744 -10.14874 6.26327
C -0.93021 -9.41761 7.31282
O -1.66441 -9.94555 8.13549
O -2.42031 -4.30011 1.22906
O -1.07336 -8.07711 7.22413
O 2.7389 -8.44535 7.36663
C -1.82536 -7.29156 8.07791
C 0.90594 -9.13866 4.37512
C 1.04088 -10.39613 3.51454
C -0.18583 -11.175 3.95351
C -0.83134 -10.1636 4.90836
O -0.47925 -8.92649 4.351
H 2.01397 -10.23025 5.85833
H 0.01727 -11.18773 6.63907
H 1.54947 -8.32792 3.97362
H 0.90216 -10.0856 2.45404
H 2.00674 -10.93674 3.613
H -0.83637 -11.33351 3.06472
H 0.02043 -12.14739 4.45076
H -1.91437 -10.37466 5.02491
O -0.85246 -4.56947 3.27589
C -2.23577 -3.04761 0.68151
C -4.43828 -6.21617 3.75356
C -4.9388 -7.65556 3.75498
C -3.73127 -8.35927 4.31577
C -2.81941 -7.15804 4.59903
O -3.70778 -6.1281 4.94169
H -3.68043 -6.56988 1.74796
H -1.71269 -7.50692 2.71581
H -1.85219 -2.34579 1.45268
H -5.30637 -5.52729 3.66017
H -5.76799 -7.72234 4.49552
H -5.29045 -8.02762 2.76858
H -4.02383 -8.85403 5.26902
H -3.26415 -9.09262 3.62486
H -2.1044 -7.41438 5.3669
H -3.19357 -2.66525 0.26838
H -1.49387 -3.11578 -0.14028
H -1.74542 -6.23188 7.75933
H -1.44337 -7.3828 9.117
H -2.89347 -7.59494 8.03834
H 2.76498 -6.57264 5.55753
H 2.0835 -5.38131 6.70412
H 0.68275 -4.57106 5.18107
H 1.68681 -5.36214 3.90919
$end

$opt
CONSTRAINT
tors           1           2           3           4    -118.300
tors           3           4           5           6    +164.514
tors           4           5           6           7    +176.479
tors           5           6           7           8    +168.232
tors           6           7           8           9     -10.424
tors           7           8           9          10    +130.372
tors           8           9          10          11    -108.811
tors           9          10          11          12     -79.619
tors          11          12          13          14    -150.003
ENDCONSTRAINT
$end

$rem
JOBTYPE                   OPT
METHOD                    B3LYP
DFT_D                     d3_op
BASIS                     STO-3G
GEOM_OPT_MAX_CYCLES       100
GEOM_OPT_TOL_GRADIENT     300
GEOM_OPT_TOL_DISPLACEMENT 1200
GEOM_OPT_TOL_ENERGY       100
SYMMETRY                  False
THRESH                    12
SCF_CONVERGENCE           8
MAX_SUB_FILE_NUM          128
MEM_STATIC                400
MEM_TOTAL                 4000
$end
--------------------------------------------------------------

   15   -1510.1152612883      7.43E-09 Convergence criterion met
 Total energy in the final basis set = -1510.11526129
   14   -1510.1904255941      7.85E-09 Convergence criterion met
 Total energy in the final basis set = -1510.19042559
   15   -1510.2065464203      3.02E-09 Convergence criterion met
 Total energy in the final basis set = -1510.20654642
   15   -1510.2459296819      4.19E-09 Convergence criterion met
 Total energy in the final basis set = -1510.24592968
   14   -1510.2503049644      8.65E-09 Convergence criterion met
 Total energy in the final basis set = -1510.25030496
   14   -1510.2549733666      5.85E-09 Convergence criterion met
 Total energy in the final basis set = -1510.25497337
   14   -1510.2589042075      3.36E-09 Convergence criterion met
 Total energy in the final basis set = -1510.25890421
    2   -1510.2589042075      1.44E-09 Convergence criterion met
   10   -1510.2611598001      7.47E-09 Convergence criterion met
 Total energy in the final basis set = -1510.26115980
    9   -1510.2611660645      6.87E-09 Convergence criterion met
 Total energy in the final basis set = -1510.26116606
    9   -1510.2611696709      7.73E-09 Convergence criterion met
 Total energy in the final basis set = -1510.26116967
    9   -1510.2611708979      8.12E-09 Convergence criterion met
 Total energy in the final basis set = -1510.26117090
    9   -1510.2611703386      8.81E-09 Convergence criterion met
 Total energy in the final basis set = -1510.26117034
    9   -1510.2611698443      3.85E-09 Convergence criterion met
 Total energy in the final basis set = -1510.26116984

             Standard Nuclear Orientation (Angstroms)
    I     Atom           X                Y                Z
 ----------------------------------------------------------------
    1      O      -5.0635179623     0.3196057307     0.8343138558
    2      C      -4.2881013935     0.2130973489    -0.1395061512
    3      C      -3.1731271794    -0.8736810429    -0.3572956468
    4      C      -1.7037393141    -0.3087509969    -0.4587535257
    5      C      -1.6150283076     1.1686972380     0.0607635753
    6      O      -0.2412172212     1.4748558808     0.2774766124
    7      C      -0.0566118351     2.8838929575     0.6912487323
    8      C       1.4441283867     2.9938650958     1.1893638077
    9      O       1.9890972945     1.6170874543     1.2881084657
   10      C       3.2683143738     1.4967046193     0.6206667826
   11      C       3.2769897058     0.6677864263    -0.7236685517
   12      C       3.2961553789    -0.9226420757    -0.6198222895
   13      C       2.9806636536    -1.5937427284     0.7635846083
   14      O       3.4410840605    -2.6881736328     1.1583335753
   15      O      -4.4368484467     0.9363675272    -1.3742814198
   16      O       1.9863096193    -0.8514911105     1.4748844435
   17      O       4.3020117455     2.0409665700     1.0706342261
   18      C       1.7076405664    -1.4934322740     2.7830786783
   19      C       2.0211959640     0.8905507293    -1.6782838699
   20      C       2.4967328895     0.6058151596    -3.1576948536
   21      C       2.6532849275    -0.9596353635    -3.1223040828
   22      C       2.1480706510    -1.2876561896    -1.6607225660
   23      O       1.1283678011    -0.2526354388    -1.3939910213
   24      H       4.2016545149     0.9892495537    -1.2366965865
   25      H       4.2717663657    -1.3228763238    -0.9491949455
   26      H       1.4777679110     1.8416399643    -1.5286032241
   27      H       1.7188335485     0.9156929960    -3.8740273867
   28      H       3.4352352969     1.1256214504    -3.4072033101
   29      H       2.0114896399    -1.4494779331    -3.8715760049
   30      H       3.6930500678    -1.2872905427    -3.2803006048
   31      H       1.7193728359    -2.2996403738    -1.5275753012
   32      O      -2.5604251332     1.9510881958     0.3108271054
   33      C      -5.4654379375     1.9857265444    -1.2121490179
   34      C      -3.0183681471    -1.8877204960     0.8563827586
   35      C      -2.3982136395    -3.2177300052     0.2771379996
   36      C      -0.9344691966    -2.7356653064    -0.0454470066
   37      C      -0.9431279361    -1.2683276492     0.5436337693
   38      O      -1.9057332681    -1.3398212916     1.6708988888
   39      H      -3.4317370769    -1.4154473604    -1.2850476126
   40      H      -1.2823905093    -0.3560453222    -1.4793298998
   41      H      -5.1456840093     2.7487505936    -0.4728706513
   42      H      -3.9318512404    -2.0019018683     1.4722450485
   43      H      -2.4017758201    -4.0092006101     1.0439909916
   44      H      -2.9367039755    -3.5824596489    -0.6120400805
   45      H      -0.1784443354    -3.3538191971     0.4644620935
   46      H      -0.7203855917    -2.7400633663    -1.1261227175
   47      H       0.0535337793    -0.8876976922     0.8567255066
   48      H      -6.4369404764     1.5625097119    -0.8836812564
   49      H      -5.5835268397     2.4595485180    -2.2040932701
   50      H       0.9653116230    -0.8440427777     3.2815588472
   51      H       2.6241147675    -1.5640048144     3.4023517880
   52      H       1.2835969566    -2.5098327955     2.6535722453
   53      H       2.0326358970     3.6293400745     0.4954413890
   54      H       1.4681084651     3.4768114532     2.1915993624
   55      H      -0.7696540639     3.1471627985     1.5015157738
   56      H      -0.2428658441     3.5700210308    -0.1639354706
 ----------------------------------------------------------------

    8   -1510.2611696320      9.38E-09 Convergence criterion met
 Total energy in the final basis set = -1510.26116963
 Final energy is   -1510.26116963200
 **  OPTIMIZATION CONVERGED  **

                    Orbital Energies (a.u.)
 --------------------------------------------------------------

 Alpha MOs
 -- Occupied --
-18.944 -18.937 -18.911 -18.908 -18.899 -18.898 -18.878 -18.877
-18.871 -18.853 -10.111 -10.103 -10.098 -10.083 -10.078 -10.075
-10.069 -10.068 -10.063 -10.048 -10.046 -10.045 -10.043 -10.038
-10.028 -10.027 -10.026 -10.022 -10.011 -10.010  -1.017  -1.014
 -1.006  -0.990  -0.980  -0.956  -0.944  -0.939  -0.929  -0.916
 -0.769  -0.752  -0.729  -0.720  -0.712  -0.706  -0.688  -0.662
 -0.647  -0.613  -0.601  -0.576  -0.551  -0.546  -0.535  -0.529
 -0.520  -0.504  -0.485  -0.483  -0.466  -0.449  -0.446  -0.442
 -0.439  -0.427  -0.422  -0.415  -0.413  -0.407  -0.396  -0.396
 -0.389  -0.383  -0.373  -0.369  -0.359  -0.355  -0.350  -0.345
 -0.343  -0.339  -0.335  -0.333  -0.325  -0.323  -0.318  -0.316
 -0.313  -0.306  -0.303  -0.297  -0.291  -0.290  -0.282  -0.268
 -0.264  -0.254  -0.248  -0.241  -0.237  -0.231  -0.222  -0.181
 -0.177  -0.165  -0.160  -0.157  -0.153  -0.152  -0.147  -0.135
 -0.132

          Ground-State Mulliken Net Atomic Charges

     Atom                 Charge (a.u.)
  ----------------------------------------
      1 O                    -0.220964
      2 C                     0.215020
      3 C                    -0.083558
      4 C                    -0.074650
      5 C                     0.217261
      6 O                    -0.158390
      7 C                    -0.048316
      8 C                    -0.044898
      9 O                    -0.179092
     10 C                     0.219861
     11 C                    -0.081012
     12 C                    -0.077565
     13 C                     0.205969
     14 O                    -0.212696
     15 O                    -0.177431
     16 O                    -0.156974
     17 O                    -0.187727
     18 C                    -0.126663
     19 C                     0.027933
     20 C                    -0.143694
     21 C                    -0.144672
     22 C                     0.024801
     23 O                    -0.185018
     24 H                     0.084359
     25 H                     0.087228
     26 H                     0.083753
     27 H                     0.078065
     28 H                     0.074661
     29 H                     0.078482
     30 H                     0.075846
     31 H                     0.084012
     32 O                    -0.211557
     33 C                    -0.128267
     34 C                     0.022805
     35 C                    -0.143145
     36 C                    -0.145896
     37 C                     0.014717
     38 O                    -0.197785
     39 H                     0.081120
     40 H                     0.093272
     41 H                     0.089851
     42 H                     0.086915
     43 H                     0.074828
     44 H                     0.070754
     45 H                     0.071004
     46 H                     0.069727
     47 H                     0.108149
     48 H                     0.085598
     49 H                     0.083670
     50 H                     0.100570
     51 H                     0.090113
     52 H                     0.090709
     53 H                     0.080106
     54 H                     0.084895
     55 H                     0.093191
     56 H                     0.080726
  ----------------------------------------
  Sum of atomic charges =    -0.000000

                    Cartesian Multipole Moments
 -----------------------------------------------------------------
    Charge (ESU x 10^10)
                 0.0000
    Dipole Moment (Debye)
         X       1.7115      Y       0.8032      Z      -3.4295
       Tot       3.9161
    Quadrupole Moments (Debye-Ang)
        XX    -173.0601     XY       3.2438     YY    -152.2840
        XZ      -1.0495     YZ       0.0993     ZZ    -156.2603

 Total job time:  62.86s(wall), 2987.87s(cpu)
        *  Thank you very much for using Q-Chem.  Have a nice day.  *
