 Q-Chem 5.0, Q-Chem, Inc., Pleasanton, CA (2017)
 Q-Chem 5.0.1 for Intel X86 EM64T Linux

User input:
--------------------------------------------------------------
$molecule
0  1
O -5.0635179623 0.3196057307 0.8343138558
C -4.2881013935 0.2130973489 -0.1395061512
C -3.1731271794 -0.8736810429 -0.3572956468
C -1.7037393141 -0.3087509969 -0.4587535257
C -1.6150283076 1.168697238 0.0607635753
O -0.2412172212 1.4748558808 0.2774766124
C -0.0566118351 2.8838929575 0.6912487323
C 1.4441283867 2.9938650958 1.1893638077
O 1.9890972945 1.6170874543 1.2881084657
C 3.2683143738 1.4967046193 0.6206667826
C 3.2769897058 0.6677864263 -0.7236685517
C 3.2961553789 -0.9226420757 -0.6198222895
C 2.9806636536 -1.5937427284 0.7635846083
O 3.4410840605 -2.6881736328 1.1583335753
O -4.4368484467 0.9363675272 -1.3742814198
O 1.9863096193 -0.8514911105 1.4748844435
O 4.3020117455 2.04096657 1.0706342261
C 1.7076405664 -1.493432274 2.7830786783
C 2.021195964 0.8905507293 -1.6782838699
C 2.4967328895 0.6058151596 -3.1576948536
C 2.6532849275 -0.9596353635 -3.1223040828
C 2.148070651 -1.2876561896 -1.660722566
O 1.1283678011 -0.2526354388 -1.3939910213
H 4.2016545149 0.9892495537 -1.2366965865
H 4.2717663657 -1.3228763238 -0.9491949455
H 1.477767911 1.8416399643 -1.5286032241
H 1.7188335485 0.915692996 -3.8740273867
H 3.4352352969 1.1256214504 -3.4072033101
H 2.0114896399 -1.4494779331 -3.8715760049
H 3.6930500678 -1.2872905427 -3.2803006048
H 1.7193728359 -2.2996403738 -1.5275753012
O -2.5604251332 1.9510881958 0.3108271054
C -5.4654379375 1.9857265444 -1.2121490179
C -3.0183681471 -1.887720496 0.8563827586
C -2.3982136395 -3.2177300052 0.2771379996
C -0.9344691966 -2.7356653064 -0.0454470066
C -0.9431279361 -1.2683276492 0.5436337693
O -1.9057332681 -1.3398212916 1.6708988888
H -3.4317370769 -1.4154473604 -1.2850476126
H -1.2823905093 -0.3560453222 -1.4793298998
H -5.1456840093 2.7487505936 -0.4728706513
H -3.9318512404 -2.0019018683 1.4722450485
H -2.4017758201 -4.0092006101 1.0439909916
H -2.9367039755 -3.5824596489 -0.6120400805
H -0.1784443354 -3.3538191971 0.4644620935
H -0.7203855917 -2.7400633663 -1.1261227175
H 0.0535337793 -0.8876976922 0.8567255066
H -6.4369404764 1.5625097119 -0.8836812564
H -5.5835268397 2.459548518 -2.2040932701
H 0.965311623 -0.8440427777 3.2815588472
H 2.6241147675 -1.5640048144 3.402351788
H 1.2835969566 -2.5098327955 2.6535722453
H 2.032635897 3.6293400745 0.495441389
H 1.4681084651 3.4768114532 2.1915993624
H -0.7696540639 3.1471627985 1.5015157738
H -0.2428658441 3.5700210308 -0.1639354706
$end

$rem
JOBTYPE                   OPT
METHOD                    B3LYP
DFT_D                     d3_op
BASIS                     STO-3G
GEOM_OPT_MAX_CYCLES       100
GEOM_OPT_TOL_GRADIENT     300
GEOM_OPT_TOL_DISPLACEMENT 1200
GEOM_OPT_TOL_ENERGY       100
SYMMETRY                  False
THRESH                    12
SCF_CONVERGENCE           8
MAX_SUB_FILE_NUM          128
MEM_STATIC                400
MEM_TOTAL                 4000
$end
--------------------------------------------------------------

   16   -1510.2610814830      6.09E-09 Convergence criterion met
 Total energy in the final basis set = -1510.26108148
   15   -1510.2612350303      2.16E-09 Convergence criterion met
 Total energy in the final basis set = -1510.26123503
   14   -1510.2649562980      2.64E-09 Convergence criterion met
 Total energy in the final basis set = -1510.26495630
   13   -1510.2694885033      8.59E-09 Convergence criterion met
 Total energy in the final basis set = -1510.26948850
   13   -1510.2729209861      4.97E-09 Convergence criterion met
 Total energy in the final basis set = -1510.27292099
   13   -1510.2759964811      3.32E-09 Convergence criterion met
 Total energy in the final basis set = -1510.27599648
   14   -1510.2777427653      2.50E-09 Convergence criterion met
 Total energy in the final basis set = -1510.27774277
   13   -1510.2807615119      6.60E-09 Convergence criterion met
   12   -1510.3036751221      2.47E-09 Convergence criterion met
 Total energy in the final basis set = -1510.30367512
   11   -1510.3036798900      4.28E-09 Convergence criterion met
 Total energy in the final basis set = -1510.30367989
   10   -1510.3036759420      7.04E-09 Convergence criterion met
 Total energy in the final basis set = -1510.30367594
   11   -1510.3036802911      4.30E-09 Convergence criterion met
 Total energy in the final basis set = -1510.30368029
    9   -1510.3036805961      3.44E-09 Convergence criterion met
 Total energy in the final basis set = -1510.30368060
    9   -1510.3036819263      3.80E-09 Convergence criterion met
 Total energy in the final basis set = -1510.30368193

             Standard Nuclear Orientation (Angstroms)
    I     Atom           X                Y                Z
 ----------------------------------------------------------------
    1      O      -2.8907047908    -1.0842343050     2.0407734182
    2      C      -3.4490461249    -0.4896993466     1.0893652069
    3      C      -3.2319684073    -0.7431758490    -0.4472255374
    4      C      -2.1633386201     0.2183454837    -1.1108271524
    5      C      -1.6647992312     1.3411357110    -0.1473808512
    6      O      -0.8787246269     2.2637308493    -0.9023487563
    7      C      -0.3269113928     3.3362742393    -0.0375371798
    8      C       0.7259639640     2.7870021065     0.9950302278
    9      O       1.4678850719     1.6691852802     0.3708179904
   10      C       2.8515824212     1.9940522257     0.1973729666
   11      C       3.5555302230     0.7481432777    -0.4307663626
   12      C       3.1626642467    -0.6340767451     0.2511108774
   13      C       2.2122564439    -0.4652692615     1.4998590420
   14      O       2.5350333136     0.0564005707     2.5910497251
   15      O      -4.5241236580     0.4426237979     1.2480224181
   16      O       0.9360338762    -1.0317131173     1.2168084208
   17      O       3.3593862492     3.0984324178     0.4898748232
   18      C       0.0399786276    -0.8860214440     2.3885897281
   19      C       3.0473698480     0.4964428809    -1.9189798453
   20      C       4.0479586638    -0.5017616858    -2.6238567018
   21      C       3.6466640187    -1.8663123613    -1.9475046311
   22      C       2.5003913745    -1.3989361557    -0.9669357203
   23      O       1.8305641191    -0.3209895530    -1.7303484482
   24      H       4.6449371603     0.9237179006    -0.4021417547
   25      H       4.0741270893    -1.1544070285     0.5973876485
   26      H       2.8128558268     1.4161371059    -2.4897308862
   27      H       3.8694610494    -0.5203135939    -3.7108057868
   28      H       5.0996383618    -0.2284574869    -2.4424131884
   29      H       3.2543134601    -2.5822187704    -2.6872147237
   30      H       4.4850805652    -2.3361167052    -1.4090796783
   31      H       1.7647060340    -2.1725562288    -0.6748392379
   32      O      -1.9016985284     1.4502767837     1.0778841734
   33      C      -4.7202994930     0.7381652478     2.6849772116
   34      C      -2.5410307643    -2.1514509051    -0.6713897761
   35      C      -2.6107351426    -2.5151800411    -2.2066030127
   36      C      -1.4808750102    -1.5876286210    -2.7898689363
   37      C      -1.0109033324    -0.8182640094    -1.4933948649
   38      O      -1.1103874189    -1.8516170969    -0.4387003121
   39      H      -4.2096504843    -0.6607249126    -0.9541069449
   40      H      -2.5639886346     0.7021736888    -2.0196981664
   41      H      -3.8291287451     1.2412755606     3.1131169235
   42      H      -2.8882325890    -2.9411749912     0.0225666965
   43      H      -2.3834439154    -3.5816918459    -2.3622625982
   44      H      -3.6019700819    -2.2993098974    -2.6364125103
   45      H      -0.6472209182    -2.1791750152    -3.2008974172
   46      H      -1.8490926371    -0.9071082845    -3.5740116827
   47      H       0.0241369203    -0.4002261007    -1.5371192509
   48      H      -4.9206631509    -0.1835160087     3.2685393259
   49      H      -5.5931280163     1.4140981757     2.7437431811
   50      H      -0.9919482258    -1.1314211131     2.0485317226
   51      H       0.0644950951     0.1501075398     2.7800295716
   52      H       0.3438487012    -1.5738994215     3.2037384308
   53      H       1.4395181098     3.5878955985     1.2870668015
   54      H       0.2073190785     2.3824989272     1.8874719595
   55      H      -1.1369483745     3.8662122007     0.5096118340
   56      H       0.1579819333     4.0393117404    -0.7435815363
 ----------------------------------------------------------------

    9   -1510.3036816592      2.20E-09 Convergence criterion met
 Total energy in the final basis set = -1510.30368166
 Final energy is   -1510.30368165917
 **  OPTIMIZATION CONVERGED  **

                    Orbital Energies (a.u.)
 --------------------------------------------------------------

 Alpha MOs
 -- Occupied --
-18.940 -18.937 -18.925 -18.916 -18.900 -18.881 -18.881 -18.875
-18.863 -18.850 -10.104 -10.103 -10.093 -10.084 -10.078 -10.069
-10.068 -10.059 -10.056 -10.050 -10.040 -10.035 -10.033 -10.031
-10.029 -10.026 -10.024 -10.021 -10.012 -10.008  -1.021  -1.012
 -1.001  -0.991  -0.977  -0.958  -0.945  -0.937  -0.926  -0.916
 -0.765  -0.755  -0.729  -0.717  -0.710  -0.705  -0.690  -0.655
 -0.637  -0.618  -0.593  -0.579  -0.548  -0.539  -0.536  -0.529
 -0.513  -0.499  -0.482  -0.468  -0.464  -0.456  -0.445  -0.440
 -0.435  -0.425  -0.422  -0.415  -0.405  -0.404  -0.399  -0.395
 -0.384  -0.376  -0.371  -0.363  -0.362  -0.354  -0.348  -0.346
 -0.341  -0.336  -0.332  -0.329  -0.324  -0.319  -0.317  -0.309
 -0.306  -0.303  -0.298  -0.296  -0.292  -0.284  -0.276  -0.272
 -0.268  -0.256  -0.246  -0.242  -0.239  -0.228  -0.218  -0.187
 -0.173  -0.167  -0.161  -0.157  -0.156  -0.153  -0.144  -0.135
 -0.131

          Ground-State Mulliken Net Atomic Charges

     Atom                 Charge (a.u.)
  ----------------------------------------
      1 O                    -0.221661
      2 C                     0.220734
      3 C                    -0.081797
      4 C                    -0.080059
      5 C                     0.218336
      6 O                    -0.165541
      7 C                    -0.048253
      8 C                    -0.057178
      9 O                    -0.168676
     10 C                     0.213120
     11 C                    -0.078838
     12 C                    -0.078348
     13 C                     0.209907
     14 O                    -0.228621
     15 O                    -0.172136
     16 O                    -0.164699
     17 O                    -0.211765
     18 C                    -0.139239
     19 C                     0.028837
     20 C                    -0.143346
     21 C                    -0.144001
     22 C                     0.025806
     23 O                    -0.188241
     24 H                     0.086718
     25 H                     0.083167
     26 H                     0.084227
     27 H                     0.078370
     28 H                     0.075515
     29 H                     0.078053
     30 H                     0.074943
     31 H                     0.102135
     32 O                    -0.214628
     33 C                    -0.128060
     34 C                     0.024299
     35 C                    -0.145549
     36 C                    -0.143944
     37 C                     0.009995
     38 O                    -0.188940
     39 H                     0.083197
     40 H                     0.084801
     41 H                     0.092221
     42 H                     0.082493
     43 H                     0.074933
     44 H                     0.070536
     45 H                     0.074833
     46 H                     0.070078
     47 H                     0.117623
     48 H                     0.088108
     49 H                     0.087040
     50 H                     0.117511
     51 H                     0.079516
     52 H                     0.075931
     53 H                     0.102265
     54 H                     0.097799
     55 H                     0.090190
     56 H                     0.090282
  ----------------------------------------
  Sum of atomic charges =    -0.000000

                    Cartesian Multipole Moments
 -----------------------------------------------------------------
    Charge (ESU x 10^10)
                 0.0000
    Dipole Moment (Debye)
         X      -0.6819      Y       0.2062      Z      -2.7909
       Tot       2.8804
    Quadrupole Moments (Debye-Ang)
        XX    -150.3343     XY      -7.0739     YY    -155.8262
        XZ      -8.0658     YZ       2.3673     ZZ    -159.7964

 Total job time:  161.70s(wall), 7714.02s(cpu)
        *  Thank you very much for using Q-Chem.  Have a nice day.  *
