 Q-Chem 5.0, Q-Chem, Inc., Pleasanton, CA (2017)
 Q-Chem 5.0.1 for Intel X86 EM64T Linux

User input:
--------------------------------------------------------------
$molecule
0  1
O -3.673875473 -2.8663372101 -0.8035053456
C -3.0782603236 -1.7850782593 -0.6026040316
C -3.6662240733 -0.5853484328 0.2040770137
C -2.9711731083 0.9400056226 0.3081130131
C -1.3634256172 0.7331472819 -0.4990994444
O -1.3544334395 1.9717363892 -1.2904483859
C 0.4739253282 1.6840344854 -1.9369915747
C 1.1128872948 2.9170742232 -1.2007824988
O 2.4131119644 2.6816970129 -0.5132723483
C 2.9855922646 1.573726721 0.0664432
C 2.0670568781 0.4915119973 0.7735873778
C 2.2928559891 -1.0243872901 0.4503555309
C 3.5084217032 -1.2682603699 -0.5230826625
O 3.595634964 -0.8991103178 -1.7150788991
O -1.9643135793 -1.3147979957 -1.3589839906
O 4.5495851875 -1.9317771856 0.1950913884
O 4.215509684 1.3898818462 -0.0467005839
C 5.7532779316 -2.0726888609 -0.6594002781
C 2.3867120857 0.5325860333 2.362877098
C 1.1480138796 -0.045833481 3.1611054445
C 1.2251913462 -1.5672700358 2.7672388215
C 2.5661563375 -1.5963317162 1.9197874415
O 3.40334395 -0.5261407944 2.5278523532
H 0.9631159619 0.7087250823 0.6139564209
H 1.3771764805 -1.4529693699 0.0068797535
H 2.7525510142 1.5144079942 2.7265294967
H 1.3044561983 0.0869571371 4.2447163694
H 0.1913816711 0.4179657261 2.8697373828
H 1.3131538544 -2.2231393291 3.6480417123
H 0.3495651539 -1.878908342 2.1724838931
H 3.1281573432 -2.5509989768 1.9620262563
O -0.5980332607 0.1123766508 0.3481129429
C -1.4237268826 -2.4040913034 -2.1997613054
C -5.0859947663 -0.2213850694 -0.4003785427
C -5.872370757 0.7796824599 0.5311611262
C -5.0970681829 2.1270983713 0.2839786243
C -4.0106506572 1.6517142564 -0.7564793586
O -4.7030358352 0.6181097723 -1.5687587296
H -3.7302332496 -0.8807322987 1.2870169496
H -2.8904329282 1.3078837654 1.0931402482
H -1.2725288829 -1.972506566 -3.2040927766
H -5.6533042843 -1.1077694206 -0.726500262
H -6.9151835624 0.857378614 0.1877054094
H -5.8711231291 0.4572535563 1.584817521
H -5.7348114031 2.9056708349 -0.1488762449
H -4.6379887186 2.5159069136 1.2108520018
H -3.5596620197 2.4439080621 -1.3944967932
H -2.1426291693 -3.2486935659 -2.230284929
H -0.4537556237 -2.7448693352 -1.7864957742
H 6.5165512894 -2.5457425676 -0.0161060569
H 6.1124094177 -1.0835079829 -1.0055830915
H 5.5585870829 -2.7156507374 -1.5418597195
H 1.3223335202 3.6437986373 -1.9958749968
H 0.4166293861 3.3865843273 -0.5307223543
H 0.1022907112 1.9351949583 -3.1010581704
H 0.7249333537 0.7163294441 -1.8057282262
$end

$rem
JOBTYPE                   OPT
METHOD                    B3LYP
DFT_D                     d3_op
BASIS                     STO-3G
GEOM_OPT_MAX_CYCLES       100
GEOM_OPT_TOL_GRADIENT     300
GEOM_OPT_TOL_DISPLACEMENT 1200
GEOM_OPT_TOL_ENERGY       100
SYMMETRY                  False
THRESH                    12
SCF_CONVERGENCE           8
MAX_SUB_FILE_NUM          128
MEM_STATIC                400
MEM_TOTAL                 4000
$end
--------------------------------------------------------------

   18   -1509.9908410138      7.53E-09 Convergence criterion met
 Total energy in the final basis set = -1509.99084101
   16   -1509.3889098689      4.46E-09 Convergence criterion met
 Total energy in the final basis set = -1509.38890987
   20   -1509.9781941619      3.26E-09 Convergence criterion met
 Total energy in the final basis set = -1509.97819416
   17   -1510.0246591485      2.65E-09 Convergence criterion met
 Total energy in the final basis set = -1510.02465915
   15   -1510.1043926069      5.89E-09 Convergence criterion met
 Total energy in the final basis set = -1510.10439261
   15   -1510.1311958348      8.30E-09 Convergence criterion met
 Total energy in the final basis set = -1510.13119583
   15   -1510.1601072091      8.17E-09 Convergence criterion met
 Total energy in the final basis set = -1510.16010721
   14   -1510.2094214807      4.95E-09 Convergence criterion met
    9   -1510.2858641659      4.47E-09 Convergence criterion met
 Total energy in the final basis set = -1510.28586417
    9   -1510.2858569894      7.54E-09 Convergence criterion met
 Total energy in the final basis set = -1510.28585699
   11   -1510.2858586311      2.29E-09 Convergence criterion met
 Total energy in the final basis set = -1510.28585863
    9   -1510.2858614419      4.33E-09 Convergence criterion met
 Total energy in the final basis set = -1510.28586144
    9   -1510.2858596397      3.01E-09 Convergence criterion met
 Total energy in the final basis set = -1510.28585964
    8   -1510.2858621653      6.37E-09 Convergence criterion met
 Total energy in the final basis set = -1510.28586217

             Standard Nuclear Orientation (Angstroms)
    I     Atom           X                Y                Z
 ----------------------------------------------------------------
    1      O       2.2486957152    -2.8723330813    -0.0415465399
    2      C       2.4539805726    -1.6663829525     0.2246163783
    3      C       3.6168069693    -0.7904822401    -0.3546223906
    4      C       3.2464007288     0.7071362151    -0.7377865894
    5      C       1.7323285536     1.0276356469    -0.4823252558
    6      O       1.5987921416     1.9401392553     0.6032048738
    7      C       0.1874922624     2.0649378952     1.0368967356
    8      C      -0.7179436828     2.9152365109     0.0551473203
    9      O      -2.1389093782     2.7957301318     0.4435693604
   10      C      -2.6756917726     1.4622653367     0.2934287636
   11      C      -2.0732399789     0.4963020943    -0.7943230569
   12      C      -2.3665965280    -1.0237508081    -0.4562508662
   13      C      -2.8842902868    -1.2248428667     1.0095962263
   14      O      -2.1824370917    -1.0812330904     2.0431559918
   15      O       1.6792281185    -0.8998253166     1.1517486756
   16      O      -4.2345985423    -1.6721912100     1.0192525403
   17      O      -3.6776842809     1.1781620744     0.9897943712
   18      C      -4.7217145963    -1.7822456660     2.4137890022
   19      C      -2.9014831347     0.6518191480    -2.1421624658
   20      C      -2.1474826263    -0.1438978035    -3.2820910505
   21      C      -2.5405277106    -1.6266124010    -2.9298346084
   22      C      -3.3825395492    -1.4107192393    -1.6111748439
   23      O      -4.1162038603    -0.1530215102    -1.8833165358
   24      H      -0.9827736593     0.6383468563    -0.9504566856
   25      H      -1.4307803636    -1.6056238780    -0.5476064768
   26      H      -3.1745986590     1.6942490268    -2.3982245717
   27      H      -2.5213511658     0.1517687069    -4.2752794812
   28      H      -1.0589623528     0.0244589821    -3.2455724469
   29      H      -3.1698670903    -2.0730603784    -3.7163342278
   30      H      -1.6637342700    -2.2736505459    -2.7677864367
   31      H      -4.0886770838    -2.2230742584    -1.3540837886
   32      O       0.7861142609     0.5752240881    -1.1733742665
   33      C       0.6739195295    -1.7612644916     1.8287977960
   34      C       4.7451257232    -0.5380582521     0.7434160686
   35      C       6.0645601487    -0.0868891559     0.0036384484
   36      C       5.6957418273     1.3883995506    -0.3988743580
   37      C       4.2384023787     1.5144822914     0.1981867969
   38      O       4.2910279620     0.6915847035     1.4289751641
   39      H       4.0254406838    -1.3330347277    -1.2252930470
   40      H       3.4501036874     0.8874953249    -1.8091686878
   41      H       0.9810462878    -1.8888930217     2.8854883537
   42      H       4.8706749109    -1.3647679195     1.4693257579
   43      H       6.9198774114    -0.1145407956     0.6974644415
   44      H       6.2948783349    -0.7231360704    -0.8660299051
   45      H       6.3702105599     2.1181496545     0.0763056526
   46      H       5.7133396368     1.5487735864    -1.4887587196
   47      H       3.9074109714     2.5433680603     0.4344534469
   48      H       0.6563975273    -2.7514126519     1.3317056185
   49      H      -0.3421820978    -1.2928808733     1.7989634539
   50      H      -5.7460403246    -2.1923434817     2.3468089047
   51      H      -4.7493251378    -0.7871205852     2.9026163171
   52      H      -4.0837703364    -2.4598289983     3.0172103142
   53      H      -0.4763969312     3.9923650048     0.1558840627
   54      H      -0.5349055232     2.6117407184    -0.9959630845
   55      H       0.2306258376     2.5634134585     2.0253866656
   56      H      -0.2575924452     1.0563015229     1.1714309287
 ----------------------------------------------------------------

    8   -1510.2858624330      5.86E-09 Convergence criterion met
 Total energy in the final basis set = -1510.28586243
 Final energy is   -1510.28586243299
 **  OPTIMIZATION CONVERGED  **

                    Orbital Energies (a.u.)
 --------------------------------------------------------------

 Alpha MOs
 -- Occupied --
-18.954 -18.936 -18.933 -18.931 -18.894 -18.891 -18.881 -18.879
-18.876 -18.867 -10.122 -10.101 -10.100 -10.097 -10.081 -10.079
-10.066 -10.065 -10.059 -10.055 -10.052 -10.048 -10.044 -10.037
-10.030 -10.026 -10.025 -10.016 -10.014 -10.013  -1.029  -1.011
 -1.010  -1.003  -0.976  -0.964  -0.954  -0.938  -0.936  -0.932
 -0.770  -0.756  -0.732  -0.719  -0.715  -0.703  -0.700  -0.656
 -0.650  -0.622  -0.598  -0.592  -0.552  -0.543  -0.542  -0.533
 -0.521  -0.510  -0.491  -0.481  -0.473  -0.463  -0.460  -0.440
 -0.437  -0.429  -0.426  -0.414  -0.411  -0.407  -0.404  -0.400
 -0.394  -0.387  -0.383  -0.372  -0.368  -0.360  -0.359  -0.347
 -0.344  -0.338  -0.336  -0.327  -0.326  -0.325  -0.316  -0.313
 -0.312  -0.311  -0.303  -0.302  -0.300  -0.296  -0.281  -0.279
 -0.274  -0.262  -0.250  -0.245  -0.240  -0.239  -0.228  -0.199
 -0.177  -0.174  -0.171  -0.166  -0.157  -0.151  -0.150  -0.145
 -0.137

          Ground-State Mulliken Net Atomic Charges

     Atom                 Charge (a.u.)
  ----------------------------------------
      1 O                    -0.214659
      2 C                     0.207402
      3 C                    -0.078840
      4 C                    -0.078010
      5 C                     0.227558
      6 O                    -0.160498
      7 C                    -0.051289
      8 C                    -0.052047
      9 O                    -0.170987
     10 C                     0.204395
     11 C                    -0.106999
     12 C                    -0.081917
     13 C                     0.219655
     14 O                    -0.229717
     15 O                    -0.174162
     16 O                    -0.160522
     17 O                    -0.196298
     18 C                    -0.126076
     19 C                     0.022923
     20 C                    -0.145152
     21 C                    -0.143255
     22 C                     0.025084
     23 O                    -0.188750
     24 H                     0.111098
     25 H                     0.083467
     26 H                     0.079020
     27 H                     0.075270
     28 H                     0.078409
     29 H                     0.076191
     30 H                     0.074210
     31 H                     0.089497
     32 O                    -0.225059
     33 C                    -0.154113
     34 C                     0.026186
     35 C                    -0.143566
     36 C                    -0.144417
     37 C                     0.025572
     38 O                    -0.184635
     39 H                     0.086592
     40 H                     0.085554
     41 H                     0.080184
     42 H                     0.084664
     43 H                     0.079387
     44 H                     0.074928
     45 H                     0.079065
     46 H                     0.073325
     47 H                     0.090739
     48 H                     0.092140
     49 H                     0.107913
     50 H                     0.091230
     51 H                     0.096501
     52 H                     0.088573
     53 H                     0.092057
     54 H                     0.087722
     55 H                     0.098151
     56 H                     0.096307
  ----------------------------------------
  Sum of atomic charges =     0.000000

                    Cartesian Multipole Moments
 -----------------------------------------------------------------
    Charge (ESU x 10^10)
                 0.0000
    Dipole Moment (Debye)
         X       3.4875      Y       0.4056      Z      -1.6437
       Tot       3.8768
    Quadrupole Moments (Debye-Ang)
        XX    -160.7851     XY       9.6615     YY    -158.7241
        XZ      -6.6015     YZ      -5.9534     ZZ    -158.6957

 Total job time:  287.06s(wall), 13710.81s(cpu)
        *  Thank you very much for using Q-Chem.  Have a nice day.  *
