 Q-Chem 5.0, Q-Chem, Inc., Pleasanton, CA (2017)
 Q-Chem 5.0.1 for Intel X86 EM64T Linux

User input:
--------------------------------------------------------------
$molecule
0  1
O -3.94934 -3.66094 2.70899
C -3.26408 -4.56952 2.26188
C -3.36658 -6.02376 2.66595
C -2.07847 -6.86126 2.60914
C -0.79702 -6.1092 2.32565
O 0.27854 -6.89025 2.63958
C 0.47206 -7.97553 1.72635
C 0.34577 -7.48176 0.28886
O 1.27139 -6.40828 0.05702
C 0.74049 -5.28991 -0.49663
C 1.78047 -4.39558 -1.12852
C 1.27821 -3.55356 -2.31047
C -0.22674 -3.45371 -2.45836
O -0.85403 -3.67086 -3.48496
O -2.35242 -4.148 1.35204
O -0.88 -2.67738 -1.55527
O -0.40735 -4.94424 -0.27731
C -2.14252 -2.14887 -1.77762
C 2.28639 -3.27362 -0.19367
C 3.683 -2.83816 -0.63645
C 3.35924 -2.14059 -1.9446
C 1.82587 -2.17361 -1.89811
O 1.52453 -2.13969 -0.52374
H 2.65889 -5.03028 -1.3897
H 1.68251 -3.91937 -3.28009
H 2.29175 -3.56431 0.87971
H 4.02433 -2.07456 0.09928
H 4.44847 -3.64076 -0.70496
H 3.74592 -1.09891 -1.89132
H 3.73943 -2.64585 -2.85891
H 1.39221 -1.35438 -2.51335
O -0.65134 -4.97983 2.76092
C -1.91512 -2.82734 1.36724
C -3.72857 -6.15531 4.16193
C -4.36446 -7.51802 4.42927
C -3.15569 -8.41515 4.30883
C -2.05961 -7.37024 4.0765
O -2.49021 -6.25516 4.81207
H -4.2017 -6.45228 2.06862
H -2.17208 -7.7117 1.90274
H -1.56196 -2.5549 2.38604
H -4.40646 -5.35451 4.53001
H -4.70635 -7.52543 5.48923
H -5.21777 -7.77583 3.76571
H -2.99879 -8.92356 5.2865
H -3.19857 -9.16886 3.4931
H -1.08471 -7.80129 4.38935
H -2.74014 -2.13747 1.09617
H -1.03476 -2.69867 0.72728
H -2.41083 -1.44973 -0.96582
H -2.8962 -2.96264 -1.84252
H -2.14767 -1.55441 -2.71697
H 0.62256 -8.32872 -0.37415
H -0.71028 -7.24285 0.0301
H -0.24123 -8.8054 1.91675
H 1.49227 -8.38101 1.89384
$end

$opt
CONSTRAINT
tors           1           2           3           4    -149.243
tors           3           4           5           6    +164.514
tors           4           5           6           7     +71.352
tors           5           6           7           8     +45.720
tors           6           7           8           9     +55.966
tors           7           8           9          10    -129.304
tors           8           9          10          11    -161.050
tors           9          10          11          12    +150.964
tors          11          12          13          14    -129.252
ENDCONSTRAINT
$end

$rem
JOBTYPE                   OPT
METHOD                    B3LYP
DFT_D                     d3_op
BASIS                     STO-3G
GEOM_OPT_MAX_CYCLES       100
GEOM_OPT_TOL_GRADIENT     300
GEOM_OPT_TOL_DISPLACEMENT 1200
GEOM_OPT_TOL_ENERGY       100
SYMMETRY                  False
THRESH                    12
SCF_CONVERGENCE           8
MAX_SUB_FILE_NUM          128
MEM_STATIC                400
MEM_TOTAL                 4000
$end
--------------------------------------------------------------

   16   -1510.0870970264      2.59E-09 Convergence criterion met
 Total energy in the final basis set = -1510.08709703
   14   -1510.1634146649      7.86E-09 Convergence criterion met
 Total energy in the final basis set = -1510.16341466
   15   -1510.2005879418      3.40E-09 Convergence criterion met
 Total energy in the final basis set = -1510.20058794
   15   -1510.2276274657      2.12E-09 Convergence criterion met
 Total energy in the final basis set = -1510.22762747
   14   -1510.2372462537      5.22E-09 Convergence criterion met
 Total energy in the final basis set = -1510.23724625
   13   -1510.2462031537      7.10E-09 Convergence criterion met
 Total energy in the final basis set = -1510.24620315
   13   -1510.2519039557      4.96E-09 Convergence criterion met
 Total energy in the final basis set = -1510.25190396
   13   -1510.2547386537      5.10E-09 Convergence criterion met
   12   -1510.2573016158      4.05E-09 Convergence criterion met
 Total energy in the final basis set = -1510.25730162
   11   -1510.2573412599      7.27E-09 Convergence criterion met
 Total energy in the final basis set = -1510.25734126
   11   -1510.2573600258      5.88E-09 Convergence criterion met
 Total energy in the final basis set = -1510.25736003
   11   -1510.2573762701      6.34E-09 Convergence criterion met
 Total energy in the final basis set = -1510.25737627
    9   -1510.2573814423      8.24E-09 Convergence criterion met
 Total energy in the final basis set = -1510.25738144
   10   -1510.2573831084      6.64E-09 Convergence criterion met
 Total energy in the final basis set = -1510.25738311

             Standard Nuclear Orientation (Angstroms)
    I     Atom           X                Y                Z
 ----------------------------------------------------------------
    1      O      -2.3578319405    -2.6569686317    -1.6676660011
    2      C      -2.1984759165    -1.7774377389    -0.7916301250
    3      C      -3.3652150174    -1.0152090989    -0.0556271171
    4      C      -3.0974667290     0.4692171613     0.4164343142
    5      C      -1.9183857614     1.1688658360    -0.3722755870
    6      O      -1.8484714755     2.6111631354    -0.2443720516
    7      C      -1.4120918692     3.1083051489     1.0705182389
    8      C      -0.1611017112     2.4049208080     1.7105340624
    9      O       1.0118965441     2.4497697130     0.8079259104
   10      C       1.5450838520     1.1081577480     0.6905030108
   11      C       3.0124321466     1.2255779392     0.1649372419
   12      C       4.0486471813     0.0953495427     0.5807950848
   13      C       3.5904332873    -1.0930254842     1.4960544802
   14      O       4.1822499814    -1.4626718146     2.5359200877
   15      O      -0.9582478953    -1.5211098905    -0.1323250931
   16      O       2.5807012530    -1.8821013047     0.8561610815
   17      O       0.9146318364     0.0927755707     1.0534664127
   18      C       2.2341861537    -3.0450758395     1.7068599539
   19      C       3.0289497345     1.0757188605    -1.4271945656
   20      C       4.3718740381     1.6998661614    -1.9721284188
   21      C       5.4086610485     0.5935552213    -1.5543378577
   22      C       4.4636993516    -0.4625131712    -0.8569076636
   23      O       3.2061194496    -0.3782915471    -1.6298433946
   24      H       3.3845828553     2.2213551536     0.4630548420
   25      H       4.9123319440     0.5547684163     1.0938902915
   26      H       2.1043797275     1.4277453395    -1.9253700300
   27      H       4.3243092926     1.8183397984    -3.0663341772
   28      H       4.5853463387     2.6803765753    -1.5180443593
   29      H       5.9005377661     0.1465519128    -2.4330237024
   30      H       6.1846130806     0.9712225636    -0.8692863834
   31      H       4.8445913882    -1.5020828758    -0.8485937756
   32      O      -1.3072118186     0.6585477916    -1.3354503924
   33      C       0.1558786827    -2.1232276886    -0.9033117898
   34      C      -4.6661300969    -0.8364869391    -0.9465897901
   35      C      -5.9066610151    -0.7867912508     0.0252716002
   36      C      -5.6733404926     0.6057931170     0.7225877863
   37      C      -4.4376421018     1.1610056337    -0.0929102253
   38      O      -4.5880514649     0.5600968758    -1.4395746474
   39      H      -3.6095417692    -1.6298128345     0.8320513048
   40      H      -2.9550835855     0.5511023929     1.5084315779
   41      H       0.1862094843    -1.7139840084    -1.9326551870
   42      H      -4.7325008523    -1.5511102679    -1.7903183165
   43      H      -6.8455476699    -0.7929848163    -0.5514467302
   44      H      -5.9226118082    -1.6270815578     0.7377641239
   45      H      -6.5437717660     1.2708982438     0.6077035058
   46      H      -5.4446230631     0.5074627408     1.7961116168
   47      H      -4.3691475289     2.2641739196    -0.1647187819
   48      H       0.0546042925    -3.2259838941    -0.9646605694
   49      H       1.0846953608    -1.8450211371    -0.3618022167
   50      H       1.6702839795    -3.7424872860     1.0620382260
   51      H       1.5949519731    -2.7336149057     2.5577836242
   52      H       3.1434391500    -3.5389394443     2.1033491404
   53      H       0.0946633254     2.9392226862     2.6513679027
   54      H      -0.3823987413     1.3369616012     1.9306673416
   55      H      -2.2366232578     3.0501641675     1.8219085813
   56      H      -1.1876840614     4.1821188970     0.9007658592
 ----------------------------------------------------------------

   10   -1510.2573839903      5.62E-09 Convergence criterion met
 Total energy in the final basis set = -1510.25738399
 Final energy is   -1510.25738399028
 **  OPTIMIZATION CONVERGED  **

                    Orbital Energies (a.u.)
 --------------------------------------------------------------

 Alpha MOs
 -- Occupied --
-18.942 -18.931 -18.910 -18.909 -18.894 -18.893 -18.889 -18.883
-18.876 -18.852 -10.104 -10.103 -10.101 -10.082 -10.078 -10.070
-10.064 -10.063 -10.062 -10.058 -10.052 -10.044 -10.043 -10.036
-10.028 -10.025 -10.023 -10.022 -10.020 -10.016  -1.018  -1.012
 -1.003  -0.987  -0.975  -0.966  -0.944  -0.937  -0.932  -0.913
 -0.766  -0.757  -0.728  -0.719  -0.716  -0.704  -0.698  -0.661
 -0.636  -0.617  -0.598  -0.582  -0.547  -0.541  -0.539  -0.533
 -0.520  -0.502  -0.486  -0.470  -0.466  -0.452  -0.447  -0.441
 -0.438  -0.433  -0.425  -0.420  -0.411  -0.409  -0.398  -0.393
 -0.389  -0.382  -0.372  -0.369  -0.355  -0.352  -0.347  -0.345
 -0.341  -0.339  -0.334  -0.331  -0.327  -0.325  -0.319  -0.314
 -0.310  -0.309  -0.305  -0.304  -0.294  -0.289  -0.275  -0.274
 -0.265  -0.255  -0.247  -0.239  -0.235  -0.232  -0.225  -0.183
 -0.180  -0.165  -0.159  -0.156  -0.153  -0.149  -0.143  -0.141
 -0.133

          Ground-State Mulliken Net Atomic Charges

     Atom                 Charge (a.u.)
  ----------------------------------------
      1 O                    -0.221719
      2 C                     0.213316
      3 C                    -0.080393
      4 C                    -0.080249
      5 C                     0.220863
      6 O                    -0.188775
      7 C                    -0.045348
      8 C                    -0.062529
      9 O                    -0.174466
     10 C                     0.211185
     11 C                    -0.079210
     12 C                    -0.079962
     13 C                     0.209546
     14 O                    -0.214005
     15 O                    -0.171155
     16 O                    -0.158333
     17 O                    -0.198198
     18 C                    -0.127024
     19 C                     0.027001
     20 C                    -0.143633
     21 C                    -0.144067
     22 C                     0.027228
     23 O                    -0.184118
     24 H                     0.088873
     25 H                     0.086421
     26 H                     0.091641
     27 H                     0.080260
     28 H                     0.075004
     29 H                     0.079394
     30 H                     0.074495
     31 H                     0.084191
     32 O                    -0.175674
     33 C                    -0.141478
     34 C                     0.023267
     35 C                    -0.142218
     36 C                    -0.145349
     37 C                     0.022032
     38 O                    -0.190762
     39 H                     0.080531
     40 H                     0.077887
     41 H                     0.085885
     42 H                     0.092076
     43 H                     0.077831
     44 H                     0.073056
     45 H                     0.077702
     46 H                     0.071300
     47 H                     0.085439
     48 H                     0.073608
     49 H                     0.115938
     50 H                     0.093867
     51 H                     0.090086
     52 H                     0.093055
     53 H                     0.082270
     54 H                     0.099995
     55 H                     0.072435
     56 H                     0.090987
  ----------------------------------------
  Sum of atomic charges =    -0.000000

                    Cartesian Multipole Moments
 -----------------------------------------------------------------
    Charge (ESU x 10^10)
                -0.0000
    Dipole Moment (Debye)
         X       0.9713      Y       1.7593      Z       3.5708
       Tot       4.0975
    Quadrupole Moments (Debye-Ang)
        XX    -146.0937     XY       1.6771     YY    -155.7376
        XZ     -16.7826     YZ       1.9184     ZZ    -165.4490

 Total job time:  65.01s(wall), 3096.58s(cpu)
        *  Thank you very much for using Q-Chem.  Have a nice day.  *
