 Q-Chem 5.0, Q-Chem, Inc., Pleasanton, CA (2017)
 Q-Chem 5.0.1 for Intel X86 EM64T Linux

User input:
--------------------------------------------------------------
$molecule
0  1
O -2.3578319405 -2.6569686317 -1.6676660011
C -2.1984759165 -1.7774377389 -0.791630125
C -3.3652150174 -1.0152090989 -0.0556271171
C -3.097466729 0.4692171613 0.4164343142
C -1.9183857614 1.168865836 -0.372275587
O -1.8484714755 2.6111631354 -0.2443720516
C -1.4120918692 3.1083051489 1.0705182389
C -0.1611017112 2.404920808 1.7105340624
O 1.0118965441 2.449769713 0.8079259104
C 1.545083852 1.108157748 0.6905030108
C 3.0124321466 1.2255779392 0.1649372419
C 4.0486471813 0.0953495427 0.5807950848
C 3.5904332873 -1.0930254842 1.4960544802
O 4.1822499814 -1.4626718146 2.5359200877
O -0.9582478953 -1.5211098905 -0.1323250931
O 2.580701253 -1.8821013047 0.8561610815
O 0.9146318364 0.0927755707 1.0534664127
C 2.2341861537 -3.0450758395 1.7068599539
C 3.0289497345 1.0757188605 -1.4271945656
C 4.3718740381 1.6998661614 -1.9721284188
C 5.4086610485 0.5935552213 -1.5543378577
C 4.4636993516 -0.4625131712 -0.8569076636
O 3.2061194496 -0.3782915471 -1.6298433946
H 3.3845828553 2.2213551536 0.463054842
H 4.912331944 0.5547684163 1.0938902915
H 2.1043797275 1.4277453395 -1.92537003
H 4.3243092926 1.8183397984 -3.0663341772
H 4.5853463387 2.6803765753 -1.5180443593
H 5.9005377661 0.1465519128 -2.4330237024
H 6.1846130806 0.9712225636 -0.8692863834
H 4.8445913882 -1.5020828758 -0.8485937756
O -1.3072118186 0.6585477916 -1.3354503924
C 0.1558786827 -2.1232276886 -0.9033117898
C -4.6661300969 -0.8364869391 -0.9465897901
C -5.9066610151 -0.7867912508 0.0252716002
C -5.6733404926 0.605793117 0.7225877863
C -4.4376421018 1.1610056337 -0.0929102253
O -4.5880514649 0.5600968758 -1.4395746474
H -3.6095417692 -1.6298128345 0.8320513048
H -2.9550835855 0.5511023929 1.5084315779
H 0.1862094843 -1.7139840084 -1.932655187
H -4.7325008523 -1.5511102679 -1.7903183165
H -6.8455476699 -0.7929848163 -0.5514467302
H -5.9226118082 -1.6270815578 0.7377641239
H -6.543771766 1.2708982438 0.6077035058
H -5.4446230631 0.5074627408 1.7961116168
H -4.3691475289 2.2641739196 -0.1647187819
H 0.0546042925 -3.2259838941 -0.9646605694
H 1.0846953608 -1.8450211371 -0.3618022167
H 1.6702839795 -3.742487286 1.062038226
H 1.5949519731 -2.7336149057 2.5577836242
H 3.14343915 -3.5389394443 2.1033491404
H 0.0946633254 2.9392226862 2.6513679027
H -0.3823987413 1.3369616012 1.9306673416
H -2.2366232578 3.0501641675 1.8219085813
H -1.1876840614 4.182118897 0.9007658592
$end

$rem
JOBTYPE                   OPT
METHOD                    B3LYP
DFT_D                     d3_op
BASIS                     STO-3G
GEOM_OPT_MAX_CYCLES       100
GEOM_OPT_TOL_GRADIENT     300
GEOM_OPT_TOL_DISPLACEMENT 1200
GEOM_OPT_TOL_ENERGY       100
SYMMETRY                  False
THRESH                    12
SCF_CONVERGENCE           8
MAX_SUB_FILE_NUM          128
MEM_STATIC                400
MEM_TOTAL                 4000
$end
--------------------------------------------------------------

   16   -1510.2573333031      4.50E-09 Convergence criterion met
 Total energy in the final basis set = -1510.25733330
   14   -1510.2627666849      5.97E-09 Convergence criterion met
 Total energy in the final basis set = -1510.26276668
   13   -1510.2666300233      7.00E-09 Convergence criterion met
 Total energy in the final basis set = -1510.26663002
   14   -1510.2673190723      3.80E-09 Convergence criterion met
 Total energy in the final basis set = -1510.26731907
   13   -1510.2738110077      9.21E-09 Convergence criterion met
 Total energy in the final basis set = -1510.27381101
   13   -1510.2774516585      9.05E-09 Convergence criterion met
 Total energy in the final basis set = -1510.27745166
   13   -1510.2785257115      5.50E-09 Convergence criterion met
 Total energy in the final basis set = -1510.27852571
   13   -1510.2808213706      7.94E-09 Convergence criterion met
   12   -1510.2878736097      4.12E-09 Convergence criterion met
 Total energy in the final basis set = -1510.28787361
   12   -1510.2878670200      3.09E-09 Convergence criterion met
 Total energy in the final basis set = -1510.28786702
   11   -1510.2878886236      7.98E-09 Convergence criterion met
 Total energy in the final basis set = -1510.28788862
   10   -1510.2878879662      8.29E-09 Convergence criterion met
 Total energy in the final basis set = -1510.28788797
    9   -1510.2878900438      8.19E-09 Convergence criterion met
 Total energy in the final basis set = -1510.28789004
   10   -1510.2878921653      8.72E-09 Convergence criterion met
 Total energy in the final basis set = -1510.28789217

             Standard Nuclear Orientation (Angstroms)
    I     Atom           X                Y                Z
 ----------------------------------------------------------------
    1      O       1.9340750167     1.9973653400    -2.2801228788
    2      C       1.7745640436     1.6871286283    -1.0789367749
    3      C       2.8509448506     1.0539967735    -0.1191382112
    4      C       2.5843957606    -0.4482187175     0.3024310083
    5      C       1.3707875420    -1.0989767551    -0.4566325409
    6      O       0.9935825609    -2.4482635357    -0.1367644309
    7      C       1.3382809314    -2.9181311964     1.2228430415
    8      C       0.3397491372    -2.3019220088     2.2778656739
    9      O      -1.0150059639    -2.3409913522     1.6827474424
   10      C      -1.3659184034    -1.0384213421     1.1797302162
   11      C      -2.6059398932    -1.2030486071     0.2514466494
   12      C      -3.7794662047    -0.1650631448     0.5122990571
   13      C      -3.3697437662     0.9184329756     1.5771631201
   14      O      -3.4151486785     0.7820502532     2.8198145775
   15      O       0.6226493481     1.9783821953    -0.2886475073
   16      O      -2.9217413768     2.0994212622     0.9115713023
   17      O      -0.7331432542     0.0078700454     1.4460010355
   18      C      -2.3614944866     3.0527422030     1.8957060279
   19      C      -2.2342762080    -0.8798017824    -1.2704316081
   20      C      -3.3145777242    -1.5873488670    -2.1723414707
   21      C      -4.5808770968    -0.6954029702    -1.8775024284
   22      C      -3.9710024918     0.4249996815    -0.9421192453
   23      O      -2.5790348864     0.5505390548    -1.4286512864
   24      H      -2.9621672011    -2.2427657428     0.3545366036
   25      H      -4.6827168549    -0.6840593222     0.8796376902
   26      H      -1.1595679342    -1.0311831074    -1.5304533427
   27      H      -3.0221535472    -1.5311247851    -3.2331482921
   28      H      -3.4635305709    -2.6445751336    -1.9009593520
   29      H      -4.9858144833    -0.2495551635    -2.7996520190
   30      H      -5.3850028313    -1.2569301579    -1.3751662905
   31      H      -4.4843952856     1.4046674709    -0.9775456788
   32      O       0.7680513491    -0.5738963211    -1.4237520495
   33      C      -0.4633355382     2.5394138413    -1.1308953718
   34      C       4.2670284599     0.9291244365    -0.8188018917
   35      C       5.3661056399     0.7866738950     0.3048023340
   36      C       5.0992597510    -0.6827530416     0.8025515908
   37      C       3.9421129916    -1.1317758082    -0.1758913767
   38      O       4.2396070475    -0.4195269813    -1.4357959111
   39      H       2.9034793211     1.6860674904     0.7852705573
   40      H       2.4405392214    -0.5246243848     1.3926226278
   41      H      -0.0810423456     2.7061053735    -2.1571166188
   42      H       4.4564064954     1.6998011450    -1.5906933992
   43      H       6.3745982925     0.8874441013    -0.1269354981
   44      H       5.2460786482     1.5351603501     1.1041118467
   45      H       5.9856007670    -1.3239062398     0.6724786458
   46      H       4.7855656301    -0.7233773935     1.8581077474
   47      H       3.8715600870    -2.2220145993    -0.3575831865
   48      H      -0.7782371329     3.5030560282    -0.6874285138
   49      H      -1.3217303984     1.8225811094    -1.1431603078
   50      H      -2.2355062274     4.0115912201     1.3607254884
   51      H      -1.3747218163     2.6981361557     2.2581062323
   52      H      -3.0365115502     3.1889703308     2.7645986375
   53      H       0.3352393165    -2.9086612169     3.2058207914
   54      H       0.5990759287    -1.2459777004     2.5085124859
   55      H       2.3912883935    -2.7171462799     1.5098042469
   56      H       1.1926730537    -4.0165604091     1.1774362650
 ----------------------------------------------------------------

    9   -1510.2878907196      5.56E-09 Convergence criterion met
 Total energy in the final basis set = -1510.28789072
 Final energy is   -1510.28789071962
 **  OPTIMIZATION CONVERGED  **

                    Orbital Energies (a.u.)
 --------------------------------------------------------------

 Alpha MOs
 -- Occupied --
-18.943 -18.938 -18.930 -18.902 -18.896 -18.895 -18.889 -18.883
-18.865 -18.846 -10.114 -10.104 -10.094 -10.089 -10.079 -10.078
-10.066 -10.061 -10.056 -10.056 -10.051 -10.044 -10.037 -10.036
-10.029 -10.025 -10.021 -10.019 -10.016 -10.010  -1.025  -1.012
 -1.004  -0.983  -0.972  -0.971  -0.952  -0.939  -0.929  -0.909
 -0.763  -0.763  -0.727  -0.723  -0.716  -0.706  -0.701  -0.654
 -0.633  -0.621  -0.597  -0.586  -0.549  -0.543  -0.538  -0.535
 -0.513  -0.510  -0.488  -0.475  -0.468  -0.456  -0.446  -0.443
 -0.439  -0.433  -0.429  -0.423  -0.410  -0.406  -0.402  -0.394
 -0.392  -0.378  -0.373  -0.361  -0.358  -0.355  -0.349  -0.346
 -0.340  -0.338  -0.335  -0.331  -0.325  -0.322  -0.321  -0.317
 -0.313  -0.303  -0.303  -0.300  -0.295  -0.282  -0.274  -0.272
 -0.269  -0.258  -0.249  -0.246  -0.236  -0.230  -0.220  -0.189
 -0.176  -0.169  -0.163  -0.159  -0.152  -0.146  -0.145  -0.137
 -0.132

          Ground-State Mulliken Net Atomic Charges

     Atom                 Charge (a.u.)
  ----------------------------------------
      1 O                    -0.222418
      2 C                     0.215322
      3 C                    -0.079216
      4 C                    -0.082440
      5 C                     0.218760
      6 O                    -0.171551
      7 C                    -0.049438
      8 C                    -0.058529
      9 O                    -0.169619
     10 C                     0.210524
     11 C                    -0.080592
     12 C                    -0.079062
     13 C                     0.209867
     14 O                    -0.219699
     15 O                    -0.177183
     16 O                    -0.164079
     17 O                    -0.209122
     18 C                    -0.127279
     19 C                     0.019178
     20 C                    -0.142469
     21 C                    -0.144510
     22 C                     0.028578
     23 O                    -0.183764
     24 H                     0.087967
     25 H                     0.084647
     26 H                     0.108959
     27 H                     0.080728
     28 H                     0.074163
     29 H                     0.078493
     30 H                     0.072871
     31 H                     0.088787
     32 O                    -0.187256
     33 C                    -0.153917
     34 C                     0.024612
     35 C                    -0.143594
     36 C                    -0.144598
     37 C                     0.021852
     38 O                    -0.186668
     39 H                     0.083245
     40 H                     0.080830
     41 H                     0.088510
     42 H                     0.092262
     43 H                     0.078714
     44 H                     0.074051
     45 H                     0.078410
     46 H                     0.070452
     47 H                     0.080155
     48 H                     0.067552
     49 H                     0.117107
     50 H                     0.088617
     51 H                     0.095394
     52 H                     0.089715
     53 H                     0.090138
     54 H                     0.097181
     55 H                     0.084176
     56 H                     0.095184
  ----------------------------------------
  Sum of atomic charges =    -0.000000

                    Cartesian Multipole Moments
 -----------------------------------------------------------------
    Charge (ESU x 10^10)
                -0.0000
    Dipole Moment (Debye)
         X       0.3826      Y      -2.0236      Z       3.3268
       Tot       3.9127
    Quadrupole Moments (Debye-Ang)
        XX    -145.2813     XY      -2.5105     YY    -151.7119
        XZ      16.9512     YZ      -0.0545     ZZ    -169.3362

 Total job time:  114.76s(wall), 5472.76s(cpu)
        *  Thank you very much for using Q-Chem.  Have a nice day.  *
