 Q-Chem 5.0, Q-Chem, Inc., Pleasanton, CA (2017)
 Q-Chem 5.0.1 for Intel X86 EM64T Linux

User input:
--------------------------------------------------------------
$molecule
0  1
O -3.94934 -3.66094 2.70899
C -3.26408 -4.56952 2.26188
C -3.36658 -6.02376 2.66595
C -2.36904 -7.00291 2.02562
C -1.26679 -6.39189 1.18909
O -0.38479 -7.36112 0.80426
C 0.60703 -6.88786 -0.11311
C 1.47773 -5.8285 0.55455
O 1.25317 -4.55082 -0.06189
C 0.7198 -3.59995 0.74466
C 0.36215 -2.33331 0.00414
C -0.5278 -1.35587 0.78573
C -0.63148 -1.60463 2.27706
O -1.54185 -2.2003 2.83469
O -3.32845 -4.49242 0.89655
O 0.41408 -1.18782 3.04527
O 0.60315 -3.77203 1.95165
C 0.49238 -1.34956 4.41282
C 1.55452 -1.43843 -0.36493
C 1.1827 -0.56807 -1.56438
C 0.18506 0.38155 -0.92796
C 0.27774 -0.06111 0.53775
O 1.61255 -0.49359 0.67442
H -0.17116 -2.66096 -0.91776
H -1.56011 -1.28604 0.38427
H 2.48705 -2.0092 -0.56634
H 2.0942 0.00795 -1.84312
H 0.81094 -1.1177 -2.45582
H 0.56487 1.4203 -1.04925
H -0.8552 0.30741 -1.31248
H -0.04024 0.76273 1.2144
O -1.19669 -5.26345 0.77724
C -3.54897 -3.3749 0.1052
C -3.04187 -6.20466 4.15754
C -3.65164 -7.508 4.67129
C -2.73564 -8.52112 4.02022
C -1.74639 -7.58915 3.31386
O -1.66377 -6.47662 4.17046
H -4.41725 -6.33138 2.46076
H -2.86067 -7.79027 1.41167
H -3.6501 -2.44076 0.69659
H -3.37835 -5.35102 4.78626
H -3.49359 -7.54472 5.77293
H -4.73338 -7.63171 4.44864
H -2.21207 -9.08647 4.82341
H -3.22795 -9.22901 3.31888
H -0.79167 -8.12957 3.13331
H -4.47546 -3.52556 -0.48569
H -2.6992 -3.25616 -0.59726
H 1.44644 -0.91584 4.77608
H 0.46741 -2.42934 4.673
H -0.35151 -0.82371 4.90853
H 1.44291 -5.8956 1.66544
H 2.53516 -6.06584 0.30785
H 0.18794 -6.56103 -1.09141
H 1.24927 -7.77085 -0.32059
$end

$opt
CONSTRAINT
tors           1           2           3           4    -177.476
tors           3           4           5           6    +173.711
tors           4           5           6           7    +173.520
tors           5           6           7           8     +63.644
tors           6           7           8           9    -112.896
tors           7           8           9          10    +116.318
tors           8           9          10          11    -173.454
tors           9          10          11          12    +166.671
tors          11          12          13          14     -97.900
ENDCONSTRAINT
$end

$rem
JOBTYPE                   OPT
METHOD                    B3LYP
DFT_D                     d3_op
BASIS                     STO-3G
GEOM_OPT_MAX_CYCLES       100
GEOM_OPT_TOL_GRADIENT     300
GEOM_OPT_TOL_DISPLACEMENT 1200
GEOM_OPT_TOL_ENERGY       100
SYMMETRY                  False
THRESH                    12
SCF_CONVERGENCE           8
MAX_SUB_FILE_NUM          128
MEM_STATIC                400
MEM_TOTAL                 4000
$end
--------------------------------------------------------------

   16   -1510.1027157682      3.21E-09 Convergence criterion met
 Total energy in the final basis set = -1510.10271577
   14   -1510.1788902399      8.44E-09 Convergence criterion met
 Total energy in the final basis set = -1510.17889024
   15   -1510.2203679631      3.15E-09 Convergence criterion met
 Total energy in the final basis set = -1510.22036796
   14   -1510.2449852316      7.70E-09 Convergence criterion met
 Total energy in the final basis set = -1510.24498523
   14   -1510.2567266757      6.46E-09 Convergence criterion met
 Total energy in the final basis set = -1510.25672668
   14   -1510.2632413471      2.86E-09 Convergence criterion met
 Total energy in the final basis set = -1510.26324135
   13   -1510.2674823660      3.93E-09 Convergence criterion met
 Total energy in the final basis set = -1510.26748237
   13   -1510.2701676457      2.88E-09 Convergence criterion met
   11   -1510.2740298114      3.34E-09 Convergence criterion met
 Total energy in the final basis set = -1510.27402981
    9   -1510.2740396583      6.15E-09 Convergence criterion met
 Total energy in the final basis set = -1510.27403966
    9   -1510.2740483361      5.27E-09 Convergence criterion met
 Total energy in the final basis set = -1510.27404834
   11   -1510.2740569891      2.39E-09 Convergence criterion met
 Total energy in the final basis set = -1510.27405699
   10   -1510.2740605508      8.26E-09 Convergence criterion met
 Total energy in the final basis set = -1510.27406055
    9   -1510.2740591799      9.36E-09 Convergence criterion met
 Total energy in the final basis set = -1510.27405918

             Standard Nuclear Orientation (Angstroms)
    I     Atom           X                Y                Z
 ----------------------------------------------------------------
    1      O      -1.5512322740    -2.4858269999     2.1913680126
    2      C      -1.8289979297    -1.2927497486     1.9328148314
    3      C      -2.9463120183    -0.8518078289     0.9219160058
    4      C      -3.2192747958     0.6654972748     0.5861867400
    5      C      -1.9121575235     1.5327292729     0.4701930242
    6      O      -2.2682408172     2.8542787365     0.0187291516
    7      C      -1.0698817827     3.7342097932     0.0525785999
    8      C       0.0641630833     3.2538964454    -0.9452668753
    9      O       1.2581062662     2.7831055347    -0.2059889139
   10      C       1.4287436498     1.3841113482    -0.4893916576
   11      C       2.5704301075     0.7869997379     0.3867698514
   12      C       2.5683325766    -0.7997000208     0.3594304934
   13      C       1.3954067372    -1.4245499185    -0.4912565185
   14      O       0.3127635351    -1.8547229501    -0.0330250749
   15      O      -1.3442821042    -0.1847851897     2.7002399521
   16      O       1.8309331194    -1.6352245945    -1.8412962108
   17      O       0.7750263439     0.7688270129    -1.3645172262
   18      C       0.6939609027    -2.1353335409    -2.6451509104
   19      C       4.0061159053     1.0995063209    -0.2230804421
   20      C       5.0897133718     0.7764496828     0.8799998413
   21      C       5.0892462824    -0.7970210306     0.8523335834
   22      C       4.0017477732    -1.0844840573    -0.2578954269
   23      O       4.1927946858     0.0252661237    -1.2226218447
   24      H       2.4733063041     1.1845342326     1.4127234127
   25      H       2.4744776456    -1.2011886620     1.3841544646
   26      H       4.0947324836     2.0967049410    -0.6964742695
   27      H       6.0693861231     1.1866251014     0.5873720117
   28      H       4.8145287096     1.1869150717     1.8646906749
   29      H       6.0689590204    -1.1957489047     0.5446091923
   30      H       4.8169657317    -1.2399017253     1.8236559964
   31      H       4.0937952009    -2.0603535894    -0.7714777423
   32      O      -0.7450103493     1.1910104194     0.7430685458
   33      C      -0.2904744779    -0.6377545548     3.6348844308
   34      C      -2.8252231329    -1.4824389438    -0.5427193119
   35      C      -4.2881228373    -1.8823119967    -0.9677537294
   36      C      -4.9470271173    -0.4528392956    -1.0588199955
   37      C      -3.6824515979     0.4899705354    -0.9293449475
   38      O      -2.5528187672    -0.3324101987    -1.4376426246
   39      H      -3.8756322725    -1.2479029082     1.3748989921
   40      H      -3.9607747931     1.1425532391     1.2509505237
   41      H      -0.2596168275    -1.7464885292     3.6420309145
   42      H      -2.0348501743    -2.2521487964    -0.6448793673
   43      H      -4.2805312166    -2.3824397478    -1.9498960709
   44      H      -4.7819289265    -2.5403351630    -0.2352241625
   45      H      -5.4532991770    -0.2944391293    -2.0239764270
   46      H      -5.6716911266    -0.2719512526    -0.2485456457
   47      H      -3.7479248718     1.4463968284    -1.4834920832
   48      H      -0.5244717441    -0.2492974935     4.6447929123
   49      H       0.6873822326    -0.2351747209     3.3022616854
   50      H       1.0792711699    -2.2644012861    -3.6731857241
   51      H      -0.1431282817    -1.4063664805    -2.6476143488
   52      H       0.3177718433    -3.1075581852    -2.2646245744
   53      H      -0.2970263035     2.4253351808    -1.5940297236
   54      H       0.3823308824     4.1063443194    -1.5812586270
   55      H      -0.6454432014     3.7880221758     1.0793894461
   56      H      -1.4450266233     4.7340337667    -0.2417658495
 ----------------------------------------------------------------

    9   -1510.2740603756      2.91E-09 Convergence criterion met
 Total energy in the final basis set = -1510.27406038
 Final energy is   -1510.27406037559
 **  OPTIMIZATION CONVERGED  **

                    Orbital Energies (a.u.)
 --------------------------------------------------------------

 Alpha MOs
 -- Occupied --
-18.930 -18.928 -18.922 -18.911 -18.883 -18.880 -18.877 -18.877
-18.859 -18.848 -10.100 -10.096 -10.090 -10.082 -10.072 -10.061
-10.057 -10.055 -10.053 -10.049 -10.049 -10.043 -10.036 -10.035
-10.029 -10.027 -10.017 -10.017 -10.015 -10.014  -1.016  -1.004
 -0.997  -0.988  -0.965  -0.964  -0.937  -0.931  -0.921  -0.913
 -0.757  -0.756  -0.723  -0.717  -0.706  -0.699  -0.689  -0.651
 -0.642  -0.615  -0.592  -0.575  -0.540  -0.536  -0.532  -0.532
 -0.506  -0.504  -0.479  -0.466  -0.455  -0.453  -0.449  -0.441
 -0.430  -0.428  -0.424  -0.405  -0.402  -0.400  -0.397  -0.394
 -0.385  -0.375  -0.373  -0.359  -0.358  -0.352  -0.345  -0.337
 -0.337  -0.331  -0.327  -0.322  -0.321  -0.318  -0.313  -0.308
 -0.305  -0.301  -0.298  -0.293  -0.290  -0.280  -0.272  -0.266
 -0.266  -0.254  -0.244  -0.236  -0.235  -0.229  -0.226  -0.178
 -0.168  -0.164  -0.157  -0.149  -0.144  -0.141  -0.139  -0.138
 -0.130

          Ground-State Mulliken Net Atomic Charges

     Atom                 Charge (a.u.)
  ----------------------------------------
      1 O                    -0.216973
      2 C                     0.221093
      3 C                    -0.078194
      4 C                    -0.074657
      5 C                     0.217518
      6 O                    -0.176453
      7 C                    -0.051095
      8 C                    -0.059228
      9 O                    -0.171951
     10 C                     0.229284
     11 C                    -0.077093
     12 C                    -0.079516
     13 C                     0.217212
     14 O                    -0.224816
     15 O                    -0.166949
     16 O                    -0.168920
     17 O                    -0.205388
     18 C                    -0.128028
     19 C                     0.025164
     20 C                    -0.143543
     21 C                    -0.144431
     22 C                     0.026072
     23 O                    -0.186495
     24 H                     0.086653
     25 H                     0.081177
     26 H                     0.083420
     27 H                     0.077286
     28 H                     0.072892
     29 H                     0.077033
     30 H                     0.072708
     31 H                     0.087944
     32 O                    -0.205787
     33 C                    -0.134097
     34 C                     0.024462
     35 C                    -0.141197
     36 C                    -0.146395
     37 C                     0.022349
     38 O                    -0.193001
     39 H                     0.081303
     40 H                     0.086016
     41 H                     0.102085
     42 H                     0.099731
     43 H                     0.076443
     44 H                     0.073944
     45 H                     0.077145
     46 H                     0.072435
     47 H                     0.084717
     48 H                     0.081527
     49 H                     0.081297
     50 H                     0.085319
     51 H                     0.097556
     52 H                     0.081659
     53 H                     0.109590
     54 H                     0.080920
     55 H                     0.091395
     56 H                     0.088858
  ----------------------------------------
  Sum of atomic charges =    -0.000000

                    Cartesian Multipole Moments
 -----------------------------------------------------------------
    Charge (ESU x 10^10)
                -0.0000
    Dipole Moment (Debye)
         X      -0.7551      Y       1.9169      Z       1.4074
       Tot       2.4951
    Quadrupole Moments (Debye-Ang)
        XX    -146.9183     XY      -0.9812     YY    -154.9913
        XZ       7.4621     YZ       2.1795     ZZ    -157.1900

 Total job time:  79.55s(wall), 3794.46s(cpu)
        *  Thank you very much for using Q-Chem.  Have a nice day.  *
