 Q-Chem 5.0, Q-Chem, Inc., Pleasanton, CA (2017)
 Q-Chem 5.0.1 for Intel X86 EM64T Linux

User input:
--------------------------------------------------------------
$molecule
0  1
O -1.551232274 -2.4858269999 2.1913680126
C -1.8289979297 -1.2927497486 1.9328148314
C -2.9463120183 -0.8518078289 0.9219160058
C -3.2192747958 0.6654972748 0.58618674
C -1.9121575235 1.5327292729 0.4701930242
O -2.2682408172 2.8542787365 0.0187291516
C -1.0698817827 3.7342097932 0.0525785999
C 0.0641630833 3.2538964454 -0.9452668753
O 1.2581062662 2.7831055347 -0.2059889139
C 1.4287436498 1.3841113482 -0.4893916576
C 2.5704301075 0.7869997379 0.3867698514
C 2.5683325766 -0.7997000208 0.3594304934
C 1.3954067372 -1.4245499185 -0.4912565185
O 0.3127635351 -1.8547229501 -0.0330250749
O -1.3442821042 -0.1847851897 2.7002399521
O 1.8309331194 -1.6352245945 -1.8412962108
O 0.7750263439 0.7688270129 -1.3645172262
C 0.6939609027 -2.1353335409 -2.6451509104
C 4.0061159053 1.0995063209 -0.2230804421
C 5.0897133718 0.7764496828 0.8799998413
C 5.0892462824 -0.7970210306 0.8523335834
C 4.0017477732 -1.0844840573 -0.2578954269
O 4.1927946858 0.0252661237 -1.2226218447
H 2.4733063041 1.1845342326 1.4127234127
H 2.4744776456 -1.201188662 1.3841544646
H 4.0947324836 2.096704941 -0.6964742695
H 6.0693861231 1.1866251014 0.5873720117
H 4.8145287096 1.1869150717 1.8646906749
H 6.0689590204 -1.1957489047 0.5446091923
H 4.8169657317 -1.2399017253 1.8236559964
H 4.0937952009 -2.0603535894 -0.7714777423
O -0.7450103493 1.1910104194 0.7430685458
C -0.2904744779 -0.6377545548 3.6348844308
C -2.8252231329 -1.4824389438 -0.5427193119
C -4.2881228373 -1.8823119967 -0.9677537294
C -4.9470271173 -0.4528392956 -1.0588199955
C -3.6824515979 0.4899705354 -0.9293449475
O -2.5528187672 -0.3324101987 -1.4376426246
H -3.8756322725 -1.2479029082 1.3748989921
H -3.9607747931 1.1425532391 1.2509505237
H -0.2596168275 -1.7464885292 3.6420309145
H -2.0348501743 -2.2521487964 -0.6448793673
H -4.2805312166 -2.3824397478 -1.9498960709
H -4.7819289265 -2.540335163 -0.2352241625
H -5.453299177 -0.2944391293 -2.023976427
H -5.6716911266 -0.2719512526 -0.2485456457
H -3.7479248718 1.4463968284 -1.4834920832
H -0.5244717441 -0.2492974935 4.6447929123
H 0.6873822326 -0.2351747209 3.3022616854
H 1.0792711699 -2.2644012861 -3.6731857241
H -0.1431282817 -1.4063664805 -2.6476143488
H 0.3177718433 -3.1075581852 -2.2646245744
H -0.2970263035 2.4253351808 -1.5940297236
H 0.3823308824 4.1063443194 -1.581258627
H -0.6454432014 3.7880221758 1.0793894461
H -1.4450266233 4.7340337667 -0.2417658495
$end

$rem
JOBTYPE                   OPT
METHOD                    B3LYP
DFT_D                     d3_op
BASIS                     STO-3G
GEOM_OPT_MAX_CYCLES       100
GEOM_OPT_TOL_GRADIENT     300
GEOM_OPT_TOL_DISPLACEMENT 1200
GEOM_OPT_TOL_ENERGY       100
SYMMETRY                  False
THRESH                    12
SCF_CONVERGENCE           8
MAX_SUB_FILE_NUM          128
MEM_STATIC                400
MEM_TOTAL                 4000
$end
--------------------------------------------------------------

   16   -1510.2741016029      5.70E-09 Convergence criterion met
 Total energy in the final basis set = -1510.27410160
   14   -1510.2717886092      9.30E-09 Convergence criterion met
 Total energy in the final basis set = -1510.27178861
   14   -1510.2758757125      4.11E-09 Convergence criterion met
 Total energy in the final basis set = -1510.27587571
   15   -1510.2716044615      4.07E-09 Convergence criterion met
 Total energy in the final basis set = -1510.27160446
   14   -1510.2802905867      7.67E-09 Convergence criterion met
 Total energy in the final basis set = -1510.28029059
   14   -1510.2815944033      8.96E-09 Convergence criterion met
 Total energy in the final basis set = -1510.28159440
   13   -1510.2841026857      3.82E-09 Convergence criterion met
 Total energy in the final basis set = -1510.28410269
   13   -1510.2871403659      3.40E-09 Convergence criterion met
   12   -1510.2976150012      4.79E-09 Convergence criterion met
 Total energy in the final basis set = -1510.29761500
   11   -1510.2976214468      4.00E-09 Convergence criterion met
 Total energy in the final basis set = -1510.29762145
   11   -1510.2976228350      3.83E-09 Convergence criterion met
 Total energy in the final basis set = -1510.29762284
   11   -1510.2976239539      4.28E-09 Convergence criterion met
 Total energy in the final basis set = -1510.29762395
    9   -1510.2976247319      3.95E-09 Convergence criterion met
 Total energy in the final basis set = -1510.29762473
    9   -1510.2976258419      8.57E-09 Convergence criterion met
 Total energy in the final basis set = -1510.29762584

             Standard Nuclear Orientation (Angstroms)
    I     Atom           X                Y                Z
 ----------------------------------------------------------------
    1      O      -0.2539569950    -0.9573629526     1.6410393233
    2      C      -1.4602731512    -0.7896539127     1.9195678097
    3      C      -2.6962341237    -0.7908169148     0.9499141725
    4      C      -3.0733529004     0.6345843668     0.3614463509
    5      C      -1.9753123134     1.7035533850     0.7062266584
    6      O      -1.9276907543     2.7140168177    -0.3025665465
    7      C      -0.8355032378     3.6759510021    -0.0165562462
    8      C       0.4680427353     3.3471898652    -0.8452017509
    9      O       1.4672786804     2.5407558318    -0.1041226272
   10      C       1.1693318819     1.1394528394    -0.2084780068
   11      C       2.3230207750     0.3204234814     0.4637598764
   12      C       2.3620972152    -1.2094623180     0.0425899032
   13      C       1.2197208437    -1.6880109726    -0.9223227246
   14      O       0.3253093259    -2.5168523695    -0.6372660227
   15      O      -1.9707115673    -0.6744523894     3.2595183214
   16      O       1.4163025547    -1.1294831882    -2.2211818889
   17      O       0.1326093127     0.6963960687    -0.7451934900
   18      C       0.2454605660    -1.4443252913    -3.0772344150
   19      C       3.7569743052     0.8057064416    -0.0163743242
   20      C       4.8429773655     0.2218057433     0.9706311330
   21      C       4.8839384946    -1.2852934331     0.5197466186
   22      C       3.8008601482    -1.2879989566    -0.6311213029
   23      O       3.9697179113     0.0395848869    -1.2649158242
   24      H       2.2067760851     0.4200675870     1.5591259585
   25      H       2.3027043292    -1.8493569153     0.9397749880
   26      H       3.8194576208     1.8943848471    -0.2073952313
   27      H       5.8136547269     0.7182751863     0.8129188015
   28      H       4.5515899883     0.3435509540     2.0260660822
   29      H       5.8730621988    -1.5595188418     0.1194338612
   30      H       4.6256979260    -1.9819806287     1.3329931339
   31      H       3.9139145912    -2.0921694073    -1.3833293032
   32      O      -1.2573610218     1.7064136852     1.7325576867
   33      C      -0.8509932644    -0.6237885685     4.2250577244
   34      C      -2.4570370237    -1.6148747397    -0.3888812802
   35      C      -3.8730329245    -2.0200287339    -0.9537456788
   36      C      -4.4064691629    -0.6219296658    -1.4509343952
   37      C      -3.1527481868     0.3070752686    -1.1852305770
   38      O      -2.0052194377    -0.6031749546    -1.3694672519
   39      H      -3.5507529929    -1.2024255519     1.5150802458
   40      H      -4.0421228316     0.9915300710     0.7590917490
   41      H       0.0903193227    -0.9095102764     3.7128051583
   42      H      -1.6773926544    -2.4026809526    -0.3217496897
   43      H      -3.7625256608    -2.7268860621    -1.7916435136
   44      H      -4.5199245191    -2.4761750755    -0.1877497368
   45      H      -4.6515439333    -0.6399887266    -2.5246233097
   46      H      -5.2946875596    -0.2854676677    -0.8927554762
   47      H      -3.0614290317     1.1945942799    -1.8400985252
   48      H      -1.0703053567    -1.3254432371     5.0526373453
   49      H      -0.7543955911     0.4037946735     4.6296372422
   50      H       0.4156401976    -0.9065937738    -4.0276562689
   51      H      -0.6963248295    -1.0935782421    -2.5874114875
   52      H       0.1759301724    -2.5328100899    -3.2797822140
   53      H       0.1730514058     2.8386259693    -1.7885384444
   54      H       0.9874507679     4.2974808402    -1.0846565674
   55      H      -0.6005133522     3.6651900263     1.0697228410
   56      H      -1.2155973714     4.6740323160    -0.3154619168
 ----------------------------------------------------------------

    8   -1510.2976260979      9.36E-09 Convergence criterion met
 Total energy in the final basis set = -1510.29762610
 Final energy is   -1510.29762609793
 **  OPTIMIZATION CONVERGED  **

                    Orbital Energies (a.u.)
 --------------------------------------------------------------

 Alpha MOs
 -- Occupied --
-18.939 -18.929 -18.916 -18.905 -18.888 -18.879 -18.877 -18.875
-18.859 -18.846 -10.105 -10.095 -10.088 -10.077 -10.074 -10.073
-10.058 -10.050 -10.048 -10.046 -10.045 -10.038 -10.029 -10.028
-10.024 -10.020 -10.017 -10.014 -10.012 -10.011  -1.020  -1.006
 -0.995  -0.983  -0.967  -0.960  -0.942  -0.932  -0.921  -0.908
 -0.759  -0.751  -0.723  -0.715  -0.706  -0.698  -0.690  -0.650
 -0.633  -0.616  -0.589  -0.573  -0.541  -0.534  -0.533  -0.527
 -0.507  -0.501  -0.481  -0.466  -0.452  -0.450  -0.448  -0.439
 -0.427  -0.424  -0.423  -0.407  -0.402  -0.397  -0.392  -0.391
 -0.385  -0.379  -0.362  -0.360  -0.352  -0.348  -0.346  -0.340
 -0.338  -0.328  -0.324  -0.322  -0.320  -0.317  -0.312  -0.307
 -0.305  -0.301  -0.296  -0.293  -0.286  -0.275  -0.272  -0.268
 -0.262  -0.257  -0.245  -0.237  -0.236  -0.224  -0.214  -0.187
 -0.168  -0.159  -0.158  -0.152  -0.146  -0.139  -0.138  -0.134
 -0.126

          Ground-State Mulliken Net Atomic Charges

     Atom                 Charge (a.u.)
  ----------------------------------------
      1 O                    -0.218678
      2 C                     0.217646
      3 C                    -0.079968
      4 C                    -0.074613
      5 C                     0.220824
      6 O                    -0.170093
      7 C                    -0.054935
      8 C                    -0.051316
      9 O                    -0.175368
     10 C                     0.219022
     11 C                    -0.073396
     12 C                    -0.076783
     13 C                     0.222232
     14 O                    -0.224638
     15 O                    -0.174613
     16 O                    -0.172353
     17 O                    -0.200914
     18 C                    -0.144258
     19 C                     0.023301
     20 C                    -0.144212
     21 C                    -0.144012
     22 C                     0.025266
     23 O                    -0.189348
     24 H                     0.090116
     25 H                     0.086144
     26 H                     0.086827
     27 H                     0.075757
     28 H                     0.072460
     29 H                     0.075467
     30 H                     0.072898
     31 H                     0.082832
     32 O                    -0.215880
     33 C                    -0.135028
     34 C                     0.019865
     35 C                    -0.143943
     36 C                    -0.145276
     37 C                     0.027948
     38 O                    -0.184333
     39 H                     0.084143
     40 H                     0.085338
     41 H                     0.097194
     42 H                     0.110827
     43 H                     0.077423
     44 H                     0.072760
     45 H                     0.076629
     46 H                     0.071972
     47 H                     0.090517
     48 H                     0.081581
     49 H                     0.083301
     50 H                     0.076833
     51 H                     0.116244
     52 H                     0.073412
     53 H                     0.098402
     54 H                     0.088749
     55 H                     0.102029
     56 H                     0.087999
  ----------------------------------------
  Sum of atomic charges =     0.000000

                    Cartesian Multipole Moments
 -----------------------------------------------------------------
    Charge (ESU x 10^10)
                 0.0000
    Dipole Moment (Debye)
         X      -1.3563      Y       1.6905      Z       0.9866
       Tot       2.3813
    Quadrupole Moments (Debye-Ang)
        XX    -149.6946     XY      -1.5236     YY    -150.9512
        XZ       7.5983     YZ      -1.9270     ZZ    -157.4604

 Total job time:  137.12s(wall), 6544.53s(cpu)
        *  Thank you very much for using Q-Chem.  Have a nice day.  *
