 Q-Chem 5.0, Q-Chem, Inc., Pleasanton, CA (2017)
 Q-Chem 5.0.1 for Intel X86 EM64T Linux

User input:
--------------------------------------------------------------
$molecule
0  1
O -6.0533705591 -0.4507766684 -0.538069149
C -4.8861552183 -0.0779501939 -0.7898536216
C -3.5988989397 -0.9732739669 -0.7251223013
C -2.1923725553 -0.2728392109 -0.5940788947
C -2.1942255603 1.1056324662 0.1792123063
O -0.8235799599 1.3648188559 0.4972689842
C -0.6305795786 2.7216616276 1.0579844501
C 0.5776021076 2.6186759727 2.0757094901
O 1.0915304057 1.2299778966 2.0521695305
C 2.346669106 1.1681596084 1.3565048234
C 2.661769897 -0.3528559531 1.1159340138
C 3.0338398533 -0.6941935788 -0.380704082
C 2.5238110117 0.3581466304 -1.422291355
O 1.8487059371 1.3886901791 -1.2085536388
O -4.5758880071 1.1374201026 -1.4800184954
O 2.9533348768 -0.0606743349 -2.7222359573
O 3.070149498 2.1591198261 1.1215627126
C 2.4870501454 0.9053319301 -3.7438077952
C 4.052320643 -0.6819610719 1.8153196908
C 4.3452035733 -2.2330084835 1.7208049385
C 4.8491500565 -2.3663893521 0.2353629741
C 4.6108179723 -0.8955544106 -0.2858552607
O 5.0193573865 -0.0701725887 0.8723019541
H 1.8222055643 -0.9600510604 1.4948017543
H 2.5680368715 -1.6560121546 -0.6666932828
H 4.1697233544 -0.2439482622 2.8253699592
H 5.123620169 -2.5259938037 2.4428005249
H 3.4407790611 -2.8314474267 1.9161655953
H 5.9217348901 -2.615783643 0.1960736643
H 4.2879714476 -3.1167766812 -0.3440635832
H 5.171645468 -0.609247771 -1.1964821306
O -3.1479796702 1.8221029301 0.5469957073
C -5.8004355174 1.951859223 -1.6444453303
C -3.5412321626 -2.0397694386 0.4529722309
C -2.7951781682 -3.3072268709 -0.1160821702
C -1.3423720749 -2.7258585227 -0.2962600535
C -1.4836543176 -1.3067929963 0.3867703776
O -2.5470454838 -1.4937701811 1.4071341059
H -3.608867364 -1.5231485005 -1.6867982842
H -1.6782932715 -0.1553727377 -1.5646508502
H -6.1860736589 2.3025374497 -0.6654741857
H -4.5116698284 -2.2295743825 0.9518080791
H -2.810224578 -4.1234398982 0.6243514053
H -3.2328658407 -3.6739678569 -1.0583159165
H -0.5897435166 -3.3364030308 0.2270985847
H -1.0499387938 -2.6402944278 -1.3553974742
H -0.5635448259 -0.9031083794 0.8526272297
H -6.6035383472 1.3847764847 -2.1584255977
H -5.5070007553 2.8237636224 -2.2573470721
H 2.884870823 0.5441399561 -4.7099474255
H 2.8672236306 1.9276823966 -3.5431349132
H 1.3794188575 0.9459260967 -3.7914717858
H 1.39967276 3.3117742587 1.7961961678
H 0.238353283 2.8327247887 3.1095252907
H -1.5658560316 3.0619961965 1.5515647868
H -0.3855061066 3.4225858756 0.2311576431
$end

$rem
JOBTYPE                   OPT
METHOD                    B3LYP
DFT_D                     d3_op
BASIS                     STO-3G
GEOM_OPT_MAX_CYCLES       100
GEOM_OPT_TOL_GRADIENT     300
GEOM_OPT_TOL_DISPLACEMENT 1200
GEOM_OPT_TOL_ENERGY       100
SYMMETRY                  False
THRESH                    12
SCF_CONVERGENCE           8
MAX_SUB_FILE_NUM          128
MEM_STATIC                400
MEM_TOTAL                 4000
$end
--------------------------------------------------------------

   16   -1510.2674087761      6.51E-09 Convergence criterion met
 Total energy in the final basis set = -1510.26740878
   14   -1510.2713740434      2.81E-09 Convergence criterion met
 Total energy in the final basis set = -1510.27137404
   14   -1510.2735378104      4.38E-09 Convergence criterion met
 Total energy in the final basis set = -1510.27353781
   13   -1510.2765744797      5.67E-09 Convergence criterion met
 Total energy in the final basis set = -1510.27657448
   14   -1510.2789633668      7.53E-09 Convergence criterion met
 Total energy in the final basis set = -1510.27896337
   13   -1510.2810890288      5.51E-09 Convergence criterion met
 Total energy in the final basis set = -1510.28108903
   13   -1510.2828932508      5.09E-09 Convergence criterion met
 Total energy in the final basis set = -1510.28289325
   13   -1510.2840786670      3.56E-09 Convergence criterion met
   12   -1510.2997033452      3.28E-09 Convergence criterion met
 Total energy in the final basis set = -1510.29970335
   11   -1510.2997070305      9.69E-09 Convergence criterion met
 Total energy in the final basis set = -1510.29970703
   11   -1510.2997104227      8.76E-09 Convergence criterion met
 Total energy in the final basis set = -1510.29971042
   10   -1510.2997083199      4.14E-09 Convergence criterion met
 Total energy in the final basis set = -1510.29970832
    9   -1510.2997103188      6.08E-09 Convergence criterion met
 Total energy in the final basis set = -1510.29971032
    9   -1510.2997106162      3.33E-09 Convergence criterion met
 Total energy in the final basis set = -1510.29971062

             Standard Nuclear Orientation (Angstroms)
    I     Atom           X                Y                Z
 ----------------------------------------------------------------
    1      O      -4.9990638954    -0.2832946890     0.9932564136
    2      C      -4.4744318376    -0.1315162247    -0.1295638918
    3      C      -3.3334840366    -0.9967533240    -0.7806662442
    4      C      -1.9430834255    -0.2533088776    -0.8657760523
    5      C      -1.9280157402     1.1872051656    -0.2689014105
    6      O      -0.6946525169     1.8011621489    -0.6770820495
    7      C      -0.2777961241     2.8583303591     0.2729173037
    8      C       0.1085387851     2.2135507344     1.6603908869
    9      O       0.7859165681     0.9140265083     1.4445550094
   10      C       2.2179389014     1.0534263166     1.5450870253
   11      C       2.8504416723    -0.3576009949     1.2579623867
   12      C       2.6995486787    -0.8394434348    -0.2432837802
   13      C       2.0799314488     0.2778934736    -1.1428379363
   14      O       2.1608215312     1.5108366599    -0.9360333059
   15      O      -4.8986867212     0.8367047569    -1.0999744054
   16      O       1.4168303516    -0.3094771991    -2.2593103843
   17      O       2.7943735161     2.0919271883     1.9279622980
   18      C       0.7834334257     0.7628063429    -3.0701452813
   19      C       4.4262276116    -0.3360857673     1.4186062040
   20      C       4.9210820656    -1.8250543057     1.5883781692
   21      C       4.7380226667    -2.3705149986     0.1230744936
   22      C       4.2258106136    -1.0765233343    -0.6258998745
   23      O       4.9135021857     0.0340915285     0.0683922910
   24      H       2.3807290184    -1.0837983214     1.9461920531
   25      H       2.1024016674    -1.7626570437    -0.3350563837
   26      H       4.7921987622     0.3879321471     2.1722463309
   27      H       5.9784744024    -1.8468680068     1.8967143097
   28      H       4.3245812046    -2.3812416001     2.3290105052
   29      H       5.6939696674    -2.7107926310    -0.3056329865
   30      H       4.0104915904    -3.1958797387     0.0635022547
   31      H       4.4333893649    -1.0475860130    -1.7133340160
   32      O      -2.7518814864     1.7079352418     0.5133214877
   33      C      -5.9218713328     1.7234604331    -0.5029424213
   34      C      -2.9526861233    -2.2270602672     0.1403492422
   35      C      -2.0637923653    -3.2309137732    -0.6989302602
   36      C      -0.6770383628    -2.4836473439    -0.7069987482
   37      C      -1.0403166571    -1.1706688828     0.0842441684
   38      O      -1.9989730333    -1.6365842621     1.1085209790
   39      H      -3.6674149390    -1.3140030729    -1.7849770971
   40      H      -1.5451251958    -0.2285720369    -1.8938981710
   41      H      -5.5015224774     2.3039165796     0.3437860741
   42      H      -3.8130700082    -2.6766763162     0.6729723220
   43      H      -1.9942315556    -4.2050789609    -0.1896515730
   44      H      -2.4657772477    -3.3902698978    -1.7122409368
   45      H       0.0891265722    -3.0591569098    -0.1627528392
   46      H      -0.3002569885    -2.2653356305    -1.7194996080
   47      H      -0.2006848689    -0.6130892398     0.5575415258
   48      H      -6.7986311428     1.1506474749    -0.1374363320
   49      H      -6.2382398472     2.4143457617    -1.3059360026
   50      H       0.1667180609     0.2472798085    -3.8285875139
   51      H       1.5454546960     1.3889081906    -3.5768191814
   52      H       0.1517729615     1.4006668938    -2.4114084534
   53      H       0.7802712116     2.8979741943     2.2213503834
   54      H      -0.8077112733     2.0004170248     2.2472351736
   55      H      -1.0769364630     3.6169531539     0.4197000833
   56      H       0.6110030251     3.3256530417    -0.1950127214
 ----------------------------------------------------------------

    9   -1510.2997097547      3.85E-09 Convergence criterion met
 Total energy in the final basis set = -1510.29970975
 Final energy is   -1510.29970975475
 **  OPTIMIZATION CONVERGED  **

                    Orbital Energies (a.u.)
 --------------------------------------------------------------

 Alpha MOs
 -- Occupied --
-18.940 -18.939 -18.933 -18.920 -18.890 -18.889 -18.882 -18.879
-18.878 -18.863 -10.107 -10.103 -10.103 -10.090 -10.076 -10.070
-10.064 -10.060 -10.056 -10.054 -10.054 -10.050 -10.041 -10.039
-10.036 -10.032 -10.023 -10.022 -10.018 -10.017  -1.023  -1.015
 -1.008  -0.998  -0.973  -0.966  -0.948  -0.939  -0.936  -0.925
 -0.767  -0.760  -0.728  -0.723  -0.713  -0.707  -0.695  -0.662
 -0.654  -0.621  -0.599  -0.581  -0.549  -0.543  -0.539  -0.534
 -0.513  -0.507  -0.482  -0.469  -0.466  -0.459  -0.454  -0.451
 -0.438  -0.432  -0.427  -0.419  -0.415  -0.409  -0.406  -0.402
 -0.394  -0.381  -0.372  -0.366  -0.361  -0.359  -0.355  -0.351
 -0.343  -0.341  -0.339  -0.332  -0.331  -0.327  -0.322  -0.313
 -0.309  -0.307  -0.306  -0.302  -0.296  -0.287  -0.278  -0.275
 -0.267  -0.263  -0.252  -0.246  -0.244  -0.237  -0.229  -0.189
 -0.182  -0.172  -0.166  -0.161  -0.160  -0.154  -0.147  -0.142
 -0.141

          Ground-State Mulliken Net Atomic Charges

     Atom                 Charge (a.u.)
  ----------------------------------------
      1 O                    -0.213211
      2 C                     0.214659
      3 C                    -0.081006
      4 C                    -0.080443
      5 C                     0.217290
      6 O                    -0.176697
      7 C                    -0.049913
      8 C                    -0.056532
      9 O                    -0.180655
     10 C                     0.220415
     11 C                    -0.080192
     12 C                    -0.080132
     13 C                     0.214321
     14 O                    -0.212532
     15 O                    -0.176411
     16 O                    -0.171018
     17 O                    -0.209408
     18 C                    -0.141113
     19 C                     0.024955
     20 C                    -0.143661
     21 C                    -0.143862
     22 C                     0.025467
     23 O                    -0.187460
     24 H                     0.086193
     25 H                     0.087281
     26 H                     0.090941
     27 H                     0.078941
     28 H                     0.073976
     29 H                     0.078760
     30 H                     0.073753
     31 H                     0.083497
     32 O                    -0.205428
     33 C                    -0.128701
     34 C                     0.025203
     35 C                    -0.144738
     36 C                    -0.145466
     37 C                     0.014671
     38 O                    -0.190931
     39 H                     0.082969
     40 H                     0.086179
     41 H                     0.092082
     42 H                     0.087494
     43 H                     0.076532
     44 H                     0.072206
     45 H                     0.071643
     46 H                     0.078477
     47 H                     0.097772
     48 H                     0.086989
     49 H                     0.086208
     50 H                     0.083249
     51 H                     0.085068
     52 H                     0.110252
     53 H                     0.101847
     54 H                     0.094720
     55 H                     0.091955
     56 H                     0.103545
  ----------------------------------------
  Sum of atomic charges =     0.000000

                    Cartesian Multipole Moments
 -----------------------------------------------------------------
    Charge (ESU x 10^10)
                -0.0000
    Dipole Moment (Debye)
         X       0.2325      Y      -1.6894      Z      -2.1165
       Tot       2.7181
    Quadrupole Moments (Debye-Ang)
        XX    -167.5487     XY     -12.2793     YY    -153.8119
        XZ       8.5462     YZ       0.6528     ZZ    -157.9417

 Total job time:  118.86s(wall), 5671.26s(cpu)
        *  Thank you very much for using Q-Chem.  Have a nice day.  *
