 Q-Chem 5.0, Q-Chem, Inc., Pleasanton, CA (2017)
 Q-Chem 5.0.1 for Intel X86 EM64T Linux

User input:
--------------------------------------------------------------
$molecule
0  1
O -3.94934 -3.66094 2.70899
C -3.26408 -4.56952 2.26188
C -3.36658 -6.02376 2.66595
C -2.15091 -6.92016 2.37879
C -0.90259 -6.22493 1.88234
O 0.17121 -7.06103 1.99773
C 1.35484 -6.54622 1.37866
C 2.59189 -7.01941 2.13492
O 2.20428 -7.8802 3.21737
C 2.45374 -9.20009 3.0308
C 1.78094 -10.07721 4.05971
C 0.96932 -11.24617 3.48259
C 1.23271 -11.57884 2.02771
O 2.00157 -10.97803 1.2912
O -2.94519 -4.41303 0.94385
O 0.54974 -12.64294 1.52879
O 3.48516 -9.55691 2.46877
C 0.66312 -13.10099 0.23295
C 2.76434 -10.84566 4.9674
C 2.07178 -11.21337 6.27883
C 1.09801 -12.27081 5.79751
C 1.53281 -12.39824 4.33225
O 2.90905 -12.10344 4.35392
H 1.14752 -9.42659 4.7068
H -0.12679 -11.08897 3.58941
H 3.70387 -10.28642 5.17008
H 2.84004 -11.70313 6.91956
H 1.61564 -10.36932 6.83954
H 1.29635 -13.21089 6.35846
H 0.02318 -11.99742 5.87481
H 1.25645 -13.39831 3.93149
O -0.7622 -5.03212 1.65861
C -2.99973 -3.22191 0.24615
C -3.47366 -6.17311 4.19729
C -4.12291 -7.51085 4.54762
C -3.00119 -8.46433 4.20306
C -1.90565 -7.47019 3.80577
O -2.14726 -6.35251 4.62203
H -4.29785 -6.41282 2.19605
H -2.37726 -7.73556 1.65671
H -2.32166 -2.47589 0.7137
H -4.03355 -5.34571 4.68563
H -4.27503 -7.52815 5.65073
H -5.09099 -7.71061 4.03984
H -2.70784 -9.00942 5.12813
H -3.2227 -9.18946 3.39028
H -0.91455 -7.95503 3.93631
H -4.03903 -2.82913 0.23134
H -2.67147 -3.39783 -0.79859
H -0.0031 -13.97748 0.09736
H 1.70978 -13.41187 0.02738
H 0.35956 -12.30643 -0.48184
H 3.36047 -7.42101 1.43563
H 3.06109 -6.13359 2.61314
H 1.41539 -5.46211 1.13419
H 1.39941 -7.0633 0.39525
$end

$opt
CONSTRAINT
tors           1           2           3           4    -159.671
tors           3           4           5           6    +164.514
tors           4           5           6           7    +171.832
tors           5           6           7           8    +148.254
tors           6           7           8           9      +2.003
tors           7           8           9          10    +106.173
tors           8           9          10          11    -168.315
tors           9          10          11          12    +129.490
tors          11          12          13          14      -1.824
ENDCONSTRAINT
$end

$rem
JOBTYPE                   OPT
METHOD                    B3LYP
DFT_D                     d3_op
BASIS                     STO-3G
GEOM_OPT_MAX_CYCLES       100
GEOM_OPT_TOL_GRADIENT     300
GEOM_OPT_TOL_DISPLACEMENT 1200
GEOM_OPT_TOL_ENERGY       100
SYMMETRY                  False
THRESH                    12
SCF_CONVERGENCE           8
MAX_SUB_FILE_NUM          128
MEM_STATIC                400
MEM_TOTAL                 4000
$end
--------------------------------------------------------------

   15   -1510.1062303244      7.48E-09 Convergence criterion met
 Total energy in the final basis set = -1510.10623032
   14   -1510.1803201291      5.43E-09 Convergence criterion met
 Total energy in the final basis set = -1510.18032013
   14   -1510.2199438502      5.17E-09 Convergence criterion met
 Total energy in the final basis set = -1510.21994385
   14   -1510.2418165195      7.95E-09 Convergence criterion met
 Total energy in the final basis set = -1510.24181652
    2   -1510.2418165197      1.51E-09 Convergence criterion met
 Total energy in the final basis set = -1510.24181652
   14   -1510.2518430860      2.79E-09 Convergence criterion met
 Total energy in the final basis set = -1510.25184309
   14   -1510.2569838082      2.61E-09 Convergence criterion met
 Total energy in the final basis set = -1510.25698381
   13   -1510.2602584311      2.85E-09 Convergence criterion met
   11   -1510.2673574859      3.95E-09 Convergence criterion met
 Total energy in the final basis set = -1510.26735749
   11   -1510.2674070595      6.40E-09 Convergence criterion met
 Total energy in the final basis set = -1510.26740706
   11   -1510.2674311094      4.59E-09 Convergence criterion met
 Total energy in the final basis set = -1510.26743111
   10   -1510.2674409830      8.43E-09 Convergence criterion met
 Total energy in the final basis set = -1510.26744098
   11   -1510.2674461630      2.32E-09 Convergence criterion met
 Total energy in the final basis set = -1510.26744616
   10   -1510.2674507924      6.98E-09 Convergence criterion met
 Total energy in the final basis set = -1510.26745079

             Standard Nuclear Orientation (Angstroms)
    I     Atom           X                Y                Z
 ----------------------------------------------------------------
    1      O      -6.0533705591    -0.4507766684    -0.5380691490
    2      C      -4.8861552183    -0.0779501939    -0.7898536216
    3      C      -3.5988989397    -0.9732739669    -0.7251223013
    4      C      -2.1923725553    -0.2728392109    -0.5940788947
    5      C      -2.1942255603     1.1056324662     0.1792123063
    6      O      -0.8235799599     1.3648188559     0.4972689842
    7      C      -0.6305795786     2.7216616276     1.0579844501
    8      C       0.5776021076     2.6186759727     2.0757094901
    9      O       1.0915304057     1.2299778966     2.0521695305
   10      C       2.3466691060     1.1681596084     1.3565048234
   11      C       2.6617698970    -0.3528559531     1.1159340138
   12      C       3.0338398533    -0.6941935788    -0.3807040820
   13      C       2.5238110117     0.3581466304    -1.4222913550
   14      O       1.8487059371     1.3886901791    -1.2085536388
   15      O      -4.5758880071     1.1374201026    -1.4800184954
   16      O       2.9533348768    -0.0606743349    -2.7222359573
   17      O       3.0701494980     2.1591198261     1.1215627126
   18      C       2.4870501454     0.9053319301    -3.7438077952
   19      C       4.0523206430    -0.6819610719     1.8153196908
   20      C       4.3452035733    -2.2330084835     1.7208049385
   21      C       4.8491500565    -2.3663893521     0.2353629741
   22      C       4.6108179723    -0.8955544106    -0.2858552607
   23      O       5.0193573865    -0.0701725887     0.8723019541
   24      H       1.8222055643    -0.9600510604     1.4948017543
   25      H       2.5680368715    -1.6560121546    -0.6666932828
   26      H       4.1697233544    -0.2439482622     2.8253699592
   27      H       5.1236201690    -2.5259938037     2.4428005249
   28      H       3.4407790611    -2.8314474267     1.9161655953
   29      H       5.9217348901    -2.6157836430     0.1960736643
   30      H       4.2879714476    -3.1167766812    -0.3440635832
   31      H       5.1716454680    -0.6092477710    -1.1964821306
   32      O      -3.1479796702     1.8221029301     0.5469957073
   33      C      -5.8004355174     1.9518592230    -1.6444453303
   34      C      -3.5412321626    -2.0397694386     0.4529722309
   35      C      -2.7951781682    -3.3072268709    -0.1160821702
   36      C      -1.3423720749    -2.7258585227    -0.2962600535
   37      C      -1.4836543176    -1.3067929963     0.3867703776
   38      O      -2.5470454838    -1.4937701811     1.4071341059
   39      H      -3.6088673640    -1.5231485005    -1.6867982842
   40      H      -1.6782932715    -0.1553727377    -1.5646508502
   41      H      -6.1860736589     2.3025374497    -0.6654741857
   42      H      -4.5116698284    -2.2295743825     0.9518080791
   43      H      -2.8102245780    -4.1234398982     0.6243514053
   44      H      -3.2328658407    -3.6739678569    -1.0583159165
   45      H      -0.5897435166    -3.3364030308     0.2270985847
   46      H      -1.0499387938    -2.6402944278    -1.3553974742
   47      H      -0.5635448259    -0.9031083794     0.8526272297
   48      H      -6.6035383472     1.3847764847    -2.1584255977
   49      H      -5.5070007553     2.8237636224    -2.2573470721
   50      H       2.8848708230     0.5441399561    -4.7099474255
   51      H       2.8672236306     1.9276823966    -3.5431349132
   52      H       1.3794188575     0.9459260967    -3.7914717858
   53      H       1.3996727600     3.3117742587     1.7961961678
   54      H       0.2383532830     2.8327247887     3.1095252907
   55      H      -1.5658560316     3.0619961965     1.5515647868
   56      H      -0.3855061066     3.4225858756     0.2311576431
 ----------------------------------------------------------------

    9   -1510.2674513833      7.08E-09 Convergence criterion met
 Total energy in the final basis set = -1510.26745138
 Final energy is   -1510.26745138329
 **  OPTIMIZATION CONVERGED  **

                    Orbital Energies (a.u.)
 --------------------------------------------------------------

 Alpha MOs
 -- Occupied --
-18.939 -18.928 -18.925 -18.923 -18.890 -18.883 -18.882 -18.873
-18.868 -18.866 -10.104 -10.095 -10.095 -10.093 -10.068 -10.064
-10.062 -10.062 -10.061 -10.058 -10.057 -10.055 -10.040 -10.036
-10.036 -10.034 -10.022 -10.021 -10.021 -10.019  -1.016  -1.010
 -1.004  -0.998  -0.972  -0.967  -0.941  -0.936  -0.928  -0.922
 -0.765  -0.761  -0.726  -0.722  -0.712  -0.705  -0.691  -0.666
 -0.656  -0.616  -0.598  -0.573  -0.546  -0.542  -0.538  -0.536
 -0.515  -0.505  -0.480  -0.469  -0.462  -0.458  -0.453  -0.449
 -0.436  -0.432  -0.429  -0.415  -0.412  -0.408  -0.403  -0.401
 -0.384  -0.377  -0.372  -0.365  -0.364  -0.357  -0.354  -0.350
 -0.340  -0.336  -0.332  -0.330  -0.327  -0.321  -0.316  -0.316
 -0.310  -0.307  -0.305  -0.299  -0.295  -0.285  -0.280  -0.274
 -0.269  -0.258  -0.252  -0.244  -0.236  -0.234  -0.231  -0.183
 -0.176  -0.167  -0.165  -0.157  -0.149  -0.148  -0.145  -0.142
 -0.141

          Ground-State Mulliken Net Atomic Charges

     Atom                 Charge (a.u.)
  ----------------------------------------
      1 O                    -0.217601
      2 C                     0.213049
      3 C                    -0.080959
      4 C                    -0.074079
      5 C                     0.216840
      6 O                    -0.171104
      7 C                    -0.051199
      8 C                    -0.053463
      9 O                    -0.171364
     10 C                     0.218208
     11 C                    -0.078775
     12 C                    -0.079448
     13 C                     0.210944
     14 O                    -0.206659
     15 O                    -0.166562
     16 O                    -0.171735
     17 O                    -0.210822
     18 C                    -0.128480
     19 C                     0.025791
     20 C                    -0.145328
     21 C                    -0.141860
     22 C                     0.026148
     23 O                    -0.185161
     24 H                     0.086019
     25 H                     0.083863
     26 H                     0.083799
     27 H                     0.078624
     28 H                     0.073707
     29 H                     0.078466
     30 H                     0.073381
     31 H                     0.088036
     32 O                    -0.209267
     33 C                    -0.126743
     34 C                     0.023554
     35 C                    -0.141411
     36 C                    -0.146709
     37 C                     0.021261
     38 O                    -0.192528
     39 H                     0.082037
     40 H                     0.085028
     41 H                     0.091056
     42 H                     0.089439
     43 H                     0.077430
     44 H                     0.073013
     45 H                     0.074970
     46 H                     0.071546
     47 H                     0.092820
     48 H                     0.087772
     49 H                     0.088740
     50 H                     0.090939
     51 H                     0.092162
     52 H                     0.087378
     53 H                     0.100747
     54 H                     0.084364
     55 H                     0.095026
     56 H                     0.085099
  ----------------------------------------
  Sum of atomic charges =     0.000000

                    Cartesian Multipole Moments
 -----------------------------------------------------------------
    Charge (ESU x 10^10)
                 0.0000
    Dipole Moment (Debye)
         X       0.8661      Y      -1.7559      Z      -2.3904
       Tot       3.0899
    Quadrupole Moments (Debye-Ang)
        XX    -176.3341     XY     -10.7503     YY    -152.6071
        XZ       4.0855     YZ      -0.7180     ZZ    -150.9682

 Total job time:  67.78s(wall), 3224.55s(cpu)
        *  Thank you very much for using Q-Chem.  Have a nice day.  *
