 Q-Chem 5.0, Q-Chem, Inc., Pleasanton, CA (2017)
 Q-Chem 5.0.1 for Intel X86 EM64T Linux

User input:
--------------------------------------------------------------
$molecule
0  1
O -0.8072916744 -2.8477322099 0.4626239646
C -0.9201202533 -1.6310657248 0.4179181258
C -2.1987947538 -0.8608451836 0.66356957
C -2.1680065793 0.6538432297 0.4016531129
C -0.9151621257 1.2010008722 -0.2457311815
O -1.1518167647 2.4575279312 -0.7259003461
C -1.2602886295 3.4435867172 0.3061681136
C -0.3731472255 3.0670288251 1.488243047
O -0.1754439245 1.644751615 1.5182470262
C 1.03530348 1.215043024 1.0839663283
C 1.0530167757 -0.2585717811 0.7541272392
C 1.7092320478 -0.6136391345 -0.5881002491
C 2.5510505303 0.476181466 -1.2208362303
O 2.1755407628 1.2448369892 -2.0941834745
O -0.7900418393 -1.4611003029 -0.9322384393
O 3.8347434543 0.6625788409 -0.7890561772
O 2.0529146144 1.8981369233 1.1244771711
C 4.6993520983 1.6270133707 -1.2652188325
C 2.1444528088 -0.9687620149 1.6759512758
C 1.8614479531 -2.4698043509 1.829920692
C 2.2065294888 -2.9491459659 0.4325952686
C 2.7783685379 -1.6548682386 -0.1375970975
O 3.3397994576 -1.0187968647 0.9675033916
H 0.4278139898 -0.5238932051 1.6330485215
H 1.2425905277 -1.078186697 -1.444496737
H 2.2649286404 -0.5031702222 2.6868753348
H 2.6367297749 -2.8566386957 2.5313963144
H 0.875908762 -2.7710876824 2.2363621923
H 2.9891788528 -3.7350459438 0.5215459884
H 1.3940457672 -3.3226723383 -0.2163548174
H 3.4993789298 -1.8937377157 -0.9537728825
O -0.4252379542 0.6775675623 -1.2139528432
C -0.9037801097 -2.3583111277 -2.0162446473
C -3.3933269027 -1.2998161694 -0.2132760726
C -4.7128842488 -0.8941200087 0.4418229866
C -4.7023191895 0.5956147713 0.1824911571
C -3.3787904039 0.7410090893 -0.5749765565
O -3.3119671052 -0.4448273774 -1.3242411518
H -2.4367604535 -1.0682023183 1.730616261
H -2.4426349617 1.2318314861 1.3112417945
H -1.7114509856 -2.0098440737 -2.6900310861
H -3.3907286497 -2.3906961196 -0.4279434308
H -5.5489139602 -1.3480220556 -0.1367432148
H -4.7924638944 -1.1924922857 1.5092076566
H -5.5395038101 0.834494477 -0.511600782
H -4.774011184 1.2397552654 1.0850772947
H -3.4073482009 1.6801956628 -1.1676956156
H -1.1496403103 -3.3991708175 -1.7187706096
H 0.0301175105 -2.3895640523 -2.6110869043
H 5.6692245986 1.5395800553 -0.734217445
H 4.2806610833 2.6395160675 -1.0814735722
H 4.8723668788 1.4823475325 -2.3530035875
H 0.5757745699 3.6172435948 1.3063553994
H -0.7578545759 3.4584119443 2.4534339714
H -2.3129627549 3.4093496044 0.6607821005
H -1.0968381525 4.4779236829 -0.0636614142
$end

$rem
JOBTYPE                   OPT
METHOD                    B3LYP
DFT_D                     d3_op
BASIS                     STO-3G
GEOM_OPT_MAX_CYCLES       100
GEOM_OPT_TOL_GRADIENT     300
GEOM_OPT_TOL_DISPLACEMENT 1200
GEOM_OPT_TOL_ENERGY       100
SYMMETRY                  False
THRESH                    12
SCF_CONVERGENCE           8
MAX_SUB_FILE_NUM          128
MEM_STATIC                400
MEM_TOTAL                 4000
$end
--------------------------------------------------------------

   17   -1509.8111117626      6.87E-09 Convergence criterion met
 Total energy in the final basis set = -1509.81111176
   16   -1509.9040092204      4.68E-09 Convergence criterion met
 Total energy in the final basis set = -1509.90400922
   15   -1509.9956649998      2.44E-09 Convergence criterion met
 Total energy in the final basis set = -1509.99566500
   15   -1510.0587143421      4.82E-09 Convergence criterion met
 Total energy in the final basis set = -1510.05871434
   14   -1510.1069859214      9.67E-09 Convergence criterion met
 Total energy in the final basis set = -1510.10698592
   14   -1510.1441986817      6.20E-09 Convergence criterion met
 Total energy in the final basis set = -1510.14419868
   14   -1510.1741298233      6.59E-09 Convergence criterion met
 Total energy in the final basis set = -1510.17412982
   14   -1510.1968990048      3.83E-09 Convergence criterion met
    9   -1510.2920759948      4.90E-09 Convergence criterion met
 Total energy in the final basis set = -1510.29207599
   10   -1510.2920790920      4.19E-09 Convergence criterion met
 Total energy in the final basis set = -1510.29207909
   10   -1510.2920817452      4.30E-09 Convergence criterion met
 Total energy in the final basis set = -1510.29208175
    9   -1510.2920834355      9.48E-09 Convergence criterion met
 Total energy in the final basis set = -1510.29208344
   10   -1510.2920845527      9.04E-09 Convergence criterion met
 Total energy in the final basis set = -1510.29208455
   10   -1510.2920855056      8.75E-09 Convergence criterion met
 Total energy in the final basis set = -1510.29208551

             Standard Nuclear Orientation (Angstroms)
    I     Atom           X                Y                Z
 ----------------------------------------------------------------
    1      O      -0.4296090098    -1.8494961807    -1.5624476608
    2      C      -1.6491087429    -1.6296323158    -1.3289789884
    3      C      -2.2243025176    -1.0071478351    -0.0045064665
    4      C      -2.1978318146     0.5745417319     0.0308019206
    5      C      -1.7769779800     1.1789648040    -1.3600965562
    6      O      -1.5365640732     2.5874702655    -1.4818414868
    7      C      -1.3740481003     3.3259419125    -0.2091667168
    8      C       0.0698804253     3.1552088023     0.3983625816
    9      O       0.3312844077     1.7429392578     0.7538925677
   10      C       1.2709198633     1.1676004561    -0.1850693276
   11      C       1.4135768462    -0.3661414309     0.0490058306
   12      C       2.8821592430    -0.8927953045    -0.2384252699
   13      C       3.9052838211     0.2346561650    -0.6099311908
   14      O       4.5450397294     0.3555235607    -1.6766352925
   15      O      -2.7039916065    -2.1015969999    -2.1585981527
   16      O       4.0449304781     1.1140490424     0.5159543486
   17      O       1.8361818396     1.8467180286    -1.0709569829
   18      C       4.9331370737     2.2419889148     0.1600126701
   19      C       1.2155978105    -0.8268486444     1.5509776322
   20      C       0.9643041691    -2.3885582333     1.5372001197
   21      C       2.4169831834    -2.9260736447     1.2636863342
   22      C       3.2272302237    -1.5745928806     1.1574309697
   23      O       2.5643955576    -0.6968868431     2.1482965980
   24      H       0.6763841175    -0.8944388310    -0.6199102825
   25      H       2.8846846903    -1.6281044487    -1.0622387597
   26      H       0.4803465679    -0.2282383317     2.1215134518
   27      H       0.5789191419    -2.7326536855     2.5102949051
   28      H       0.2582135281    -2.6832267914     0.7445138900
   29      H       2.7899158588    -3.5329114090     2.1041640115
   30      H       2.4813727261    -3.5225529439     0.3397096476
   31      H       4.3095791036    -1.6562157360     1.3756488725
   32      O      -1.6946669385     0.4992501961    -2.4117103969
   33      C      -2.1476329039    -2.6544105471    -3.4154332552
   34      C      -3.7643815786    -1.2940256247     0.2435278074
   35      C      -4.0568617451    -1.0614730845     1.7781167039
   36      C      -3.9984296615     0.5089261539     1.8634401107
   37      C      -3.7240670822     0.8858628930     0.3533025193
   38      O      -4.4453798558    -0.1541883389    -0.4120670937
   39      H      -1.6138000437    -1.4051912404     0.8241759396
   40      H      -1.4853071394     0.9369625317     0.7949446249
   41      H      -3.0104524440    -3.0528117753    -3.9799184025
   42      H      -4.1267389047    -2.2528373808    -0.1734722269
   43      H      -5.0568091914    -1.4421363396     2.0402215470
   44      H      -3.3107800135    -1.5521165207     2.4232748923
   45      H      -4.9576649060     0.9334290453     2.1998296779
   46      H      -3.1983116483     0.8688623047     2.5301907472
   47      H      -4.0713080968     1.8920499940     0.0476982191
   48      H      -1.4201476982    -3.4671589590    -3.2154482610
   49      H      -1.6457894319    -1.8618146823    -4.0067596762
   50      H       5.0552688941     2.8399058318     1.0818808585
   51      H       4.4810162209     2.8713402841    -0.6342777283
   52      H       5.9250095025     1.8913055573    -0.1910707647
   53      H       0.8329811422     3.4666273581    -0.3485524048
   54      H       0.1542568953     3.7664898599     1.3207105035
   55      H      -2.1457549499     3.0588315742     0.5402565377
   56      H      -1.5111946646     4.3933703810    -0.4807077943
 ----------------------------------------------------------------

    9   -1510.2920860883      4.99E-09 Convergence criterion met
 Total energy in the final basis set = -1510.29208609
 Final energy is   -1510.29208608828
 **  OPTIMIZATION CONVERGED  **

                    Orbital Energies (a.u.)
 --------------------------------------------------------------

 Alpha MOs
 -- Occupied --
-18.947 -18.942 -18.939 -18.917 -18.896 -18.892 -18.882 -18.879
-18.876 -18.858 -10.112 -10.110 -10.101 -10.089 -10.084 -10.076
-10.070 -10.065 -10.063 -10.052 -10.051 -10.050 -10.042 -10.039
-10.029 -10.026 -10.023 -10.013 -10.013 -10.012  -1.024  -1.017
 -1.011  -0.995  -0.978  -0.961  -0.951  -0.940  -0.938  -0.920
 -0.770  -0.753  -0.729  -0.725  -0.714  -0.711  -0.695  -0.662
 -0.648  -0.617  -0.607  -0.581  -0.555  -0.546  -0.539  -0.531
 -0.523  -0.508  -0.496  -0.479  -0.473  -0.462  -0.452  -0.443
 -0.437  -0.429  -0.423  -0.419  -0.413  -0.407  -0.404  -0.404
 -0.400  -0.398  -0.379  -0.371  -0.365  -0.356  -0.352  -0.347
 -0.341  -0.339  -0.336  -0.331  -0.329  -0.323  -0.321  -0.317
 -0.313  -0.309  -0.305  -0.296  -0.295  -0.287  -0.282  -0.279
 -0.265  -0.259  -0.253  -0.249  -0.241  -0.238  -0.226  -0.195
 -0.180  -0.172  -0.163  -0.162  -0.160  -0.154  -0.150  -0.137
 -0.134

          Ground-State Mulliken Net Atomic Charges

     Atom                 Charge (a.u.)
  ----------------------------------------
      1 O                    -0.225724
      2 C                     0.226273
      3 C                    -0.082699
      4 C                    -0.094890
      5 C                     0.212037
      6 O                    -0.164893
      7 C                    -0.050134
      8 C                    -0.060561
      9 O                    -0.181498
     10 C                     0.212807
     11 C                    -0.101519
     12 C                    -0.080122
     13 C                     0.210399
     14 O                    -0.214582
     15 O                    -0.161648
     16 O                    -0.172315
     17 O                    -0.209860
     18 C                    -0.128919
     19 C                     0.020383
     20 C                    -0.146527
     21 C                    -0.143276
     22 C                     0.025992
     23 O                    -0.189807
     24 H                     0.119592
     25 H                     0.085699
     26 H                     0.079749
     27 H                     0.071540
     28 H                     0.075018
     29 H                     0.075031
     30 H                     0.075078
     31 H                     0.081177
     32 O                    -0.192922
     33 C                    -0.126232
     34 C                     0.025746
     35 C                    -0.143643
     36 C                    -0.144416
     37 C                     0.021545
     38 O                    -0.185939
     39 H                     0.084628
     40 H                     0.100607
     41 H                     0.091795
     42 H                     0.091385
     43 H                     0.079357
     44 H                     0.074350
     45 H                     0.079071
     46 H                     0.073490
     47 H                     0.080863
     48 H                     0.089712
     49 H                     0.098884
     50 H                     0.086261
     51 H                     0.088992
     52 H                     0.087230
     53 H                     0.108743
     54 H                     0.088119
     55 H                     0.084602
     56 H                     0.095972
  ----------------------------------------
  Sum of atomic charges =     0.000000

                    Cartesian Multipole Moments
 -----------------------------------------------------------------
    Charge (ESU x 10^10)
                 0.0000
    Dipole Moment (Debye)
         X      -2.5776      Y       0.1693      Z       3.2965
       Tot       4.1880
    Quadrupole Moments (Debye-Ang)
        XX    -166.0210     XY      -0.6455     YY    -142.9344
        XZ      -2.0695     YZ       7.0024     ZZ    -168.3052

 Total job time:  198.96s(wall), 9496.70s(cpu)
        *  Thank you very much for using Q-Chem.  Have a nice day.  *
