 Q-Chem 5.0, Q-Chem, Inc., Pleasanton, CA (2017)
 Q-Chem 5.0.1 for Intel X86 EM64T Linux

User input:
--------------------------------------------------------------
$molecule
0  1
O -5.7888425243 0.8756573754 0.9667918203
C -5.3393420572 0.327474589 -0.0615987199
C -4.414302451 -0.9424042195 -0.1454585872
C -2.8964782556 -0.6305018947 -0.4659268071
C -2.570927691 0.9041716836 -0.433740789
O -1.1536357093 1.049799424 -0.3706758062
C -0.7565839571 2.473906835 -0.484352775
C 0.7636083153 2.5281320412 -0.0720642314
O 1.0013572328 1.3753435331 0.8188139117
C 2.4215142745 1.0212128535 0.8150338868
C 2.7690008457 0.1443592884 -0.4467361495
C 4.2520349705 0.1644133463 -1.0034066155
C 5.3596198768 0.7616317794 -0.062599442
O 6.2245251938 1.6051318903 -0.391170082
O -5.7214621845 0.6730015413 -1.4021829244
O 5.3564485094 0.0591745726 1.1794245141
O 3.1397649362 1.2792684133 1.7993750649
C 6.4146982128 0.5910895443 2.067278608
C 2.5421630419 -1.4196340236 -0.2010483128
C 2.1871845448 -2.0574863571 -1.5997589264
C 3.5815285894 -1.9632714486 -2.3250511183
C 4.4996698445 -1.4018318147 -1.1645751008
O 3.8933906225 -1.9511465397 0.0698273311
H 2.0818073213 0.4701079645 -1.2467586669
H 4.3097184382 0.6992648686 -1.9676703804
H 1.8479880128 -1.6659473015 0.6259153691
H 1.871954118 -3.1054793164 -1.4703401338
H 1.3886541638 -1.5093210286 -2.1247858685
H 3.9358253202 -2.9524747502 -2.6555378197
H 3.5621392838 -1.2873954845 -3.1950180433
H 5.5666094054 -1.6904463155 -1.2313488317
O -3.3812910672 1.8577166251 -0.4464819233
C -6.5466835424 1.9001614315 -1.3855487179
C -4.2803934574 -1.6883249517 1.2493975509
C -3.8122146051 -3.1682353833 0.9682959268
C -2.3140553793 -2.9325248639 0.5455022165
C -2.1796166453 -1.3701439561 0.7424620359
O -3.0864612703 -1.0715871236 1.8745616192
H -4.8357836794 -1.6090717536 -0.9192031287
H -2.5872970838 -1.036540793 -1.4465533268
H -5.9679092669 2.7659755122 -1.0034450339
H -5.1618002298 -1.5764476516 1.9099950734
H -3.8793844172 -3.7724036784 1.887120269
H -4.4077322425 -3.6555223624 0.179921514
H -1.615792317 -3.4668077833 1.209034592
H -2.1146433325 -3.2363538761 -0.4947662308
H -1.1571363121 -0.997163902 0.9476281881
H -7.4541459099 1.7773128308 -0.7592725432
H -6.8428195678 2.0868832489 -2.4342820477
H 6.379468123 -0.0272428291 2.9827645529
H 6.2258836094 1.6517131369 2.3305532145
H 7.4181419685 0.5136486605 1.6006564741
H 1.3973259606 2.483425824 -0.9852555339
H 0.9830677333 3.4898759398 0.4462672085
H -1.3795249451 3.0978776757 0.1916822555
H -0.8985421807 2.8420678454 -1.523902828
$end

$rem
JOBTYPE                   OPT
METHOD                    B3LYP
DFT_D                     d3_op
BASIS                     STO-3G
GEOM_OPT_MAX_CYCLES       100
GEOM_OPT_TOL_GRADIENT     300
GEOM_OPT_TOL_DISPLACEMENT 1200
GEOM_OPT_TOL_ENERGY       100
SYMMETRY                  False
THRESH                    12
SCF_CONVERGENCE           8
MAX_SUB_FILE_NUM          128
MEM_STATIC                400
MEM_TOTAL                 4000
$end
--------------------------------------------------------------

   16   -1510.2544584405      4.27E-09 Convergence criterion met
 Total energy in the final basis set = -1510.25445844
   12   -1510.2564950435      9.62E-09 Convergence criterion met
 Total energy in the final basis set = -1510.25649504
   13   -1510.2585465229      7.26E-09 Convergence criterion met
 Total energy in the final basis set = -1510.25854652
   15   -1510.2465213492      4.29E-09 Convergence criterion met
 Total energy in the final basis set = -1510.24652135
   14   -1510.2587566983      9.49E-09 Convergence criterion met
 Total energy in the final basis set = -1510.25875670
   13   -1510.2606162302      5.85E-09 Convergence criterion met
 Total energy in the final basis set = -1510.26061623
   12   -1510.2623615034      9.94E-09 Convergence criterion met
 Total energy in the final basis set = -1510.26236150
   13   -1510.2638597788      3.93E-09 Convergence criterion met
   12   -1510.2919594072      6.87E-09 Convergence criterion met
 Total energy in the final basis set = -1510.29195941
   11   -1510.2920137959      8.02E-09 Convergence criterion met
 Total energy in the final basis set = -1510.29201380
   11   -1510.2920186447      9.65E-09 Convergence criterion met
 Total energy in the final basis set = -1510.29201864
   11   -1510.2920307839      5.02E-09 Convergence criterion met
 Total energy in the final basis set = -1510.29203078
   10   -1510.2920342937      9.09E-09 Convergence criterion met
 Total energy in the final basis set = -1510.29203429
    9   -1510.2920363917      5.69E-09 Convergence criterion met
 Total energy in the final basis set = -1510.29203639

             Standard Nuclear Orientation (Angstroms)
    I     Atom           X                Y                Z
 ----------------------------------------------------------------
    1      O      -3.8960492134     0.3051097170     2.3812215466
    2      C      -3.8368776813    -0.0941153015     1.1997438478
    3      C      -2.9745679290    -1.2826536821     0.6358941611
    4      C      -1.8525073806    -0.8624661039    -0.4046029031
    5      C      -1.7435938135     0.6922622197    -0.5294135697
    6      O      -1.1127811819     1.0466396153    -1.7807776704
    7      C      -1.0713443449     2.5211823408    -1.9340592018
    8      C       0.3101767981     3.1315439772    -1.4777243308
    9      O       0.5641492584     2.8283640632    -0.0555933070
   10      C       1.3428680374     1.6475466224     0.2145178774
   11      C       2.3573972370     1.1248135398    -0.8730244727
   12      C       3.4444493421     0.1305162809    -0.2751614873
   13      C       3.2124318723    -0.2589859780     1.2390762846
   14      O       3.7701063793     0.2593281892     2.2317723869
   15      O      -4.6691096049     0.3917277577     0.1336906846
   16      O       2.3548019854    -1.3997020239     1.2731531379
   17      O       1.2333283913     1.1595328568     1.3621317453
   18      C       1.8988323413    -1.6945783766     2.6529444324
   19      C       1.6741085588     0.2041023483    -1.9839553372
   20      C       2.6373420812     0.1562664648    -3.2284427294
   21      C       3.7951283301    -0.7582518260    -2.6757823924
   22      C       3.2544012149    -1.1151184273    -1.2339368469
   23      O       1.7838548953    -1.1577285602    -1.4215557942
   24      H       2.8581689280     1.9938181642    -1.3351694215
   25      H       4.4533337023     0.5718302240    -0.3583855292
   26      H       0.6005146177     0.4401753508    -2.1674542418
   27      H       2.1315831173    -0.3107441928    -4.0889142979
   28      H       2.9905338469     1.1563410269    -3.5268810422
   29      H       3.9134774946    -1.6712701000    -3.2805082682
   30      H       4.7639800068    -0.2355455793    -2.6332209403
   31      H       3.6176979477    -2.0735069915    -0.8166005429
   32      O      -2.1674102342     1.5431619953     0.2818919736
   33      C      -5.4581596893     1.5502172337     0.6060087922
   34      C      -2.1077902538    -1.9557875392     1.7793791819
   35      C      -1.7188178313    -3.4073218950     1.3108257577
   36      C      -0.6752789955    -3.0764273766     0.1815672908
   37      C      -0.5687658096    -1.5023287478     0.2845401808
   38      O      -0.8194059187    -1.2217186575     1.7180873794
   39      H      -3.6640619843    -2.0111065641     0.1719783966
   40      H      -2.0290704881    -1.2873093129    -1.4086686446
   41      H      -4.7982355977     2.3924714165     0.8993961172
   42      H      -2.5533517749    -1.8665355737     2.7892283979
   43      H      -1.2561205627    -3.9680433819     2.1388683555
   44      H      -2.5874801938    -3.9749415573     0.9408778490
   45      H       0.3079983425    -3.5275992898     0.3873867357
   46      H      -1.0100665878    -3.4014942505    -0.8163657012
   47      H       0.4220274539    -1.1275431514    -0.0642428389
   48      H      -6.0982214860     1.2866292856     1.4728355092
   49      H      -6.0950057550     1.8569006093    -0.2441717310
   50      H       0.7857995647    -1.6088515846     2.6336001410
   51      H       2.3475542624    -0.9735336404     3.3632327336
   52      H       2.2082566139    -2.7247168004     2.9184673348
   53      H       1.1216890542     2.7972808429    -2.1523673287
   54      H       0.2336622110     4.2373269317    -1.5485169075
   55      H      -1.8822610014     2.9695201585    -1.3228121391
   56      H      -1.2324363296     2.7357556544    -3.0106040046
 ----------------------------------------------------------------

    9   -1510.2920365997      3.44E-09 Convergence criterion met
 Total energy in the final basis set = -1510.29203660
 Final energy is   -1510.29203659968
 **  OPTIMIZATION CONVERGED  **

                    Orbital Energies (a.u.)
 --------------------------------------------------------------

 Alpha MOs
 -- Occupied --
-18.953 -18.939 -18.919 -18.905 -18.898 -18.897 -18.889 -18.888
-18.863 -18.848 -10.112 -10.106 -10.090 -10.088 -10.084 -10.082
-10.062 -10.055 -10.055 -10.053 -10.042 -10.041 -10.040 -10.032
-10.031 -10.026 -10.023 -10.021 -10.013 -10.009  -1.029  -1.012
 -0.998  -0.988  -0.975  -0.966  -0.953  -0.942  -0.925  -0.912
 -0.764  -0.760  -0.729  -0.723  -0.714  -0.708  -0.696  -0.654
 -0.636  -0.621  -0.597  -0.585  -0.548  -0.543  -0.539  -0.530
 -0.518  -0.507  -0.487  -0.477  -0.461  -0.456  -0.452  -0.446
 -0.439  -0.432  -0.425  -0.419  -0.406  -0.403  -0.401  -0.401
 -0.396  -0.383  -0.379  -0.365  -0.359  -0.355  -0.348  -0.346
 -0.339  -0.335  -0.332  -0.332  -0.326  -0.323  -0.320  -0.313
 -0.309  -0.305  -0.299  -0.299  -0.296  -0.283  -0.277  -0.271
 -0.268  -0.258  -0.247  -0.245  -0.238  -0.231  -0.222  -0.202
 -0.173  -0.166  -0.165  -0.155  -0.153  -0.150  -0.142  -0.136
 -0.133

          Ground-State Mulliken Net Atomic Charges

     Atom                 Charge (a.u.)
  ----------------------------------------
      1 O                    -0.211807
      2 C                     0.215446
      3 C                    -0.080098
      4 C                    -0.078372
      5 C                     0.219079
      6 O                    -0.175096
      7 C                    -0.054992
      8 C                    -0.049987
      9 O                    -0.167719
     10 C                     0.208903
     11 C                    -0.088122
     12 C                    -0.080668
     13 C                     0.215734
     14 O                    -0.223139
     15 O                    -0.179409
     16 O                    -0.180702
     17 O                    -0.180873
     18 C                    -0.147777
     19 C                     0.004723
     20 C                    -0.144858
     21 C                    -0.144642
     22 C                     0.027836
     23 O                    -0.188562
     24 H                     0.078603
     25 H                     0.082052
     26 H                     0.101078
     27 H                     0.077723
     28 H                     0.069727
     29 H                     0.078205
     30 H                     0.074438
     31 H                     0.089312
     32 O                    -0.193614
     33 C                    -0.129192
     34 C                     0.025171
     35 C                    -0.144879
     36 C                    -0.143817
     37 C                     0.014319
     38 O                    -0.184872
     39 H                     0.083402
     40 H                     0.087338
     41 H                     0.091227
     42 H                     0.090846
     43 H                     0.076607
     44 H                     0.071796
     45 H                     0.081384
     46 H                     0.071264
     47 H                     0.115324
     48 H                     0.087496
     49 H                     0.085213
     50 H                     0.110953
     51 H                     0.094080
     52 H                     0.070046
     53 H                     0.085420
     54 H                     0.093712
     55 H                     0.104988
     56 H                     0.089751
  ----------------------------------------
  Sum of atomic charges =     0.000000

                    Cartesian Multipole Moments
 -----------------------------------------------------------------
    Charge (ESU x 10^10)
                -0.0000
    Dipole Moment (Debye)
         X      -0.4158      Y      -0.0003      Z      -6.0450
       Tot       6.0593
    Quadrupole Moments (Debye-Ang)
        XX    -154.3573     XY       0.5783     YY    -149.1337
        XZ      -6.0633     YZ     -12.9034     ZZ    -164.0608

 Total job time:  243.44s(wall), 11580.16s(cpu)
        *  Thank you very much for using Q-Chem.  Have a nice day.  *
