 Q-Chem 5.0, Q-Chem, Inc., Pleasanton, CA (2017)
 Q-Chem 5.0.1 for Intel X86 EM64T Linux

User input:
--------------------------------------------------------------
$molecule
0  1
O -3.94934 -3.66094 2.70899
C -3.26408 -4.56952 2.26188
C -3.36658 -6.02376 2.66595
C -2.27868 -6.5705 3.60478
C -1.3106 -5.55867 4.1767
O -0.63771 -6.10533 5.23207
C 0.39705 -5.25684 5.7406
C 0.88833 -5.77653 7.0877
O -0.14925 -6.53652 7.72701
C 0.27134 -7.43444 8.65221
C 0.75519 -8.72734 8.03989
C 1.7809 -9.4989 8.88304
C 1.90137 -9.07075 10.3318
O 2.94918 -8.84134 10.91832
O -2.299 -4.2756 1.35026
O 0.76484 -9.1366 11.08439
O 0.54579 -7.00183 9.75875
C 0.70534 -8.88061 12.4387
C -0.35048 -9.79138 7.88964
C 0.03292 -10.77566 6.78477
C 1.18597 -11.50774 7.44634
C 1.12912 -10.89553 8.85231
O -0.23475 -10.59578 9.03685
H 1.16156 -8.52569 7.02598
H 2.80164 -9.48226 8.44068
H -1.35511 -9.35709 7.69225
H -0.82168 -11.48172 6.67599
H 0.2615 -10.32869 5.79329
H 0.94365 -12.59325 7.47006
H 2.18162 -11.34694 6.9789
H 1.58265 -11.58251 9.60078
O -1.15895 -4.40199 3.8041
C -2.04467 -3.00828 0.86905
C -4.62805 -6.27842 3.52138
C -5.02078 -7.75337 3.4557
C -3.93014 -8.36804 4.30064
C -3.18277 -7.107 4.74477
O -4.18705 -6.13139 4.84481
H -3.47178 -6.60734 1.72407
H -1.67463 -7.39072 3.15786
H -1.75449 -2.33323 1.70243
H -5.49703 -5.65115 3.22347
H -5.98985 -7.86499 3.99316
H -5.11971 -8.16802 2.42946
H -4.40369 -8.86214 5.17848
H -3.26533 -9.08692 3.77462
H -2.63637 -7.32938 5.68663
H -2.94413 -2.60621 0.35566
H -1.20892 -3.05655 0.1413
H -0.34056 -9.00556 12.78632
H 1.02969 -7.83842 12.64556
H 1.35362 -9.5934 12.99173
H 1.72324 -6.45857 6.82168
H 1.32166 -4.98747 7.74027
H -0.07651 -4.28123 5.99963
H 1.2211 -5.06397 5.01775
$end

$opt
CONSTRAINT
tors           1           2           3           4    -103.803
tors           3           4           5           6    +164.514
tors           4           5           6           7    +173.877
tors           5           6           7           8    +167.320
tors           6           7           8           9     -25.718
tors           7           8           9          10    +157.041
tors           8           9          10          11     -81.254
tors           9          10          11          12    +153.923
tors          11          12          13          14    -131.808
ENDCONSTRAINT
$end

$rem
JOBTYPE                   OPT
METHOD                    B3LYP
DFT_D                     d3_op
BASIS                     STO-3G
GEOM_OPT_MAX_CYCLES       100
GEOM_OPT_TOL_GRADIENT     300
GEOM_OPT_TOL_DISPLACEMENT 1200
GEOM_OPT_TOL_ENERGY       100
SYMMETRY                  False
THRESH                    12
SCF_CONVERGENCE           8
MAX_SUB_FILE_NUM          128
MEM_STATIC                400
MEM_TOTAL                 4000
$end
--------------------------------------------------------------

   15   -1510.1144651066      7.93E-09 Convergence criterion met
 Total energy in the final basis set = -1510.11446511
   13   -1510.1859034042      8.68E-09 Convergence criterion met
 Total energy in the final basis set = -1510.18590340
   14   -1510.2246498185      5.07E-09 Convergence criterion met
 Total energy in the final basis set = -1510.22464982
   14   -1510.2425836215      6.95E-09 Convergence criterion met
 Total energy in the final basis set = -1510.24258362
   14   -1510.2494463624      5.16E-09 Convergence criterion met
 Total energy in the final basis set = -1510.24944636
   13   -1510.2522671271      7.00E-09 Convergence criterion met
 Total energy in the final basis set = -1510.25226713
   13   -1510.2536727790      3.15E-09 Convergence criterion met
 Total energy in the final basis set = -1510.25367278
   12   -1510.2541457274      7.31E-09 Convergence criterion met
   11   -1510.2544259137      4.58E-09 Convergence criterion met
 Total energy in the final basis set = -1510.25442591
   11   -1510.2544347557      2.07E-09 Convergence criterion met
 Total energy in the final basis set = -1510.25443476
   11   -1510.2544454811      3.07E-09 Convergence criterion met
 Total energy in the final basis set = -1510.25444548
   10   -1510.2544512257      6.99E-09 Convergence criterion met
 Total energy in the final basis set = -1510.25445123
   11   -1510.2544612978      2.26E-09 Convergence criterion met
 Total energy in the final basis set = -1510.25446130
    9   -1510.2544628280      5.88E-09 Convergence criterion met
 Total energy in the final basis set = -1510.25446283

             Standard Nuclear Orientation (Angstroms)
    I     Atom           X                Y                Z
 ----------------------------------------------------------------
    1      O      -5.7888425243     0.8756573754     0.9667918203
    2      C      -5.3393420572     0.3274745890    -0.0615987199
    3      C      -4.4143024510    -0.9424042195    -0.1454585872
    4      C      -2.8964782556    -0.6305018947    -0.4659268071
    5      C      -2.5709276910     0.9041716836    -0.4337407890
    6      O      -1.1536357093     1.0497994240    -0.3706758062
    7      C      -0.7565839571     2.4739068350    -0.4843527750
    8      C       0.7636083153     2.5281320412    -0.0720642314
    9      O       1.0013572328     1.3753435331     0.8188139117
   10      C       2.4215142745     1.0212128535     0.8150338868
   11      C       2.7690008457     0.1443592884    -0.4467361495
   12      C       4.2520349705     0.1644133463    -1.0034066155
   13      C       5.3596198768     0.7616317794    -0.0625994420
   14      O       6.2245251938     1.6051318903    -0.3911700820
   15      O      -5.7214621845     0.6730015413    -1.4021829244
   16      O       5.3564485094     0.0591745726     1.1794245141
   17      O       3.1397649362     1.2792684133     1.7993750649
   18      C       6.4146982128     0.5910895443     2.0672786080
   19      C       2.5421630419    -1.4196340236    -0.2010483128
   20      C       2.1871845448    -2.0574863571    -1.5997589264
   21      C       3.5815285894    -1.9632714486    -2.3250511183
   22      C       4.4996698445    -1.4018318147    -1.1645751008
   23      O       3.8933906225    -1.9511465397     0.0698273311
   24      H       2.0818073213     0.4701079645    -1.2467586669
   25      H       4.3097184382     0.6992648686    -1.9676703804
   26      H       1.8479880128    -1.6659473015     0.6259153691
   27      H       1.8719541180    -3.1054793164    -1.4703401338
   28      H       1.3886541638    -1.5093210286    -2.1247858685
   29      H       3.9358253202    -2.9524747502    -2.6555378197
   30      H       3.5621392838    -1.2873954845    -3.1950180433
   31      H       5.5666094054    -1.6904463155    -1.2313488317
   32      O      -3.3812910672     1.8577166251    -0.4464819233
   33      C      -6.5466835424     1.9001614315    -1.3855487179
   34      C      -4.2803934574    -1.6883249517     1.2493975509
   35      C      -3.8122146051    -3.1682353833     0.9682959268
   36      C      -2.3140553793    -2.9325248639     0.5455022165
   37      C      -2.1796166453    -1.3701439561     0.7424620359
   38      O      -3.0864612703    -1.0715871236     1.8745616192
   39      H      -4.8357836794    -1.6090717536    -0.9192031287
   40      H      -2.5872970838    -1.0365407930    -1.4465533268
   41      H      -5.9679092669     2.7659755122    -1.0034450339
   42      H      -5.1618002298    -1.5764476516     1.9099950734
   43      H      -3.8793844172    -3.7724036784     1.8871202690
   44      H      -4.4077322425    -3.6555223624     0.1799215140
   45      H      -1.6157923170    -3.4668077833     1.2090345920
   46      H      -2.1146433325    -3.2363538761    -0.4947662308
   47      H      -1.1571363121    -0.9971639020     0.9476281881
   48      H      -7.4541459099     1.7773128308    -0.7592725432
   49      H      -6.8428195678     2.0868832489    -2.4342820477
   50      H       6.3794681230    -0.0272428291     2.9827645529
   51      H       6.2258836094     1.6517131369     2.3305532145
   52      H       7.4181419685     0.5136486605     1.6006564741
   53      H       1.3973259606     2.4834258240    -0.9852555339
   54      H       0.9830677333     3.4898759398     0.4462672085
   55      H      -1.3795249451     3.0978776757     0.1916822555
   56      H      -0.8985421807     2.8420678454    -1.5239028280
 ----------------------------------------------------------------

    9   -1510.2544630941      2.44E-09 Convergence criterion met
 Total energy in the final basis set = -1510.25446309
 Final energy is   -1510.25446309409
 **  OPTIMIZATION CONVERGED  **

                    Orbital Energies (a.u.)
 --------------------------------------------------------------

 Alpha MOs
 -- Occupied --
-18.944 -18.932 -18.918 -18.910 -18.906 -18.896 -18.887 -18.884
-18.868 -18.859 -10.111 -10.107 -10.095 -10.088 -10.083 -10.081
-10.067 -10.065 -10.058 -10.058 -10.055 -10.053 -10.042 -10.041
-10.040 -10.031 -10.026 -10.025 -10.020 -10.018  -1.022  -1.012
 -1.004  -0.996  -0.976  -0.967  -0.951  -0.936  -0.930  -0.922
 -0.767  -0.762  -0.728  -0.726  -0.716  -0.708  -0.698  -0.656
 -0.653  -0.613  -0.604  -0.580  -0.551  -0.544  -0.543  -0.536
 -0.521  -0.511  -0.488  -0.480  -0.465  -0.455  -0.452  -0.446
 -0.439  -0.433  -0.429  -0.414  -0.409  -0.406  -0.403  -0.400
 -0.396  -0.383  -0.379  -0.368  -0.362  -0.354  -0.353  -0.346
 -0.345  -0.341  -0.335  -0.333  -0.331  -0.330  -0.324  -0.316
 -0.313  -0.312  -0.306  -0.301  -0.298  -0.291  -0.278  -0.275
 -0.274  -0.258  -0.249  -0.244  -0.242  -0.239  -0.232  -0.186
 -0.176  -0.165  -0.163  -0.160  -0.153  -0.149  -0.147  -0.142
 -0.140

          Ground-State Mulliken Net Atomic Charges

     Atom                 Charge (a.u.)
  ----------------------------------------
      1 O                    -0.217040
      2 C                     0.214770
      3 C                    -0.082090
      4 C                    -0.076916
      5 C                     0.216144
      6 O                    -0.167180
      7 C                    -0.046023
      8 C                    -0.043692
      9 O                    -0.190488
     10 C                     0.218230
     11 C                    -0.083362
     12 C                    -0.080618
     13 C                     0.206007
     14 O                    -0.218165
     15 O                    -0.175723
     16 O                    -0.157247
     17 O                    -0.170061
     18 C                    -0.125404
     19 C                     0.028072
     20 C                    -0.142074
     21 C                    -0.145159
     22 C                     0.027069
     23 O                    -0.181600
     24 H                     0.079144
     25 H                     0.083007
     26 H                     0.086586
     27 H                     0.078483
     28 H                     0.073834
     29 H                     0.079108
     30 H                     0.073727
     31 H                     0.084193
     32 O                    -0.207111
     33 C                    -0.128221
     34 C                     0.024461
     35 C                    -0.143446
     36 C                    -0.144887
     37 C                     0.023306
     38 O                    -0.189124
     39 H                     0.082952
     40 H                     0.084232
     41 H                     0.091709
     42 H                     0.088712
     43 H                     0.078080
     44 H                     0.072713
     45 H                     0.077832
     46 H                     0.071459
     47 H                     0.091779
     48 H                     0.086289
     49 H                     0.085192
     50 H                     0.092456
     51 H                     0.090246
     52 H                     0.086941
     53 H                     0.074732
     54 H                     0.083452
     55 H                     0.096230
     56 H                     0.084485
  ----------------------------------------
  Sum of atomic charges =    -0.000000

                    Cartesian Multipole Moments
 -----------------------------------------------------------------
    Charge (ESU x 10^10)
                -0.0000
    Dipole Moment (Debye)
         X       0.3382      Y      -1.1271      Z      -4.1132
       Tot       4.2782
    Quadrupole Moments (Debye-Ang)
        XX    -170.2100     XY       2.0287     YY    -153.1191
        XZ       5.5611     YZ      -1.3379     ZZ    -161.6588

 Total job time:  50.00s(wall), 2376.77s(cpu)
        *  Thank you very much for using Q-Chem.  Have a nice day.  *
