 Q-Chem 5.0, Q-Chem, Inc., Pleasanton, CA (2017)
 Q-Chem 5.0.1 for Intel X86 EM64T Linux

User input:
--------------------------------------------------------------
$molecule
0  1
O -4.390589658 -0.0733788108 1.4698069489
C -4.6364380105 -0.2690250622 0.2608180407
C -3.6765553179 -0.8556211218 -0.8356605236
C -2.296933802 -0.0920030319 -0.951679214
C -2.2759051082 1.3205547719 -0.2702769832
O -0.9100982708 1.719953729 -0.1347340146
C -0.8136613276 3.1124999853 0.3694637635
C 0.6003235013 3.251290011 1.0519368831
O 1.0460491806 1.9133929586 1.5068929952
C 2.1841827846 1.4759206755 0.7471578101
C 2.2864577373 -0.0754850849 0.9248893806
C 2.7177949707 -0.861056599 -0.3841782413
C 3.2556975152 0.0474602819 -1.5488022028
O 2.6951620238 0.2362865563 -2.6516813997
O -5.9063458513 -0.0133892186 -0.3545664602
O 4.5664522656 0.5146552455 -1.2228292772
O 2.8598837934 2.2311086137 0.0139235091
C 5.0638666724 1.4028545766 -2.2968599039
C 3.3886059974 -0.5793648003 1.9634732288
C 2.942922798 -2.0149807518 2.4468848094
C 3.2393888945 -2.8657987875 1.1559099034
C 3.8753233967 -1.7749168916 0.2038699483
O 4.5777396564 -0.8593790113 1.1324836513
H 1.2894945123 -0.4066290191 1.2647402584
H 1.8755098952 -1.4509830061 -0.7855499126
H 3.6339535963 0.1397805034 2.7687943104
H 3.5644628676 -2.3415920676 3.2959278709
H 1.8839163599 -2.0471882156 2.7489177277
H 3.9630996082 -3.6709184185 1.3581907419
H 2.328342405 -3.3103748496 0.7238399843
H 4.5778074555 -2.1669172132 -0.5565549664
O -3.2552486802 2.0338964601 0.0383361481
C -6.8422299104 0.5537955443 0.6431761099
C -3.1605856028 -2.2793227323 -0.3489074445
C -2.3563885664 -2.9789639077 -1.5177899971
C -0.9773452376 -2.2242312435 -1.4414490357
C -1.2919180644 -1.1539182641 -0.3264135801
O -2.1177613286 -1.9140032898 0.6384151015
H -4.2138728348 -0.8989917493 -1.79857055
H -2.0457209513 0.0748084911 -2.0163340336
H -6.4700041531 1.5187540296 1.0438051543
H -3.9384694519 -2.9086385115 0.1251324969
H -2.2420245786 -4.056210927 -1.3185047012
H -2.856017972 -2.8524925134 -2.4917405816
H -0.1713154442 -2.8987021102 -1.1094451173
H -0.6820653794 -1.7640302657 -2.3977937205
H -0.4141361184 -0.7026711389 0.1723790074
H -7.0053047143 -0.1400788411 1.4931556448
H -7.7968940562 0.7168432012 0.1098939075
H 6.1046681033 1.6565139762 -2.0243532062
H 4.4604836049 2.3316116681 -2.3574821031
H 5.0463496995 0.9015141622 -3.2862285688
H 1.3571353594 3.6432161823 0.3382100692
H 0.5369425047 3.9255687331 1.930960195
H -1.63685222 3.3055212874 1.0897192641
H -0.9115183551 3.8344592787 -0.4707244684
$end

$rem
JOBTYPE                   OPT
METHOD                    B3LYP
DFT_D                     d3_op
BASIS                     STO-3G
GEOM_OPT_MAX_CYCLES       100
GEOM_OPT_TOL_GRADIENT     300
GEOM_OPT_TOL_DISPLACEMENT 1200
GEOM_OPT_TOL_ENERGY       100
SYMMETRY                  False
THRESH                    12
SCF_CONVERGENCE           8
MAX_SUB_FILE_NUM          128
MEM_STATIC                400
MEM_TOTAL                 4000
$end
--------------------------------------------------------------

   16   -1510.2767809537      2.76E-09 Convergence criterion met
 Total energy in the final basis set = -1510.27678095
   14   -1510.2800265385      3.27E-09 Convergence criterion met
 Total energy in the final basis set = -1510.28002654
   14   -1510.2818907159      4.25E-09 Convergence criterion met
 Total energy in the final basis set = -1510.28189072
   13   -1510.2838669110      9.92E-09 Convergence criterion met
 Total energy in the final basis set = -1510.28386691
   14   -1510.2847770027      1.65E-09 Convergence criterion met
 Total energy in the final basis set = -1510.28477700
   13   -1510.2865307542      8.73E-09 Convergence criterion met
 Total energy in the final basis set = -1510.28653075
   14   -1510.2886102617      1.43E-09 Convergence criterion met
 Total energy in the final basis set = -1510.28861026
   14   -1510.2902644358      1.38E-09 Convergence criterion met
   12   -1510.3056360370      6.18E-09 Convergence criterion met
 Total energy in the final basis set = -1510.30563604
   11   -1510.3056132141      8.76E-09 Convergence criterion met
 Total energy in the final basis set = -1510.30561321
   11   -1510.3056351630      6.85E-09 Convergence criterion met
 Total energy in the final basis set = -1510.30563516
   10   -1510.3056336038      6.59E-09 Convergence criterion met
 Total energy in the final basis set = -1510.30563360
    9   -1510.3056361089      6.69E-09 Convergence criterion met
 Total energy in the final basis set = -1510.30563611
    9   -1510.3056366324      4.74E-09 Convergence criterion met
 Total energy in the final basis set = -1510.30563663

             Standard Nuclear Orientation (Angstroms)
    I     Atom           X                Y                Z
 ----------------------------------------------------------------
    1      O      -1.6630072066    -0.8576823730     1.5474864880
    2      C      -2.6753105244    -0.6993659627     0.8227673615
    3      C      -2.7766400452    -0.8983844683    -0.7358571623
    4      C      -1.9527284975     0.1893462261    -1.5416083878
    5      C      -1.6925041967     1.4565150784    -0.6573316289
    6      O      -0.8707190089     2.4051212086    -1.3404239328
    7      C      -0.8058058603     3.6701040548    -0.5592639223
    8      C       0.3847493877     3.6520354915     0.4750937643
    9      O       0.3727072753     2.3579845709     1.1944878913
   10      C       1.3767268974     1.4972810251     0.6363298211
   11      C       1.1315481762     0.0329675124     1.0936096843
   12      C       1.8458198912    -1.0106741235     0.1386833460
   13      C       2.5905586363    -0.3429801078    -1.0694409273
   14      O       2.0643304900     0.0163364420    -2.1564075636
   15      O      -3.9868658213    -0.4518427289     1.3347601774
   16      O       3.9953168301    -0.2898110167    -0.8328161042
   17      O       2.2819616002     1.9040799888    -0.1308338060
   18      C       4.6679399597     0.3964068846    -1.9588665154
   19      C       1.8129457123    -0.3244594469     2.4857979165
   20      C       1.1617283479    -1.6776474439     2.9775055673
   21      C       1.8798159593    -2.7157633626     2.0378586636
   22      C       2.7883702447    -1.7621328155     1.1640891731
   23      O       3.1944486303    -0.7018936681     2.1176459481
   24      H       0.0365907867    -0.1690626394     1.1448465033
   25      H       1.0578420532    -1.6671301676    -0.2874449282
   26      H       1.8150908805     0.4981380300     3.2273569543
   27      H       1.3927726572    -1.8601015652     4.0390251916
   28      H       0.0681861375    -1.6668173604     2.8371262709
   29      H       2.4999106054    -3.4223723351     2.6124716922
   30      H       1.1694117933    -3.2855359935     1.4183052169
   31      H       3.6803988735    -2.2369245028     0.7127194343
   32      O      -2.2306894687     1.6673783243     0.4562585158
   33      C      -3.9173407209    -0.2214803163     2.7959232362
   34      C      -2.0028909983    -2.2146087267    -1.1533423378
   35      C      -2.2228791761    -2.4921863304    -2.6931709950
   36      C      -1.2314481418    -1.4529226269    -3.3410659776
   37      C      -0.7170849585    -0.6760591406    -2.0667504614
   38      O      -0.5962441113    -1.7716198863    -1.0756798623
   39      H      -3.8425839158    -0.9083737177    -1.0226055401
   40      H      -2.5398655780     0.5390454587    -2.4111819328
   41      H      -3.3187187630     0.6831037733     3.0278650468
   42      H      -2.1767811095    -3.0806762273    -0.4855477784
   43      H      -1.9476812132    -3.5292250036    -2.9422813341
   44      H      -3.2696176876    -2.3245048735    -2.9940926686
   45      H      -0.3887846409    -1.9611261553    -3.8368713437
   46      H      -1.7235135901    -0.7919998899    -4.0720972145
   47      H       0.2884078282    -0.1797119589    -2.1688849256
   48      H      -3.4707479314    -1.0877943370     3.3253659440
   49      H      -4.9597878141    -0.0750453829     3.1332750691
   50      H       5.7452002550     0.4037259174    -1.7110522073
   51      H       4.3012105817     1.4374857849    -2.0657727394
   52      H       4.5087476377    -0.1369656170    -2.9185167463
   53      H       1.3588602604     3.7551097576    -0.0496504816
   54      H       0.2524006254     4.4670355111     1.2151174210
   55      H      -1.7644773883     3.8225824129    -0.0208562972
   56      H      -0.6503754725     4.4812575351    -1.2990929629
 ----------------------------------------------------------------

   10   -1510.3056366631      8.07E-09 Convergence criterion met
 Total energy in the final basis set = -1510.30563666
 Final energy is   -1510.30563666305
 **  OPTIMIZATION CONVERGED  **

                    Orbital Energies (a.u.)
 --------------------------------------------------------------

 Alpha MOs
 -- Occupied --
-18.945 -18.932 -18.930 -18.925 -18.889 -18.885 -18.875 -18.869
-18.867 -18.856 -10.107 -10.100 -10.093 -10.088 -10.076 -10.068
-10.062 -10.060 -10.052 -10.042 -10.040 -10.039 -10.038 -10.036
-10.019 -10.013 -10.009 -10.005 -10.001  -9.998  -1.024  -1.009
 -1.005  -0.997  -0.971  -0.952  -0.945  -0.933  -0.931  -0.921
 -0.762  -0.745  -0.722  -0.715  -0.702  -0.697  -0.685  -0.660
 -0.648  -0.615  -0.591  -0.569  -0.544  -0.536  -0.529  -0.520
 -0.509  -0.499  -0.486  -0.474  -0.459  -0.453  -0.448  -0.433
 -0.430  -0.422  -0.414  -0.413  -0.409  -0.405  -0.399  -0.399
 -0.392  -0.379  -0.368  -0.365  -0.359  -0.355  -0.351  -0.347
 -0.344  -0.340  -0.327  -0.323  -0.318  -0.314  -0.312  -0.307
 -0.300  -0.297  -0.294  -0.288  -0.285  -0.278  -0.274  -0.265
 -0.264  -0.255  -0.249  -0.244  -0.235  -0.227  -0.212  -0.195
 -0.174  -0.168  -0.163  -0.159  -0.154  -0.149  -0.143  -0.138
 -0.126

          Ground-State Mulliken Net Atomic Charges

     Atom                 Charge (a.u.)
  ----------------------------------------
      1 O                    -0.226634
      2 C                     0.222803
      3 C                    -0.079984
      4 C                    -0.081541
      5 C                     0.212544
      6 O                    -0.165411
      7 C                    -0.051504
      8 C                    -0.056357
      9 O                    -0.171046
     10 C                     0.209347
     11 C                    -0.094011
     12 C                    -0.097535
     13 C                     0.220397
     14 O                    -0.230678
     15 O                    -0.167524
     16 O                    -0.163059
     17 O                    -0.212998
     18 C                    -0.126123
     19 C                     0.025657
     20 C                    -0.147072
     21 C                    -0.143563
     22 C                     0.024067
     23 O                    -0.192881
     24 H                     0.112582
     25 H                     0.112048
     26 H                     0.078491
     27 H                     0.070633
     28 H                     0.087618
     29 H                     0.071937
     30 H                     0.073851
     31 H                     0.083228
     32 O                    -0.207287
     33 C                    -0.127774
     34 C                     0.027226
     35 C                    -0.145414
     36 C                    -0.142975
     37 C                     0.005900
     38 O                    -0.196718
     39 H                     0.085907
     40 H                     0.085882
     41 H                     0.094303
     42 H                     0.081835
     43 H                     0.076908
     44 H                     0.072551
     45 H                     0.078147
     46 H                     0.071853
     47 H                     0.120509
     48 H                     0.087868
     49 H                     0.088792
     50 H                     0.088476
     51 H                     0.093766
     52 H                     0.085844
     53 H                     0.102525
     54 H                     0.088172
     55 H                     0.095354
     56 H                     0.091071
  ----------------------------------------
  Sum of atomic charges =    -0.000000

                    Cartesian Multipole Moments
 -----------------------------------------------------------------
    Charge (ESU x 10^10)
                -0.0000
    Dipole Moment (Debye)
         X      -2.7984      Y       0.5055      Z      -1.0777
       Tot       3.0411
    Quadrupole Moments (Debye-Ang)
        XX    -158.7255     XY       0.9933     YY    -146.4456
        XZ      -3.4410     YZ       0.9242     ZZ    -156.3842

 Total job time:  129.04s(wall), 6146.23s(cpu)
        *  Thank you very much for using Q-Chem.  Have a nice day.  *
