 Q-Chem 5.0, Q-Chem, Inc., Pleasanton, CA (2017)
 Q-Chem 5.0.1 for Intel X86 EM64T Linux

User input:
--------------------------------------------------------------
$molecule
0  1
O -3.94934 -3.66094 2.70899
C -3.26408 -4.56952 2.26188
C -3.36658 -6.02376 2.66595
C -3.25878 -6.34562 4.1655
C -3.23878 -5.16366 5.10923
O -3.4859 -5.58425 6.38495
C -3.34624 -4.5436 7.35799
C -4.16095 -4.87601 8.60373
O -5.25049 -5.74575 8.25828
C -5.17379 -7.0037 8.75909
C -6.05775 -7.98399 8.0254
C -5.4501 -9.38021 7.82637
C -4.23701 -9.70021 8.6765
O -3.10138 -9.86839 8.25624
O -2.3084 -4.27322 1.3421
O -4.43424 -9.81101 10.02015
O -4.68647 -7.23627 9.85748
C -3.44459 -10.10437 10.93527
C -7.34755 -8.37005 8.7873
C -8.40962 -8.82724 7.78671
C -7.81549 -10.14594 7.32582
C -6.62399 -10.25859 8.28621
O -7.05028 -9.57894 9.44312
H -6.38157 -7.51057 7.07178
H -5.14769 -9.52843 6.76604
H -7.74338 -7.55047 9.42594
H -9.32927 -9.03902 8.3786
H -8.66129 -8.11238 6.97399
H -8.56353 -10.94941 7.50521
H -7.4732 -10.16759 6.26815
H -6.31999 -11.31959 8.42501
O -2.58643 -4.151 4.87944
C -2.05783 -3.00451 0.86284
C -4.7665 -6.57877 2.34649
C -4.70912 -8.09951 2.21464
C -4.51118 -8.49669 3.6603
C -4.58527 -7.12379 4.33628
O -5.48687 -6.39944 3.53834
H -2.61031 -6.58737 2.07303
H -2.37735 -6.97854 4.41179
H -1.75874 -2.33298 1.69594
H -5.21501 -6.13227 1.43145
H -5.71685 -8.44264 1.88753
H -3.94255 -8.48193 1.50683
H -5.37494 -9.12573 3.97247
H -3.55807 -9.02202 3.886
H -4.87945 -7.25976 5.39362
H -2.96209 -2.59986 0.35989
H -1.2297 -3.05077 0.12626
H -3.88655 -10.13081 11.95228
H -2.65507 -9.32318 10.90844
H -2.99942 -11.09744 10.71212
H -3.43239 -5.37863 9.27933
H -4.50334 -3.96585 9.14149
H -3.87584 -3.645 6.95948
H -2.29315 -4.25064 7.56451
$end

$opt
CONSTRAINT
tors           1           2           3           4     -54.013
tors           3           4           5           6    +164.514
tors           4           5           6           7    +173.877
tors           5           6           7           8    +156.441
tors           6           7           8           9     -25.718
tors           7           8           9          10    +112.665
tors           8           9          10          11    -161.050
tors           9          10          11          12    +141.505
tors          11          12          13          14    -112.822
ENDCONSTRAINT
$end

$rem
JOBTYPE                   OPT
METHOD                    B3LYP
DFT_D                     d3_op
BASIS                     STO-3G
GEOM_OPT_MAX_CYCLES       100
GEOM_OPT_TOL_GRADIENT     300
GEOM_OPT_TOL_DISPLACEMENT 1200
GEOM_OPT_TOL_ENERGY       100
SYMMETRY                  False
THRESH                    12
SCF_CONVERGENCE           8
MAX_SUB_FILE_NUM          128
MEM_STATIC                400
MEM_TOTAL                 4000
$end
--------------------------------------------------------------

   16   -1510.1300716347      2.20E-09 Convergence criterion met
 Total energy in the final basis set = -1510.13007163
   14   -1510.2013474938      7.55E-09 Convergence criterion met
 Total energy in the final basis set = -1510.20134749
   14   -1510.2407536334      6.33E-09 Convergence criterion met
 Total energy in the final basis set = -1510.24075363
   14   -1510.2595498874      8.04E-09 Convergence criterion met
 Total energy in the final basis set = -1510.25954989
   14   -1510.2670809697      7.11E-09 Convergence criterion met
 Total energy in the final basis set = -1510.26708097
   14   -1510.2716382263      4.90E-09 Convergence criterion met
 Total energy in the final basis set = -1510.27163823
   13   -1510.2737540140      3.74E-09 Convergence criterion met
 Total energy in the final basis set = -1510.27375401
   13   -1510.2749438901      2.57E-09 Convergence criterion met
   12   -1510.2766872368      3.54E-09 Convergence criterion met
 Total energy in the final basis set = -1510.27668724
   11   -1510.2767344808      5.76E-09 Convergence criterion met
 Total energy in the final basis set = -1510.27673448
   11   -1510.2767604128      5.35E-09 Convergence criterion met
 Total energy in the final basis set = -1510.27676041
   10   -1510.2767728388      7.87E-09 Convergence criterion met
 Total energy in the final basis set = -1510.27677284
    9   -1510.2767820609      7.70E-09 Convergence criterion met
 Total energy in the final basis set = -1510.27678206
    9   -1510.2767853157      6.75E-09 Convergence criterion met
 Total energy in the final basis set = -1510.27678532

             Standard Nuclear Orientation (Angstroms)
    I     Atom           X                Y                Z
 ----------------------------------------------------------------
    1      O      -4.3905896580    -0.0733788108     1.4698069489
    2      C      -4.6364380105    -0.2690250622     0.2608180407
    3      C      -3.6765553179    -0.8556211218    -0.8356605236
    4      C      -2.2969338020    -0.0920030319    -0.9516792140
    5      C      -2.2759051082     1.3205547719    -0.2702769832
    6      O      -0.9100982708     1.7199537290    -0.1347340146
    7      C      -0.8136613276     3.1124999853     0.3694637635
    8      C       0.6003235013     3.2512900110     1.0519368831
    9      O       1.0460491806     1.9133929586     1.5068929952
   10      C       2.1841827846     1.4759206755     0.7471578101
   11      C       2.2864577373    -0.0754850849     0.9248893806
   12      C       2.7177949707    -0.8610565990    -0.3841782413
   13      C       3.2556975152     0.0474602819    -1.5488022028
   14      O       2.6951620238     0.2362865563    -2.6516813997
   15      O      -5.9063458513    -0.0133892186    -0.3545664602
   16      O       4.5664522656     0.5146552455    -1.2228292772
   17      O       2.8598837934     2.2311086137     0.0139235091
   18      C       5.0638666724     1.4028545766    -2.2968599039
   19      C       3.3886059974    -0.5793648003     1.9634732288
   20      C       2.9429227980    -2.0149807518     2.4468848094
   21      C       3.2393888945    -2.8657987875     1.1559099034
   22      C       3.8753233967    -1.7749168916     0.2038699483
   23      O       4.5777396564    -0.8593790113     1.1324836513
   24      H       1.2894945123    -0.4066290191     1.2647402584
   25      H       1.8755098952    -1.4509830061    -0.7855499126
   26      H       3.6339535963     0.1397805034     2.7687943104
   27      H       3.5644628676    -2.3415920676     3.2959278709
   28      H       1.8839163599    -2.0471882156     2.7489177277
   29      H       3.9630996082    -3.6709184185     1.3581907419
   30      H       2.3283424050    -3.3103748496     0.7238399843
   31      H       4.5778074555    -2.1669172132    -0.5565549664
   32      O      -3.2552486802     2.0338964601     0.0383361481
   33      C      -6.8422299104     0.5537955443     0.6431761099
   34      C      -3.1605856028    -2.2793227323    -0.3489074445
   35      C      -2.3563885664    -2.9789639077    -1.5177899971
   36      C      -0.9773452376    -2.2242312435    -1.4414490357
   37      C      -1.2919180644    -1.1539182641    -0.3264135801
   38      O      -2.1177613286    -1.9140032898     0.6384151015
   39      H      -4.2138728348    -0.8989917493    -1.7985705500
   40      H      -2.0457209513     0.0748084911    -2.0163340336
   41      H      -6.4700041531     1.5187540296     1.0438051543
   42      H      -3.9384694519    -2.9086385115     0.1251324969
   43      H      -2.2420245786    -4.0562109270    -1.3185047012
   44      H      -2.8560179720    -2.8524925134    -2.4917405816
   45      H      -0.1713154442    -2.8987021102    -1.1094451173
   46      H      -0.6820653794    -1.7640302657    -2.3977937205
   47      H      -0.4141361184    -0.7026711389     0.1723790074
   48      H      -7.0053047143    -0.1400788411     1.4931556448
   49      H      -7.7968940562     0.7168432012     0.1098939075
   50      H       6.1046681033     1.6565139762    -2.0243532062
   51      H       4.4604836049     2.3316116681    -2.3574821031
   52      H       5.0463496995     0.9015141622    -3.2862285688
   53      H       1.3571353594     3.6432161823     0.3382100692
   54      H       0.5369425047     3.9255687331     1.9309601950
   55      H      -1.6368522200     3.3055212874     1.0897192641
   56      H      -0.9115183551     3.8344592787    -0.4707244684
 ----------------------------------------------------------------

    9   -1510.2767862244      4.02E-09 Convergence criterion met
 Total energy in the final basis set = -1510.27678622
 Final energy is   -1510.27678622438
 **  OPTIMIZATION CONVERGED  **

                    Orbital Energies (a.u.)
 --------------------------------------------------------------

 Alpha MOs
 -- Occupied --
-18.937 -18.934 -18.926 -18.925 -18.889 -18.889 -18.884 -18.880
-18.863 -18.863 -10.104 -10.103 -10.092 -10.090 -10.075 -10.072
-10.061 -10.061 -10.060 -10.060 -10.057 -10.054 -10.039 -10.038
-10.036 -10.035 -10.022 -10.021 -10.020 -10.019  -1.020  -1.011
 -1.002  -1.000  -0.971  -0.970  -0.946  -0.935  -0.926  -0.925
 -0.765  -0.762  -0.728  -0.722  -0.716  -0.706  -0.696  -0.657
 -0.653  -0.618  -0.598  -0.576  -0.546  -0.545  -0.539  -0.537
 -0.515  -0.509  -0.483  -0.478  -0.466  -0.461  -0.451  -0.440
 -0.435  -0.432  -0.425  -0.413  -0.409  -0.405  -0.403  -0.403
 -0.394  -0.381  -0.374  -0.365  -0.360  -0.355  -0.354  -0.347
 -0.341  -0.338  -0.333  -0.331  -0.331  -0.327  -0.321  -0.315
 -0.311  -0.306  -0.303  -0.299  -0.296  -0.283  -0.281  -0.275
 -0.274  -0.254  -0.250  -0.246  -0.242  -0.235  -0.234  -0.181
 -0.177  -0.171  -0.169  -0.158  -0.157  -0.146  -0.143  -0.143
 -0.141

          Ground-State Mulliken Net Atomic Charges

     Atom                 Charge (a.u.)
  ----------------------------------------
      1 O                    -0.212679
      2 C                     0.212420
      3 C                    -0.079785
      4 C                    -0.078328
      5 C                     0.214465
      6 O                    -0.172348
      7 C                    -0.049975
      8 C                    -0.054461
      9 O                    -0.170360
     10 C                     0.213561
     11 C                    -0.079415
     12 C                    -0.080202
     13 C                     0.209548
     14 O                    -0.220440
     15 O                    -0.171334
     16 O                    -0.160304
     17 O                    -0.208883
     18 C                    -0.126184
     19 C                     0.026887
     20 C                    -0.142850
     21 C                    -0.144942
     22 C                     0.027087
     23 O                    -0.182935
     24 H                     0.088177
     25 H                     0.083691
     26 H                     0.084293
     27 H                     0.078220
     28 H                     0.076898
     29 H                     0.078055
     30 H                     0.073380
     31 H                     0.084325
     32 O                    -0.210713
     33 C                    -0.128641
     34 C                     0.025666
     35 C                    -0.144924
     36 C                    -0.143384
     37 C                     0.024348
     38 O                    -0.187781
     39 H                     0.086257
     40 H                     0.086898
     41 H                     0.091783
     42 H                     0.082652
     43 H                     0.077617
     44 H                     0.074646
     45 H                     0.073677
     46 H                     0.077617
     47 H                     0.086916
     48 H                     0.086818
     49 H                     0.087807
     50 H                     0.089736
     51 H                     0.091129
     52 H                     0.086371
     53 H                     0.100489
     54 H                     0.087342
     55 H                     0.096571
     56 H                     0.085520
  ----------------------------------------
  Sum of atomic charges =     0.000000

                    Cartesian Multipole Moments
 -----------------------------------------------------------------
    Charge (ESU x 10^10)
                 0.0000
    Dipole Moment (Debye)
         X      -0.5504      Y      -0.5865      Z      -0.9216
       Tot       1.2232
    Quadrupole Moments (Debye-Ang)
        XX    -161.3025     XY      -0.1051     YY    -148.3003
        XZ       2.8778     YZ       3.1127     ZZ    -161.4141

 Total job time:  57.08s(wall), 2717.62s(cpu)
        *  Thank you very much for using Q-Chem.  Have a nice day.  *
