 Q-Chem 5.0, Q-Chem, Inc., Pleasanton, CA (2017)
 Q-Chem 5.0.1 for Intel X86 EM64T Linux

User input:
--------------------------------------------------------------
$molecule
0  1
O -5.4829733638 2.0008913651 1.7249751544
C -4.9123899107 1.5893937299 0.6917732174
C -5.1805190224 0.2275859046 -0.0423630882
C -4.0166583219 -0.3497679584 -0.9331049652
C -2.5948717942 0.0518490242 -0.3933950033
O -1.6114423406 -0.573232098 -1.2308464403
C -0.2530742312 -0.1123815112 -0.8597320436
C 0.5340656317 -1.2536965888 -0.0848911401
O 1.6564391651 -1.7911700036 -0.8908612318
C 2.9268700796 -1.3263621278 -0.3499030428
C 3.2413343152 0.187938576 -0.6457273991
C 4.1339706753 0.9082552091 0.4518210312
C 4.6604248351 -0.0627399405 1.5724709382
O 4.1502834234 -0.2243450355 2.7035049219
O -4.1392139212 2.4315788403 -0.1760984085
O 5.8802976114 -0.6705680618 1.1444781967
O 3.7255688833 -2.1410889575 0.1568958786
C 6.3380494251 -1.646954336 2.1583872069
C 4.1388070382 0.3814880011 -1.9494047917
C 3.9427038231 1.8717836192 -2.4353636506
C 4.7582753645 2.6523861721 -1.3383165569
C 5.3112621228 1.4620705853 -0.4566741516
O 5.5232984913 0.3687041615 -1.4354295001
H 2.2845890424 0.7221194157 -0.7688493558
H 3.5680485133 1.7168526871 0.9473262949
H 4.0007974484 -0.3946013096 -2.7273018436
H 4.380123246 2.0077701598 -3.4374100864
H 2.8812767227 2.1650212965 -2.4697877548
H 5.5896853486 3.2223178301 -1.7823826058
H 4.1297106671 3.342805792 -0.7531356511
H 6.2493385521 1.6760909128 0.0901321712
O -2.3166500603 0.7295549039 0.619288699
C -3.943939629 3.756904733 0.4511639817
C -5.5271610532 -1.0177026626 0.8831852911
C -6.53231243 -1.9187581786 0.0697180222
C -5.5868185288 -2.4323938759 -1.0813464603
C -4.1794757217 -1.8977728952 -0.5965062564
O -4.2953133906 -1.8440449064 0.883333318
H -6.0491495588 0.4318809346 -0.6979735924
H -4.1120137375 -0.105415198 -2.005454279
H -3.3081412975 3.6835862585 1.3571983425
H -5.8301586955 -0.7555812597 1.9156465413
H -6.8898767027 -2.7525554014 0.6950424174
H -7.401785878 -1.3554798378 -0.3049663584
H -5.5822560129 -3.5317311504 -1.1476154329
H -5.8598026595 -2.0217842166 -2.0668296766
H -3.3098015421 -2.5134500885 -0.8981345418
H -4.9097882466 4.2226314208 0.7347979966
H -3.4357229719 4.3824061222 -0.3055897762
H 7.3161314938 -2.0193144499 1.8025040655
H 5.6270877402 -2.4939895027 2.2430184918
H 6.4550492364 -1.1777477296 3.1566777958
H 0.8644744175 -0.8828442693 0.9076423213
H -0.1694690992 -2.0985891124 0.0831620706
H -0.3362699552 0.7980359327 -0.2294564578
H 0.2780670105 0.1183576279 -1.80665603
$end

$rem
JOBTYPE                   OPT
METHOD                    B3LYP
DFT_D                     d3_op
BASIS                     STO-3G
GEOM_OPT_MAX_CYCLES       100
GEOM_OPT_TOL_GRADIENT     300
GEOM_OPT_TOL_DISPLACEMENT 1200
GEOM_OPT_TOL_ENERGY       100
SYMMETRY                  False
THRESH                    12
SCF_CONVERGENCE           8
MAX_SUB_FILE_NUM          128
MEM_STATIC                400
MEM_TOTAL                 4000
$end
--------------------------------------------------------------

   16   -1510.2523588454      5.63E-09 Convergence criterion met
 Total energy in the final basis set = -1510.25235885
   14   -1510.2559023287      1.83E-09 Convergence criterion met
 Total energy in the final basis set = -1510.25590233
   14   -1510.2592984723      2.25E-09 Convergence criterion met
 Total energy in the final basis set = -1510.25929847
   14   -1510.2620582605      1.83E-09 Convergence criterion met
 Total energy in the final basis set = -1510.26205826
   13   -1510.2644040653      6.86E-09 Convergence criterion met
 Total energy in the final basis set = -1510.26440407
   13   -1510.2666188572      9.05E-09 Convergence criterion met
 Total energy in the final basis set = -1510.26661886
   14   -1510.2684658793      1.75E-09 Convergence criterion met
 Total energy in the final basis set = -1510.26846588
   13   -1510.2696019040      6.38E-09 Convergence criterion met
   11   -1510.2811419500      6.94E-09 Convergence criterion met
 Total energy in the final basis set = -1510.28114195
   11   -1510.2811491473      3.90E-09 Convergence criterion met
 Total energy in the final basis set = -1510.28114915
    9   -1510.2811512464      5.39E-09 Convergence criterion met
 Total energy in the final basis set = -1510.28115125
    9   -1510.2811532876      8.60E-09 Convergence criterion met
 Total energy in the final basis set = -1510.28115329
    9   -1510.2811555463      6.28E-09 Convergence criterion met
 Total energy in the final basis set = -1510.28115555
    8   -1510.2811543877      8.09E-09 Convergence criterion met
 Total energy in the final basis set = -1510.28115439

             Standard Nuclear Orientation (Angstroms)
    I     Atom           X                Y                Z
 ----------------------------------------------------------------
    1      O      -2.1361932176     1.7742143663     1.6502519313
    2      C      -2.6614099523     1.7198537495     0.5174906036
    3      C      -3.7951024487     0.7412030185     0.0355027246
    4      C      -3.3429808911    -0.3957363824    -0.9659477882
    5      C      -1.7931947374    -0.4740336346    -1.1505879307
    6      O      -1.5105304105    -1.4616938170    -2.1397476911
    7      C      -0.0463500272    -1.6488447478    -2.3059488672
    8      C       0.5380841422    -2.5497634478    -1.1463273710
    9      O       2.0051737783    -2.7007683559    -1.2200509152
   10      C       2.7829509107    -1.6660104590    -0.5767900149
   11      C       2.1444316289    -0.2647625483    -0.2625245687
   12      C       2.8235740167     0.4580283095     0.9772428777
   13      C       3.9954942340    -0.3726645163     1.6252383577
   14      O       3.8703769537    -1.2893413799     2.4671668603
   15      O      -2.4257176306     2.6631874784    -0.5395489846
   16      O       5.2540493124     0.1327220780     1.1684796236
   17      O       3.9877207538    -1.9374179154    -0.3703283034
   18      C       6.3488428685    -0.7100728405     1.6975665335
   19      C       2.4766800186     0.7811296874    -1.4273632024
   20      C       1.4564039967     1.9739283449    -1.2704969416
   21      C       2.0506171539     2.7019420373    -0.0092167399
   22      C       3.3151573289     1.8050205009     0.3038667367
   23      O       3.7737499975     1.3646606433    -1.0344454949
   24      H       1.0498711985    -0.3188466031    -0.1259830143
   25      H       2.0698980886     0.6416686904     1.7641854406
   26      H       2.5464725060     0.3425856778    -2.4421401775
   27      H       1.4737529213     2.6205561519    -2.1619321641
   28      H       0.4325180369     1.5983523371    -1.1033224354
   29      H       2.3567412759     3.7341912473    -0.2421033453
   30      H       1.3455518732     2.7238771518     0.8368118399
   31      H       4.1353898864     2.3146217028     0.8441312907
   32      O      -0.9246031152     0.1802060631    -0.5244596445
   33      C      -1.4746089553     3.7076582729    -0.0958957088
   34      C      -4.3751344963    -0.1230095790     1.2345293936
   35      C      -5.8072490451    -0.6362314590     0.8196824556
   36      C      -5.4343815869    -1.7279633597    -0.2517908399
   37      C      -3.8559662508    -1.6904808114    -0.1934798913
   38      O      -3.5547114258    -1.3578918358     1.2160990029
   39      H      -4.5839244762     1.3569686913    -0.4322162570
   40      H      -3.8160228798    -0.2939574106    -1.9592366498
   41      H      -1.0429096641     3.4248817211     0.8849854734
   42      H      -4.3030229513     0.3706302480     2.2228828101
   43      H      -6.3218424809    -1.0817960243     1.6859973710
   44      H      -6.4372775767     0.1687110771     0.4088898754
   45      H      -5.8054482605    -2.7243060423     0.0365114993
   46      H      -5.8165983422    -1.4867924947    -1.2567223651
   47      H      -3.3481473554    -2.6270823427    -0.4960881024
   48      H      -2.0095846657     4.6740429579    -0.0008162234
   49      H      -0.6762557487     3.8062143778    -0.8548332855
   50      H       7.2895814799    -0.2358271638     1.3627413944
   51      H       6.2870224083    -1.7408540381     1.2923189129
   52      H       6.3290186574    -0.7624404079     2.8054767763
   53      H       0.2024486377    -2.1582291512    -0.1636507977
   54      H       0.1356237116    -3.5775244328    -1.2603425468
   55      H       0.4693888198    -0.6691489605    -2.3358152079
   56      H       0.0820847862    -2.1568089609    -3.2820010970
 ----------------------------------------------------------------

    8   -1510.2811545397      7.97E-09 Convergence criterion met
 Total energy in the final basis set = -1510.28115454
 Final energy is   -1510.28115453967
 **  OPTIMIZATION CONVERGED  **

                    Orbital Energies (a.u.)
 --------------------------------------------------------------

 Alpha MOs
 -- Occupied --
-18.963 -18.935 -18.929 -18.917 -18.908 -18.897 -18.883 -18.879
-18.875 -18.852 -10.128 -10.102 -10.100 -10.089 -10.085 -10.084
-10.072 -10.066 -10.058 -10.057 -10.054 -10.052 -10.047 -10.044
-10.029 -10.028 -10.027 -10.027 -10.014 -10.010  -1.040  -1.009
 -1.008  -0.992  -0.980  -0.965  -0.964  -0.939  -0.935  -0.917
 -0.774  -0.756  -0.736  -0.723  -0.715  -0.709  -0.701  -0.663
 -0.646  -0.628  -0.599  -0.592  -0.556  -0.546  -0.542  -0.534
 -0.523  -0.508  -0.493  -0.482  -0.473  -0.464  -0.459  -0.452
 -0.439  -0.433  -0.429  -0.419  -0.409  -0.405  -0.404  -0.400
 -0.396  -0.394  -0.384  -0.375  -0.367  -0.358  -0.354  -0.351
 -0.348  -0.342  -0.335  -0.333  -0.328  -0.326  -0.322  -0.318
 -0.313  -0.310  -0.305  -0.302  -0.296  -0.288  -0.283  -0.275
 -0.274  -0.269  -0.249  -0.246  -0.244  -0.237  -0.228  -0.208
 -0.181  -0.174  -0.171  -0.158  -0.158  -0.154  -0.150  -0.139
 -0.133

          Ground-State Mulliken Net Atomic Charges

     Atom                 Charge (a.u.)
  ----------------------------------------
      1 O                    -0.215575
      2 C                     0.216009
      3 C                    -0.080998
      4 C                    -0.076996
      5 C                     0.221038
      6 O                    -0.165987
      7 C                    -0.054558
      8 C                    -0.050884
      9 O                    -0.169543
     10 C                     0.208383
     11 C                    -0.094970
     12 C                    -0.079294
     13 C                     0.212259
     14 O                    -0.222731
     15 O                    -0.177218
     16 O                    -0.166713
     17 O                    -0.193238
     18 C                    -0.126815
     19 C                     0.022565
     20 C                    -0.153900
     21 C                    -0.145492
     22 C                     0.026594
     23 O                    -0.185647
     24 H                     0.095745
     25 H                     0.085145
     26 H                     0.075875
     27 H                     0.071170
     28 H                     0.086856
     29 H                     0.074362
     30 H                     0.074756
     31 H                     0.088428
     32 O                    -0.210936
     33 C                    -0.136433
     34 C                     0.024926
     35 C                    -0.143374
     36 C                    -0.143842
     37 C                     0.025121
     38 O                    -0.189199
     39 H                     0.086436
     40 H                     0.090718
     41 H                     0.100494
     42 H                     0.091523
     43 H                     0.080093
     44 H                     0.074654
     45 H                     0.080314
     46 H                     0.074903
     47 H                     0.084995
     48 H                     0.082272
     49 H                     0.087509
     50 H                     0.087189
     51 H                     0.093758
     52 H                     0.085864
     53 H                     0.090621
     54 H                     0.093872
     55 H                     0.093483
     56 H                     0.096408
  ----------------------------------------
  Sum of atomic charges =    -0.000000

                    Cartesian Multipole Moments
 -----------------------------------------------------------------
    Charge (ESU x 10^10)
                -0.0000
    Dipole Moment (Debye)
         X      -4.9951      Y       1.4262      Z      -2.3185
       Tot       5.6886
    Quadrupole Moments (Debye-Ang)
        XX    -157.2640     XY       7.1602     YY    -158.6442
        XZ       6.0441     YZ       4.7170     ZZ    -163.3392

 Total job time:  132.07s(wall), 6297.86s(cpu)
        *  Thank you very much for using Q-Chem.  Have a nice day.  *
