 Q-Chem 5.0, Q-Chem, Inc., Pleasanton, CA (2017)
 Q-Chem 5.0.1 for Intel X86 EM64T Linux

User input:
--------------------------------------------------------------
$molecule
0  1
O -3.94934 -3.66094 2.70899
C -3.26408 -4.56952 2.26188
C -3.36658 -6.02376 2.66595
C -2.1211 -6.90061 2.45672
C -0.85687 -6.1863 2.03298
O 0.17348 -7.07867 1.94637
C 1.37278 -6.50436 1.41619
C 2.39808 -6.30869 2.52822
O 3.49842 -7.21324 2.34409
C 4.65394 -6.64647 1.91665
C 4.61214 -6.25246 0.45937
C 5.48835 -5.04678 0.0894
C 6.52746 -4.64505 1.11681
O 6.40124 -3.75014 1.94008
O -2.81615 -4.38637 0.987
O 7.65122 -5.41224 1.18959
O 5.70297 -6.94116 2.46788
C 8.67671 -5.21599 2.09092
C 5.17873 -7.31772 -0.50414
C 4.5657 -7.12898 -1.89169
C 5.22206 -5.82807 -2.31545
C 6.2004 -5.62309 -1.15102
O 6.51107 -6.93122 -0.73208
H 3.57208 -6.04712 0.15276
H 4.87915 -4.14064 -0.12492
H 5.02315 -8.3596 -0.1485
H 4.96222 -7.95229 -2.52862
H 3.45543 -7.13668 -1.93995
H 5.76167 -6.00373 -3.27226
H 4.53482 -4.96004 -2.41545
H 7.06161 -4.99281 -1.46508
O -0.67642 -4.97486 2.05489
C -2.82614 -3.18354 0.30969
C -3.547 -6.17855 4.1916
C -4.19041 -7.52814 4.50784
C -3.03734 -8.46468 4.21869
C -1.93688 -7.4537 3.88261
O -2.24043 -6.34035 4.68564
H -4.26537 -6.43063 2.15029
H -2.30975 -7.69338 1.69872
H -2.21402 -2.43404 0.85526
H -4.14435 -5.36187 4.65265
H -4.39518 -7.54865 5.60237
H -5.12988 -7.74385 3.95489
H -2.78586 -9.01146 5.15477
H -3.20615 -9.1867 3.39058
H -0.9374 -7.91242 4.04683
H -3.86734 -2.81207 0.20001
H -2.39316 -3.33225 -0.70064
H 9.45979 -5.98342 1.92302
H 8.29678 -5.31427 3.13029
H 9.12456 -4.20952 1.94735
H 2.74132 -5.24659 2.48862
H 1.95308 -6.44072 3.53766
H 1.22282 -5.53776 0.87995
H 1.75062 -7.18852 0.62745
$end

$opt
CONSTRAINT
tors           1           2           3           4    -156.080
tors           3           4           5           6    +177.238
tors           4           5           6           7    +173.877
tors           5           6           7           8    +106.250
tors           6           7           8           9    +111.204
tors           7           8           9          10    +107.136
tors           8           9          10          11     -73.990
tors           9          10          11          12    +150.374
tors          11          12          13          14     -97.900
ENDCONSTRAINT
$end

$rem
JOBTYPE                   OPT
METHOD                    B3LYP
DFT_D                     d3_op
BASIS                     STO-3G
GEOM_OPT_MAX_CYCLES       100
GEOM_OPT_TOL_GRADIENT     300
GEOM_OPT_TOL_DISPLACEMENT 1200
GEOM_OPT_TOL_ENERGY       100
SYMMETRY                  False
THRESH                    12
SCF_CONVERGENCE           8
MAX_SUB_FILE_NUM          128
MEM_STATIC                400
MEM_TOTAL                 4000
$end
--------------------------------------------------------------

   15   -1510.1110776530      7.76E-09 Convergence criterion met
 Total energy in the final basis set = -1510.11107765
   13   -1510.1832979085      8.31E-09 Convergence criterion met
 Total energy in the final basis set = -1510.18329791
   14   -1510.2220249386      5.34E-09 Convergence criterion met
 Total energy in the final basis set = -1510.22202494
   14   -1510.2398550655      4.63E-09 Convergence criterion met
 Total energy in the final basis set = -1510.23985507
    2   -1510.2398550656      4.08E-09 Convergence criterion met
 Total energy in the final basis set = -1510.23985507
   14   -1510.2462922421      4.53E-09 Convergence criterion met
 Total energy in the final basis set = -1510.24629224
   13   -1510.2488950318      7.78E-09 Convergence criterion met
 Total energy in the final basis set = -1510.24889503
   12   -1510.2503539304      9.49E-09 Convergence criterion met
   10   -1510.2523864008      8.85E-09 Convergence criterion met
 Total energy in the final basis set = -1510.25238640
   10   -1510.2523935478      8.23E-09 Convergence criterion met
 Total energy in the final basis set = -1510.25239355
    9   -1510.2523983438      7.92E-09 Convergence criterion met
 Total energy in the final basis set = -1510.25239834
    9   -1510.2524025719      7.66E-09 Convergence criterion met
 Total energy in the final basis set = -1510.25240257
    9   -1510.2524065414      6.93E-09 Convergence criterion met
 Total energy in the final basis set = -1510.25240654
    9   -1510.2524086178      4.84E-09 Convergence criterion met
 Total energy in the final basis set = -1510.25240862

             Standard Nuclear Orientation (Angstroms)
    I     Atom           X                Y                Z
 ----------------------------------------------------------------
    1      O      -5.4829733638     2.0008913651     1.7249751544
    2      C      -4.9123899107     1.5893937299     0.6917732174
    3      C      -5.1805190224     0.2275859046    -0.0423630882
    4      C      -4.0166583219    -0.3497679584    -0.9331049652
    5      C      -2.5948717942     0.0518490242    -0.3933950033
    6      O      -1.6114423406    -0.5732320980    -1.2308464403
    7      C      -0.2530742312    -0.1123815112    -0.8597320436
    8      C       0.5340656317    -1.2536965888    -0.0848911401
    9      O       1.6564391651    -1.7911700036    -0.8908612318
   10      C       2.9268700796    -1.3263621278    -0.3499030428
   11      C       3.2413343152     0.1879385760    -0.6457273991
   12      C       4.1339706753     0.9082552091     0.4518210312
   13      C       4.6604248351    -0.0627399405     1.5724709382
   14      O       4.1502834234    -0.2243450355     2.7035049219
   15      O      -4.1392139212     2.4315788403    -0.1760984085
   16      O       5.8802976114    -0.6705680618     1.1444781967
   17      O       3.7255688833    -2.1410889575     0.1568958786
   18      C       6.3380494251    -1.6469543360     2.1583872069
   19      C       4.1388070382     0.3814880011    -1.9494047917
   20      C       3.9427038231     1.8717836192    -2.4353636506
   21      C       4.7582753645     2.6523861721    -1.3383165569
   22      C       5.3112621228     1.4620705853    -0.4566741516
   23      O       5.5232984913     0.3687041615    -1.4354295001
   24      H       2.2845890424     0.7221194157    -0.7688493558
   25      H       3.5680485133     1.7168526871     0.9473262949
   26      H       4.0007974484    -0.3946013096    -2.7273018436
   27      H       4.3801232460     2.0077701598    -3.4374100864
   28      H       2.8812767227     2.1650212965    -2.4697877548
   29      H       5.5896853486     3.2223178301    -1.7823826058
   30      H       4.1297106671     3.3428057920    -0.7531356511
   31      H       6.2493385521     1.6760909128     0.0901321712
   32      O      -2.3166500603     0.7295549039     0.6192886990
   33      C      -3.9439396290     3.7569047330     0.4511639817
   34      C      -5.5271610532    -1.0177026626     0.8831852911
   35      C      -6.5323124300    -1.9187581786     0.0697180222
   36      C      -5.5868185288    -2.4323938759    -1.0813464603
   37      C      -4.1794757217    -1.8977728952    -0.5965062564
   38      O      -4.2953133906    -1.8440449064     0.8833333180
   39      H      -6.0491495588     0.4318809346    -0.6979735924
   40      H      -4.1120137375    -0.1054151980    -2.0054542790
   41      H      -3.3081412975     3.6835862585     1.3571983425
   42      H      -5.8301586955    -0.7555812597     1.9156465413
   43      H      -6.8898767027    -2.7525554014     0.6950424174
   44      H      -7.4017858780    -1.3554798378    -0.3049663584
   45      H      -5.5822560129    -3.5317311504    -1.1476154329
   46      H      -5.8598026595    -2.0217842166    -2.0668296766
   47      H      -3.3098015421    -2.5134500885    -0.8981345418
   48      H      -4.9097882466     4.2226314208     0.7347979966
   49      H      -3.4357229719     4.3824061222    -0.3055897762
   50      H       7.3161314938    -2.0193144499     1.8025040655
   51      H       5.6270877402    -2.4939895027     2.2430184918
   52      H       6.4550492364    -1.1777477296     3.1566777958
   53      H       0.8644744175    -0.8828442693     0.9076423213
   54      H      -0.1694690992    -2.0985891124     0.0831620706
   55      H      -0.3362699552     0.7980359327    -0.2294564578
   56      H       0.2780670105     0.1183576279    -1.8066560300
 ----------------------------------------------------------------

    9   -1510.2524089562      4.80E-09 Convergence criterion met
 Total energy in the final basis set = -1510.25240896
 Final energy is   -1510.25240895617
 **  OPTIMIZATION CONVERGED  **

                    Orbital Energies (a.u.)
 --------------------------------------------------------------

 Alpha MOs
 -- Occupied --
-18.936 -18.929 -18.928 -18.908 -18.906 -18.893 -18.887 -18.883
-18.870 -18.865 -10.111 -10.105 -10.098 -10.094 -10.075 -10.072
-10.067 -10.062 -10.062 -10.061 -10.060 -10.055 -10.043 -10.041
-10.039 -10.037 -10.025 -10.023 -10.023 -10.021  -1.019  -1.012
 -1.006  -1.002  -0.974  -0.972  -0.945  -0.938  -0.931  -0.929
 -0.766  -0.766  -0.728  -0.725  -0.713  -0.709  -0.698  -0.660
 -0.654  -0.617  -0.602  -0.584  -0.551  -0.547  -0.541  -0.539
 -0.517  -0.512  -0.489  -0.478  -0.467  -0.460  -0.456  -0.443
 -0.438  -0.433  -0.420  -0.415  -0.412  -0.407  -0.406  -0.402
 -0.397  -0.389  -0.375  -0.367  -0.365  -0.360  -0.355  -0.346
 -0.344  -0.342  -0.338  -0.334  -0.333  -0.329  -0.324  -0.316
 -0.313  -0.311  -0.309  -0.303  -0.301  -0.285  -0.284  -0.281
 -0.273  -0.256  -0.249  -0.247  -0.243  -0.237  -0.236  -0.187
 -0.174  -0.171  -0.163  -0.159  -0.156  -0.150  -0.148  -0.146
 -0.144

          Ground-State Mulliken Net Atomic Charges

     Atom                 Charge (a.u.)
  ----------------------------------------
      1 O                    -0.215623
      2 C                     0.215315
      3 C                    -0.080214
      4 C                    -0.074831
      5 C                     0.217521
      6 O                    -0.174985
      7 C                    -0.057559
      8 C                    -0.051267
      9 O                    -0.191985
     10 C                     0.217949
     11 C                    -0.084629
     12 C                    -0.080953
     13 C                     0.208531
     14 O                    -0.219809
     15 O                    -0.172890
     16 O                    -0.161915
     17 O                    -0.175187
     18 C                    -0.126570
     19 C                     0.025966
     20 C                    -0.142822
     21 C                    -0.144935
     22 C                     0.027284
     23 O                    -0.181942
     24 H                     0.076845
     25 H                     0.083198
     26 H                     0.085763
     27 H                     0.079298
     28 H                     0.072127
     29 H                     0.078882
     30 H                     0.073458
     31 H                     0.087792
     32 O                    -0.209922
     33 C                    -0.128024
     34 C                     0.023811
     35 C                    -0.141368
     36 C                    -0.145455
     37 C                     0.023250
     38 O                    -0.192435
     39 H                     0.083622
     40 H                     0.088757
     41 H                     0.090264
     42 H                     0.090985
     43 H                     0.078745
     44 H                     0.073854
     45 H                     0.079149
     46 H                     0.073801
     47 H                     0.086408
     48 H                     0.089165
     49 H                     0.087219
     50 H                     0.090362
     51 H                     0.093414
     52 H                     0.087329
     53 H                     0.087497
     54 H                     0.094729
     55 H                     0.095480
     56 H                     0.087545
  ----------------------------------------
  Sum of atomic charges =     0.000000

                    Cartesian Multipole Moments
 -----------------------------------------------------------------
    Charge (ESU x 10^10)
                -0.0000
    Dipole Moment (Debye)
         X      -1.2205      Y       2.3352      Z      -2.6736
       Tot       3.7538
    Quadrupole Moments (Debye-Ang)
        XX    -156.6139     XY      11.1767     YY    -156.0372
        XZ      12.0026     YZ      -3.5685     ZZ    -165.2931

 Total job time:  58.28s(wall), 2768.16s(cpu)
        *  Thank you very much for using Q-Chem.  Have a nice day.  *
