 Q-Chem 5.0, Q-Chem, Inc., Pleasanton, CA (2017)
 Q-Chem 5.0.1 for Intel X86 EM64T Linux

User input:
--------------------------------------------------------------
$molecule
0  1
O -3.94934 -3.66094 2.70899
C -3.26408 -4.56952 2.26188
C -3.36658 -6.02376 2.66595
C -2.06531 -6.84251 2.67996
C -0.78177 -6.07272 2.46079
O 0.28705 -6.83692 2.8337
C 1.36228 -6.80034 1.88935
C 2.51075 -5.9567 2.43288
O 2.00874 -4.99491 3.37406
C 2.82888 -4.71752 4.41789
C 3.08505 -5.9165 5.29964
C 4.04405 -5.66455 6.47229
C 4.31703 -4.21077 6.80203
O 4.5856 -3.33796 5.98925
O -2.74944 -4.37268 1.01554
O 4.14483 -3.82362 8.09649
O 2.52306 -3.65366 4.9303
C 4.30529 -2.53332 8.5573
C 1.83163 -6.39871 6.07403
C 1.9687 -7.8855 6.39162
C 3.10061 -7.84922 7.4008
C 3.23711 -6.33225 7.60693
O 1.9474 -5.8309 7.357
H 3.48218 -6.78674 4.75571
H 5.03879 -6.12268 6.27698
H 0.87462 -6.20512 5.54236
H 1.03002 -8.18054 6.91421
H 2.12788 -8.56377 5.5258
H 2.76026 -8.36692 8.32465
H 4.06291 -8.2809 7.04931
H 3.65709 -6.12841 8.61551
O -0.64018 -4.90279 2.14145
C -2.72133 -3.15948 0.35777
C -3.82703 -6.17961 4.12863
C -4.44024 -7.56273 4.34063
C -3.19992 -8.42563 4.30543
C -2.11932 -7.35258 4.14352
O -2.62784 -6.2522 4.85458
H -4.12503 -6.47464 1.9873
H -2.06801 -7.69004 1.95928
H -2.1345 -2.42117 0.9452
H -4.54852 -5.39897 4.45428
H -4.86199 -7.5919 5.37091
H -5.23173 -7.83566 3.60985
H -3.09189 -8.92306 5.29538
H -3.16906 -9.18588 3.49527
H -1.15332 -7.75731 4.51492
H -3.7544 -2.78143 0.20246
H -2.2384 -3.29389 -0.63172
H 4.10388 -2.50912 9.64785
H 3.59106 -1.8528 8.04635
H 5.34652 -2.18991 8.37777
H 3.29008 -6.63614 2.80115
H 3.01509 -5.44058 1.58716
H 1.03909 -6.30796 0.93911
H 1.6889 -7.81807 1.58749
$end

$opt
CONSTRAINT
tors           1           2           3           4    -146.124
tors           3           4           5           6    +164.514
tors           4           5           6           7    +135.081
tors           5           6           7           8    +106.250
tors           6           7           8           9     -25.718
tors           7           8           9          10    +145.120
tors           8           9          10          11     -63.127
tors           9          10          11          12    +178.178
tors          11          12          13          14     -46.347
ENDCONSTRAINT
$end

$rem
JOBTYPE                   OPT
METHOD                    B3LYP
DFT_D                     d3_op
BASIS                     STO-3G
GEOM_OPT_MAX_CYCLES       100
GEOM_OPT_TOL_GRADIENT     300
GEOM_OPT_TOL_DISPLACEMENT 1200
GEOM_OPT_TOL_ENERGY       100
SYMMETRY                  False
THRESH                    12
SCF_CONVERGENCE           8
MAX_SUB_FILE_NUM          128
MEM_STATIC                400
MEM_TOTAL                 4000
$end
--------------------------------------------------------------

   16   -1510.0793679186      3.36E-09 Convergence criterion met
 Total energy in the final basis set = -1510.07936792
   14   -1510.1552816887      4.89E-09 Convergence criterion met
 Total energy in the final basis set = -1510.15528169
   13   -1510.1964964479      8.11E-09 Convergence criterion met
 Total energy in the final basis set = -1510.19649645
   14   -1510.2174246020      3.70E-09 Convergence criterion met
 Total energy in the final basis set = -1510.21742460
   14   -1510.2270828466      4.66E-09 Convergence criterion met
 Total energy in the final basis set = -1510.22708285
   14   -1510.2316820734      3.84E-09 Convergence criterion met
 Total energy in the final basis set = -1510.23168207
    2   -1510.2316820734      1.92E-09 Convergence criterion met
 Total energy in the final basis set = -1510.23168207
   13   -1510.2343788781      4.36E-09 Convergence criterion met
   11   -1510.2423708110      9.03E-09 Convergence criterion met
 Total energy in the final basis set = -1510.24237081
   10   -1510.2424148136      7.86E-09 Convergence criterion met
 Total energy in the final basis set = -1510.24241481
   11   -1510.2424701893      8.28E-09 Convergence criterion met
 Total energy in the final basis set = -1510.24247019
   10   -1510.2424857335      6.01E-09 Convergence criterion met
 Total energy in the final basis set = -1510.24248573
    9   -1510.2424920219      9.31E-09 Convergence criterion met
 Total energy in the final basis set = -1510.24249202
    9   -1510.2424940912      6.87E-09 Convergence criterion met
 Total energy in the final basis set = -1510.24249409

             Standard Nuclear Orientation (Angstroms)
    I     Atom           X                Y                Z
 ----------------------------------------------------------------
    1      O      -4.8630004892     1.3477905373     2.1037393378
    2      C      -4.6087517993     1.0465671469     0.9178501951
    3      C      -4.3616132704    -0.3953023441     0.3462879871
    4      C      -3.3234812052    -0.5272721289    -0.8333520058
    5      C      -2.2056211644     0.5854032801    -0.8147234085
    6      O      -1.1359667987     0.1582028220    -1.6868606037
    7      C      -0.6785808538     1.2662809696    -2.5568273863
    8      C       0.7299340678     1.7907342099    -2.0498278417
    9      O       0.8041503393     1.4709461243    -0.6093832947
   10      C       2.1343627383     1.1192090431    -0.1652666430
   11      C       2.7135485519    -0.1906428250    -0.8361412724
   12      C       4.1834060518    -0.5375732739    -0.3766451943
   13      C       4.9865754980     0.6936190128     0.1852271944
   14      O       5.0594309150     1.8302671520    -0.3305662183
   15      O      -4.7964720823     1.9375716272    -0.1912759928
   16      O       5.6705617953     0.3134689365     1.3825101440
   17      O       2.5919811141     1.6438727921     0.8713076513
   18      C       6.4060058306     1.4760209975     1.9301107806
   19      C       1.9135261634    -1.3948276522    -0.1678840018
   20      C       2.3045172124    -2.7513967927    -0.8776953929
   21      C       3.7118368183    -3.0424793931    -0.2346782447
   22      C       3.9175186242    -1.7380331861     0.6317132331
   23      O       2.5577824938    -1.4824691649     1.1633105087
   24      H       2.6109450126    -0.1762707051    -1.9327034892
   25      H       4.7557522610    -0.9075112444    -1.2483762587
   26      H       0.8252451784    -1.2071446133    -0.0709924089
   27      H       1.5735945958    -3.5383072612    -0.6329385947
   28      H       2.3523822204    -2.6430298634    -1.9732438189
   29      H       3.6793267832    -3.9316759089     0.4149654353
   30      H       4.5061938981    -3.1802857174    -0.9853471188
   31      H       4.6526905767    -1.8114739901     1.4554769171
   32      O      -2.2029595816     1.6684093493    -0.1967680738
   33      C      -5.0926320865     3.3002951169     0.3019040885
   34      C      -3.8124732501    -1.4721839696     1.3769916298
   35      C      -4.4029554608    -2.8658218621     0.9362444134
   36      C      -3.6289234346    -3.0886867634    -0.4181843266
   37      C      -2.6093263180    -1.8802307811    -0.4007347077
   38      O      -2.3753945833    -1.6179860045     1.0418637581
   39      H      -5.3516689832    -0.7241860344    -0.0247093529
   40      H      -3.7927325958    -0.5604109761    -1.8329812508
   41      H      -4.2214235469     3.7323333476     0.8355801943
   42      H      -3.9452673051    -1.1976550601     2.4417075878
   43      H      -4.1461638642    -3.6414309900     1.6757199351
   44      H      -5.4968828036    -2.8431093822     0.8083124814
   45      H      -3.0908960330    -4.0496042644    -0.4279873637
   46      H      -4.2933117212    -3.0497640730    -1.2965398283
   47      H      -1.6503119968    -2.0607316455    -0.9241381465
   48      H      -5.9663028835     3.3084971939     0.9853627732
   49      H      -5.3141470813     3.9092925611    -0.5938350796
   50      H       6.9062177260     1.1154358331     2.8476803058
   51      H       5.7161821905     2.3067377243     2.1834807167
   52      H       7.1657546775     1.8535694297     1.2153610757
   53      H       1.5437876116     1.3150450683    -2.6332429987
   54      H       0.8033036186     2.8923167280    -2.1930788898
   55      H      -1.4110170267     2.0992327073    -2.5595246595
   56      H      -0.5866423138     0.8573239029    -3.5852423973
 ----------------------------------------------------------------

    9   -1510.2424945526      4.67E-09 Convergence criterion met
 Total energy in the final basis set = -1510.24249455
 Final energy is   -1510.24249455259
 **  OPTIMIZATION CONVERGED  **

                    Orbital Energies (a.u.)
 --------------------------------------------------------------

 Alpha MOs
 -- Occupied --
-18.928 -18.923 -18.918 -18.913 -18.893 -18.889 -18.884 -18.883
-18.867 -18.862 -10.104 -10.099 -10.094 -10.093 -10.078 -10.074
-10.058 -10.057 -10.056 -10.056 -10.056 -10.053 -10.040 -10.034
-10.034 -10.032 -10.021 -10.019 -10.018 -10.017  -1.013  -1.005
 -1.001  -0.997  -0.968  -0.965  -0.944  -0.931  -0.927  -0.926
 -0.762  -0.759  -0.725  -0.718  -0.712  -0.702  -0.696  -0.655
 -0.654  -0.610  -0.597  -0.584  -0.544  -0.541  -0.537  -0.534
 -0.513  -0.508  -0.482  -0.476  -0.458  -0.457  -0.455  -0.451
 -0.432  -0.430  -0.423  -0.409  -0.404  -0.404  -0.401  -0.399
 -0.393  -0.383  -0.378  -0.366  -0.366  -0.353  -0.347  -0.342
 -0.339  -0.338  -0.333  -0.331  -0.325  -0.322  -0.315  -0.312
 -0.309  -0.306  -0.304  -0.298  -0.294  -0.282  -0.279  -0.272
 -0.271  -0.251  -0.246  -0.243  -0.234  -0.231  -0.227  -0.174
 -0.169  -0.168  -0.163  -0.153  -0.151  -0.146  -0.143  -0.142
 -0.137

          Ground-State Mulliken Net Atomic Charges

     Atom                 Charge (a.u.)
  ----------------------------------------
      1 O                    -0.214287
      2 C                     0.215384
      3 C                    -0.081106
      4 C                    -0.075101
      5 C                     0.224793
      6 O                    -0.187544
      7 C                    -0.046593
      8 C                    -0.045056
      9 O                    -0.179345
     10 C                     0.220742
     11 C                    -0.081653
     12 C                    -0.080668
     13 C                     0.214566
     14 O                    -0.219804
     15 O                    -0.173064
     16 O                    -0.169800
     17 O                    -0.179950
     18 C                    -0.127198
     19 C                     0.023047
     20 C                    -0.144913
     21 C                    -0.142991
     22 C                     0.023658
     23 O                    -0.187413
     24 H                     0.076157
     25 H                     0.080090
     26 H                     0.092065
     27 H                     0.078003
     28 H                     0.070810
     29 H                     0.077857
     30 H                     0.071600
     31 H                     0.093750
     32 O                    -0.186181
     33 C                    -0.127828
     34 C                     0.023331
     35 C                    -0.141549
     36 C                    -0.145784
     37 C                     0.022794
     38 O                    -0.191190
     39 H                     0.082468
     40 H                     0.085582
     41 H                     0.092651
     42 H                     0.091837
     43 H                     0.078414
     44 H                     0.073075
     45 H                     0.077582
     46 H                     0.072362
     47 H                     0.086815
     48 H                     0.087908
     49 H                     0.086534
     50 H                     0.089236
     51 H                     0.094512
     52 H                     0.086614
     53 H                     0.077616
     54 H                     0.084250
     55 H                     0.089165
     56 H                     0.083750
  ----------------------------------------
  Sum of atomic charges =     0.000000

                    Cartesian Multipole Moments
 -----------------------------------------------------------------
    Charge (ESU x 10^10)
                 0.0000
    Dipole Moment (Debye)
         X      -0.6596      Y      -2.1222      Z      -5.0154
       Tot       5.4857
    Quadrupole Moments (Debye-Ang)
        XX    -143.6789     XY      -2.2188     YY    -155.2453
        XZ       5.5253     YZ      -1.6925     ZZ    -157.2371

 Total job time:  65.18s(wall), 3105.17s(cpu)
        *  Thank you very much for using Q-Chem.  Have a nice day.  *
