 Q-Chem 5.0, Q-Chem, Inc., Pleasanton, CA (2017)
 Q-Chem 5.0.1 for Intel X86 EM64T Linux

User input:
--------------------------------------------------------------
$molecule
0  1
O -4.8630004892 1.3477905373 2.1037393378
C -4.6087517993 1.0465671469 0.9178501951
C -4.3616132704 -0.3953023441 0.3462879871
C -3.3234812052 -0.5272721289 -0.8333520058
C -2.2056211644 0.5854032801 -0.8147234085
O -1.1359667987 0.158202822 -1.6868606037
C -0.6785808538 1.2662809696 -2.5568273863
C 0.7299340678 1.7907342099 -2.0498278417
O 0.8041503393 1.4709461243 -0.6093832947
C 2.1343627383 1.1192090431 -0.165266643
C 2.7135485519 -0.190642825 -0.8361412724
C 4.1834060518 -0.5375732739 -0.3766451943
C 4.986575498 0.6936190128 0.1852271944
O 5.059430915 1.830267152 -0.3305662183
O -4.7964720823 1.9375716272 -0.1912759928
O 5.6705617953 0.3134689365 1.382510144
O 2.5919811141 1.6438727921 0.8713076513
C 6.4060058306 1.4760209975 1.9301107806
C 1.9135261634 -1.3948276522 -0.1678840018
C 2.3045172124 -2.7513967927 -0.8776953929
C 3.7118368183 -3.0424793931 -0.2346782447
C 3.9175186242 -1.7380331861 0.6317132331
O 2.5577824938 -1.4824691649 1.1633105087
H 2.6109450126 -0.1762707051 -1.9327034892
H 4.755752261 -0.9075112444 -1.2483762587
H 0.8252451784 -1.2071446133 -0.0709924089
H 1.5735945958 -3.5383072612 -0.6329385947
H 2.3523822204 -2.6430298634 -1.9732438189
H 3.6793267832 -3.9316759089 0.4149654353
H 4.5061938981 -3.1802857174 -0.9853471188
H 4.6526905767 -1.8114739901 1.4554769171
O -2.2029595816 1.6684093493 -0.1967680738
C -5.0926320865 3.3002951169 0.3019040885
C -3.8124732501 -1.4721839696 1.3769916298
C -4.4029554608 -2.8658218621 0.9362444134
C -3.6289234346 -3.0886867634 -0.4181843266
C -2.609326318 -1.8802307811 -0.4007347077
O -2.3753945833 -1.6179860045 1.0418637581
H -5.3516689832 -0.7241860344 -0.0247093529
H -3.7927325958 -0.5604109761 -1.8329812508
H -4.2214235469 3.7323333476 0.8355801943
H -3.9452673051 -1.1976550601 2.4417075878
H -4.1461638642 -3.64143099 1.6757199351
H -5.4968828036 -2.8431093822 0.8083124814
H -3.090896033 -4.0496042644 -0.4279873637
H -4.2933117212 -3.049764073 -1.2965398283
H -1.6503119968 -2.0607316455 -0.9241381465
H -5.9663028835 3.3084971939 0.9853627732
H -5.3141470813 3.9092925611 -0.5938350796
H 6.906217726 1.1154358331 2.8476803058
H 5.7161821905 2.3067377243 2.1834807167
H 7.1657546775 1.8535694297 1.2153610757
H 1.5437876116 1.3150450683 -2.6332429987
H 0.8033036186 2.892316728 -2.1930788898
H -1.4110170267 2.0992327073 -2.5595246595
H -0.5866423138 0.8573239029 -3.5852423973
$end

$rem
JOBTYPE                   OPT
METHOD                    B3LYP
DFT_D                     d3_op
BASIS                     STO-3G
GEOM_OPT_MAX_CYCLES       100
GEOM_OPT_TOL_GRADIENT     300
GEOM_OPT_TOL_DISPLACEMENT 1200
GEOM_OPT_TOL_ENERGY       100
SYMMETRY                  False
THRESH                    12
SCF_CONVERGENCE           8
MAX_SUB_FILE_NUM          128
MEM_STATIC                400
MEM_TOTAL                 4000
$end
--------------------------------------------------------------

   16   -1510.2423153390      5.33E-09 Convergence criterion met
 Total energy in the final basis set = -1510.24231534
   14   -1510.2483201804      2.30E-09 Convergence criterion met
 Total energy in the final basis set = -1510.24832018
   14   -1510.2524220760      2.79E-09 Convergence criterion met
 Total energy in the final basis set = -1510.25242208
   13   -1510.2565026619      3.70E-09 Convergence criterion met
 Total energy in the final basis set = -1510.25650266
   13   -1510.2597913255      6.63E-09 Convergence criterion met
 Total energy in the final basis set = -1510.25979133
   14   -1510.2629245790      2.57E-09 Convergence criterion met
 Total energy in the final basis set = -1510.26292458
   13   -1510.2652403922      8.20E-09 Convergence criterion met
 Total energy in the final basis set = -1510.26524039
   13   -1510.2677133411      6.90E-09 Convergence criterion met
   12   -1510.2931289318      3.88E-09 Convergence criterion met
 Total energy in the final basis set = -1510.29312893
   10   -1510.2931533898      8.71E-09 Convergence criterion met
 Total energy in the final basis set = -1510.29315339
   11   -1510.2931727408      6.64E-09 Convergence criterion met
 Total energy in the final basis set = -1510.29317274
   11   -1510.2931889724      7.74E-09 Convergence criterion met
 Total energy in the final basis set = -1510.29318897
   11   -1510.2932067856      4.90E-09 Convergence criterion met
 Total energy in the final basis set = -1510.29320679
    9   -1510.2932126999      7.32E-09 Convergence criterion met
 Total energy in the final basis set = -1510.29321270

             Standard Nuclear Orientation (Angstroms)
    I     Atom           X                Y                Z
 ----------------------------------------------------------------
    1      O      -0.4835562910     0.9003025358     1.1234095233
    2      C      -1.6502599037     0.7811587988     0.6956477253
    3      C      -2.5174313330    -0.5264304991     0.6229981611
    4      C      -3.2977079558    -0.6960581470    -0.7458111713
    5      C      -2.8510829242     0.3360257373    -1.8348356233
    6      O      -1.4080068035     0.3531117869    -1.9149351971
    7      C      -0.9766115993     1.3568731203    -2.9158464580
    8      C       0.5504855817     1.6318569928    -2.7077681755
    9      O       0.7712550984     2.2918481318    -1.4012401468
   10      C       1.7214412074     1.6924509834    -0.4929574810
   11      C       2.2962532566     0.2610620999    -0.8011714575
   12      C       3.3138222910    -0.2464708639     0.3059822853
   13      C       3.4916872510     0.7221898986     1.5376232611
   14      O       4.4663151642     1.4778824100     1.7455275862
   15      O      -2.4473019696     1.8663754522     0.2053892094
   16      O       2.4266015842     0.4892782380     2.4670132115
   17      O       2.0100718326     2.3779725439     0.5121684124
   18      C       2.5194722068     1.4532250938     3.5837008239
   19      C       1.1835945340    -0.8804032964    -0.7439581796
   20      C       1.7479604393    -2.1472539900    -1.4922105655
   21      C       2.8185470159    -2.6609050833    -0.4595613144
   22      C       2.6357387147    -1.6199489972     0.7170845868
   23      O       1.1929168084    -1.2959731842     0.6741665386
   24      H       2.7990678459     0.2768464642    -1.7844948691
   25      H       4.3143054969    -0.3964510464    -0.1370015481
   26      H       0.1609293644    -0.5758026218    -1.0563364490
   27      H       0.9336694857    -2.8760419522    -1.6331016634
   28      H       2.1831959975    -1.9000284562    -2.4737045855
   29      H       2.5883217205    -3.6801708153    -0.1109719577
   30      H       3.8427394452    -2.6508155193    -0.8660596323
   31      H       2.9204755207    -1.9881816387     1.7213043271
   32      O      -3.5832176276     1.0241912539    -2.5759253676
   33      C      -1.6376650756     3.1103730138     0.1696915954
   34      C      -1.6529549520    -1.8583395805     0.6594985709
   35      C      -2.5964933955    -3.0261375666     1.1346452513
   36      C      -3.5247831311    -3.1928480652    -0.1290625768
   37      C      -2.8618810232    -2.1722102462    -1.1407178790
   38      O      -1.4329306929    -2.1865837494    -0.7719514974
   39      H      -3.2331289460    -0.5024803387     1.4656766894
   40      H      -4.3901519486    -0.5983252183    -0.6209647371
   41      H      -0.7045939767     2.9569187218    -0.4228746220
   42      H      -0.6600043605    -1.7531438685     1.1510706325
   43      H      -2.0110136068    -3.9402270867     1.3239253015
   44      H      -3.1595466878    -2.7716538435     2.0467171376
   45      H      -3.4835791726    -4.2169923056    -0.5328537598
   46      H      -4.5762436628    -2.9391565210     0.0813662667
   47      H      -2.9942607840    -2.4193069145    -2.2122436253
   48      H      -1.3687222143     3.4424005037     1.1926306019
   49      H      -2.2800492809     3.8726512631    -0.3073115387
   50      H       1.6875564430     1.2066214830     4.2686765065
   51      H       2.4050054792     2.4950865563     3.2207927931
   52      H       3.4852913731     1.3687191245     4.1235776849
   53      H       1.1130744224     0.6881461210    -2.8235342694
   54      H       0.8876956183     2.3362059030    -3.5007636461
   55      H      -1.5620034527     2.2944333188    -2.8063098610
   56      H      -1.1365116239     0.9728815782    -3.9485595793
 ----------------------------------------------------------------

    9   -1510.2932126893      5.53E-09 Convergence criterion met
 Total energy in the final basis set = -1510.29321269
 Final energy is   -1510.29321268931
 **  OPTIMIZATION CONVERGED  **

                    Orbital Energies (a.u.)
 --------------------------------------------------------------

 Alpha MOs
 -- Occupied --
-18.944 -18.939 -18.922 -18.911 -18.889 -18.886 -18.883 -18.880
-18.868 -18.847 -10.110 -10.104 -10.091 -10.091 -10.083 -10.081
-10.061 -10.055 -10.046 -10.044 -10.044 -10.039 -10.038 -10.038
-10.031 -10.028 -10.019 -10.015 -10.015 -10.012  -1.020  -1.012
 -0.999  -0.988  -0.969  -0.964  -0.948  -0.938  -0.927  -0.913
 -0.762  -0.758  -0.730  -0.716  -0.714  -0.702  -0.698  -0.648
 -0.643  -0.613  -0.596  -0.586  -0.543  -0.540  -0.536  -0.532
 -0.517  -0.511  -0.487  -0.486  -0.461  -0.455  -0.445  -0.438
 -0.430  -0.428  -0.421  -0.417  -0.409  -0.403  -0.399  -0.396
 -0.391  -0.388  -0.371  -0.364  -0.358  -0.355  -0.348  -0.339
 -0.336  -0.333  -0.332  -0.328  -0.323  -0.321  -0.319  -0.312
 -0.307  -0.303  -0.300  -0.294  -0.293  -0.287  -0.274  -0.273
 -0.267  -0.254  -0.252  -0.240  -0.236  -0.232  -0.222  -0.184
 -0.181  -0.166  -0.158  -0.155  -0.152  -0.144  -0.142  -0.137
 -0.130

          Ground-State Mulliken Net Atomic Charges

     Atom                 Charge (a.u.)
  ----------------------------------------
      1 O                    -0.205459
      2 C                     0.210644
      3 C                    -0.080586
      4 C                    -0.078339
      5 C                     0.217290
      6 O                    -0.177215
      7 C                    -0.047147
      8 C                    -0.047431
      9 O                    -0.173175
     10 C                     0.225587
     11 C                    -0.084984
     12 C                    -0.078898
     13 C                     0.214951
     14 O                    -0.224432
     15 O                    -0.178644
     16 O                    -0.165750
     17 O                    -0.185252
     18 C                    -0.125958
     19 C                     0.014443
     20 C                    -0.145936
     21 C                    -0.145434
     22 C                     0.028525
     23 O                    -0.183328
     24 H                     0.077561
     25 H                     0.080650
     26 H                     0.108966
     27 H                     0.085774
     28 H                     0.065532
     29 H                     0.076295
     30 H                     0.071441
     31 H                     0.085516
     32 O                    -0.211124
     33 C                    -0.145501
     34 C                     0.012787
     35 C                    -0.143479
     36 C                    -0.144365
     37 C                     0.024362
     38 O                    -0.195791
     39 H                     0.083763
     40 H                     0.086946
     41 H                     0.108194
     42 H                     0.114806
     43 H                     0.076898
     44 H                     0.072913
     45 H                     0.076458
     46 H                     0.073144
     47 H                     0.079105
     48 H                     0.083495
     49 H                     0.081458
     50 H                     0.086400
     51 H                     0.092679
     52 H                     0.083054
     53 H                     0.093774
     54 H                     0.089684
     55 H                     0.098514
     56 H                     0.086615
  ----------------------------------------
  Sum of atomic charges =    -0.000000

                    Cartesian Multipole Moments
 -----------------------------------------------------------------
    Charge (ESU x 10^10)
                -0.0000
    Dipole Moment (Debye)
         X      -1.0460      Y      -2.3169      Z      -2.3004
       Tot       3.4284
    Quadrupole Moments (Debye-Ang)
        XX    -165.9689     XY      -2.4861     YY    -159.6024
        XZ     -11.2601     YZ      -2.9300     ZZ    -149.8385

 Total job time:  263.06s(wall), 12545.00s(cpu)
        *  Thank you very much for using Q-Chem.  Have a nice day.  *
