 Q-Chem 5.0, Q-Chem, Inc., Pleasanton, CA (2017)
 Q-Chem 5.0.1 for Intel X86 EM64T Linux

User input:
--------------------------------------------------------------
$molecule
0  1
O -5.1570426888 0.9303877976 0.852408872
C -4.8259913593 0.6208750768 -0.3121723923
C -4.06789971 -0.6705039581 -0.7854636859
C -2.5002505019 -0.6129344969 -0.5463223895
C -2.0329306082 0.7338938176 0.1127459252
O -0.8966924582 0.4806274808 0.9374958343
C -0.3426117459 1.7551720336 1.4572816684
C 0.7810310236 1.3610476822 2.4816570585
O 1.4013467439 0.0920823969 2.0303322267
C 2.7148728142 0.3424658992 1.5038689494
C 3.1098832538 -0.8884777041 0.6226202849
C 3.1260856884 -0.532559017 -0.932550219
C 2.6679477294 0.9379362856 -1.2313883357
O 1.5305689461 1.3009691176 -1.6084306944
O -5.1392980922 1.3971871859 -1.4760874261
O 3.7646713935 1.8278828322 -1.0223987887
O 3.3598030778 1.3946301294 1.7047878151
C 3.3254094155 3.2283860028 -1.2180706885
C 4.6224920869 -1.3228388098 0.8388063039
C 4.8290510327 -2.7467510934 0.1861263636
C 4.8563136063 -2.3778117899 -1.3441127127
C 4.6487394962 -0.8128212804 -1.2841094819
O 5.3724295332 -0.4142162258 -0.0562880925
H 2.4009151643 -1.7071647604 0.836932757
H 2.4465283229 -1.2058601328 -1.4847581327
H 4.9823352986 -1.2218814235 1.8810112136
H 5.7856355595 -3.1837538147 0.5137400372
H 4.015405541 -3.443920761 0.4423329092
H 5.8297287608 -2.618823608 -1.7999770421
H 4.0626790934 -2.881969383 -1.918386335
H 5.0289547408 -0.2499720234 -2.157980952
O -2.5452826146 1.8636349421 -0.0520316456
C -5.7793369063 2.6689064717 -1.071815558
C -4.4495068381 -1.9341588243 0.0993617372
C -3.990321566 -3.2348519006 -0.670802504
C -2.432431007 -3.1810059246 -0.4548605172
C -2.2885154513 -1.8637888557 0.4046411635
O -3.5101789619 -1.8571274756 1.2416909474
H -4.2977194307 -0.8308520187 -1.8534224913
H -1.9480578671 -0.7295569968 -1.4979239627
H -5.0953749907 3.2805079821 -0.4484196379
H -5.4958011872 -1.9407843073 0.4615379937
H -4.4318926095 -4.1325502465 -0.2094211848
H -4.2747211517 -3.2087203779 -1.7348541093
H -2.0739620284 -4.0525145574 0.1155972598
H -1.8712090669 -3.12349508 -1.4011725085
H -1.3801522158 -1.7936856008 1.0333197019
H -6.7160590513 2.4949172592 -0.5032934648
H -6.0093843319 3.2086571978 -2.0088404428
H 4.2328120128 3.8495438274 -1.1068204804
H 2.5787181885 3.5262638298 -0.4535779584
H 2.8837328815 3.3838941459 -2.223610382
H 1.5583645568 2.152708415 2.5486105278
H 0.3417986358 1.1779443493 3.4835007511
H -1.1294950013 2.3702893752 1.9448843655
H 0.0867173104 2.3407800864 0.6141440568
$end

$rem
JOBTYPE                   OPT
METHOD                    B3LYP
DFT_D                     d3_op
BASIS                     STO-3G
GEOM_OPT_MAX_CYCLES       100
GEOM_OPT_TOL_GRADIENT     300
GEOM_OPT_TOL_DISPLACEMENT 1200
GEOM_OPT_TOL_ENERGY       100
SYMMETRY                  False
THRESH                    12
SCF_CONVERGENCE           8
MAX_SUB_FILE_NUM          128
MEM_STATIC                400
MEM_TOTAL                 4000
$end
--------------------------------------------------------------

   16   -1510.2793093893      5.87E-09 Convergence criterion met
 Total energy in the final basis set = -1510.27930939
   14   -1510.2818209423      9.29E-09 Convergence criterion met
 Total energy in the final basis set = -1510.28182094
   15   -1510.2840854693      3.99E-09 Convergence criterion met
 Total energy in the final basis set = -1510.28408547
   15   -1510.2851596228      4.48E-09 Convergence criterion met
 Total energy in the final basis set = -1510.28515962
   14   -1510.2866301970      9.42E-09 Convergence criterion met
 Total energy in the final basis set = -1510.28663020
   15   -1510.2882898944      1.92E-09 Convergence criterion met
 Total energy in the final basis set = -1510.28828989
   15   -1510.2896567412      2.01E-09 Convergence criterion met
 Total energy in the final basis set = -1510.28965674
   14   -1510.2907128151      3.92E-09 Convergence criterion met
   13   -1510.2945626879      2.88E-09 Convergence criterion met
 Total energy in the final basis set = -1510.29456269
   11   -1510.2945718566      6.55E-09 Convergence criterion met
 Total energy in the final basis set = -1510.29457186
   11   -1510.2945878340      4.30E-09 Convergence criterion met
 Total energy in the final basis set = -1510.29458783
   11   -1510.2946032828      4.59E-09 Convergence criterion met
 Total energy in the final basis set = -1510.29460328
   11   -1510.2946171496      8.01E-09 Convergence criterion met
 Total energy in the final basis set = -1510.29461715
    9   -1510.2946216992      6.36E-09 Convergence criterion met
 Total energy in the final basis set = -1510.29462170

             Standard Nuclear Orientation (Angstroms)
    I     Atom           X                Y                Z
 ----------------------------------------------------------------
    1      O      -4.3992510140     1.6716849343    -0.5643238181
    2      C      -3.5492945050     0.9505545745    -1.1285681426
    3      C      -3.3960720184    -0.6119650219    -1.0097446187
    4      C      -2.3989147953    -1.0963707275     0.1200050228
    5      C      -1.6933717270     0.0857571015     0.8582589817
    6      O      -0.9257706112    -0.4315217843     1.9409437308
    7      C      -0.1917765141     0.6609381192     2.6284609604
    8      C       1.0686378511     0.0239414147     3.3014610592
    9      O       1.9205316505    -0.6646857726     2.3053457051
   10      C       2.8246086755     0.2588449423     1.6789689180
   11      C       3.6532878690    -0.5510615609     0.6258815348
   12      C       2.9223959239    -0.7185990112    -0.7784879400
   13      C       1.5345130656     0.0077801982    -0.8845966924
   14      O       0.4082449267    -0.5393882186    -0.9033197959
   15      O      -2.6339824650     1.4173671878    -2.1335335207
   16      O       1.7506502436     1.4123569699    -0.9857921259
   17      O       2.9093591652     1.4695023235     1.9738580673
   18      C       0.4713909790     2.1181935625    -1.2508318417
   19      C       4.9798474730     0.2011948199     0.1887398508
   20      C       5.9385807923    -0.8568023157    -0.4847938603
   21      C       5.2240337083    -1.0713634376    -1.8708346517
   22      C       4.0044615370    -0.0727971769    -1.7454200412
   23      O       4.5486643827     1.0475664213    -0.9465397253
   24      H       3.8689012623    -1.5435910208     1.0603798083
   25      H       2.7499222731    -1.7864507931    -1.0010712353
   26      H       5.4334278879     0.8245008287     0.9833265368
   27      H       6.9481345597    -0.4346888001    -0.6121163030
   28      H       6.0143726429    -1.7852366134     0.1031851094
   29      H       5.8749975598    -0.7825278474    -2.7112714118
   30      H       4.8931593829    -2.1113642054    -2.0220602907
   31      H       3.5967794716     0.2980794797    -2.7054333554
   32      O      -1.7515015182     1.3044389794     0.5631825388
   33      C      -2.7566473986     2.8861852375    -2.2651228082
   34      C      -4.7488774449    -1.2692172668    -0.5039313301
   35      C      -4.6848196859    -2.8247036470    -0.7719903984
   36      C      -3.7051171989    -3.2910212565     0.3679360826
   37      C      -3.3778303891    -1.9143883701     1.0678831254
   38      O      -4.6494055235    -1.1636404320     0.9716279161
   39      H      -3.0847985205    -1.0018728576    -1.9948551017
   40      H      -1.6003516414    -1.7397298045    -0.2928933577
   41      H      -2.4486767564     3.4006076067    -1.3319909002
   42      H      -5.6640486519    -0.7601623308    -0.8628549356
   43      H      -5.6823448963    -3.2779439106    -0.6586036801
   44      H      -4.3040560244    -3.0546498081    -1.7798254293
   45      H      -4.2037490243    -3.9726148154     1.0753595661
   46      H      -2.8004748038    -3.7850983872    -0.0210438208
   47      H      -3.0372258138    -1.9834187488     2.1192120285
   48      H      -3.7950124492     3.1909617795    -2.5081812153
   49      H      -2.0813294743     3.1805248976    -3.0893714556
   50      H       0.7147037420     3.1956605397    -1.2271801702
   51      H      -0.3120370592     1.8840370428    -0.4945578374
   52      H       0.0753486097     1.8496895538    -2.2508439755
   53      H       1.6368516154     0.8238138312     3.8244344720
   54      H       0.7588852545    -0.7550326897     4.0271128063
   55      H      -0.8382782114     1.1282476943     3.4040903509
   56      H       0.1037746057     1.4480711376     1.9029784493
 ----------------------------------------------------------------

    9   -1510.2946217499      8.95E-09 Convergence criterion met
 Total energy in the final basis set = -1510.29462175
 Final energy is   -1510.29462174992
 **  OPTIMIZATION CONVERGED  **

                    Orbital Energies (a.u.)
 --------------------------------------------------------------

 Alpha MOs
 -- Occupied --
-18.944 -18.937 -18.931 -18.917 -18.888 -18.885 -18.883 -18.882
-18.870 -18.855 -10.110 -10.103 -10.097 -10.085 -10.080 -10.078
-10.060 -10.060 -10.057 -10.053 -10.052 -10.043 -10.040 -10.038
-10.034 -10.028 -10.021 -10.020 -10.017 -10.016  -1.023  -1.015
 -1.007  -0.994  -0.970  -0.966  -0.947  -0.939  -0.932  -0.919
 -0.765  -0.758  -0.730  -0.721  -0.714  -0.705  -0.696  -0.654
 -0.650  -0.619  -0.598  -0.580  -0.546  -0.542  -0.537  -0.533
 -0.514  -0.510  -0.482  -0.476  -0.460  -0.455  -0.450  -0.442
 -0.437  -0.432  -0.428  -0.413  -0.411  -0.405  -0.402  -0.398
 -0.396  -0.376  -0.372  -0.367  -0.360  -0.356  -0.353  -0.349
 -0.339  -0.339  -0.332  -0.329  -0.327  -0.325  -0.322  -0.312
 -0.308  -0.307  -0.303  -0.299  -0.297  -0.285  -0.277  -0.271
 -0.270  -0.260  -0.252  -0.245  -0.240  -0.234  -0.230  -0.188
 -0.180  -0.169  -0.162  -0.161  -0.160  -0.149  -0.143  -0.140
 -0.136

          Ground-State Mulliken Net Atomic Charges

     Atom                 Charge (a.u.)
  ----------------------------------------
      1 O                    -0.218881
      2 C                     0.214425
      3 C                    -0.080498
      4 C                    -0.077331
      5 C                     0.229601
      6 O                    -0.167304
      7 C                    -0.050602
      8 C                    -0.048594
      9 O                    -0.171124
     10 C                     0.206790
     11 C                    -0.078308
     12 C                    -0.078267
     13 C                     0.203882
     14 O                    -0.222547
     15 O                    -0.174211
     16 O                    -0.165125
     17 O                    -0.207615
     18 C                    -0.142548
     19 C                     0.025600
     20 C                    -0.143813
     21 C                    -0.144433
     22 C                     0.026985
     23 O                    -0.182825
     24 H                     0.086087
     25 H                     0.084217
     26 H                     0.087075
     27 H                     0.078226
     28 H                     0.072923
     29 H                     0.077999
     30 H                     0.073053
     31 H                     0.084420
     32 O                    -0.215399
     33 C                    -0.128906
     34 C                     0.025258
     35 C                    -0.144353
     36 C                    -0.143360
     37 C                     0.024151
     38 O                    -0.189118
     39 H                     0.085274
     40 H                     0.101235
     41 H                     0.089940
     42 H                     0.086016
     43 H                     0.077045
     44 H                     0.073354
     45 H                     0.077058
     46 H                     0.074248
     47 H                     0.085389
     48 H                     0.086760
     49 H                     0.084011
     50 H                     0.086366
     51 H                     0.104755
     52 H                     0.084259
     53 H                     0.096821
     54 H                     0.093041
     55 H                     0.089078
     56 H                     0.099824
  ----------------------------------------
  Sum of atomic charges =    -0.000000

                    Cartesian Multipole Moments
 -----------------------------------------------------------------
    Charge (ESU x 10^10)
                 0.0000
    Dipole Moment (Debye)
         X       2.0779      Y      -2.8073      Z      -0.3751
       Tot       3.5127
    Quadrupole Moments (Debye-Ang)
        XX    -165.7260     XY      -2.9809     YY    -158.1025
        XZ       5.4580     YZ      -0.6854     ZZ    -149.4251

 Total job time:  88.32s(wall), 4208.04s(cpu)
        *  Thank you very much for using Q-Chem.  Have a nice day.  *
