 Q-Chem 5.0, Q-Chem, Inc., Pleasanton, CA (2017)
 Q-Chem 5.0.1 for Intel X86 EM64T Linux

User input:
--------------------------------------------------------------
$molecule
0  1
O -3.94934 -3.66094 2.70899
C -3.26408 -4.56952 2.26188
C -3.36658 -6.02376 2.66595
C -2.69345 -6.43548 3.98551
C -2.14608 -5.31502 4.84168
O -2.23555 -5.65363 6.16181
C -1.61017 -4.70318 7.0306
C -1.89224 -5.05721 8.48704
O -2.00636 -6.48167 8.63118
C -0.9636 -7.09071 9.24832
C -0.90545 -8.57534 8.97783
C 0.24971 -9.02325 8.07049
C 1.3587 -8.01114 7.86438
O 1.47793 -7.27823 6.8932
O -2.44213 -4.30439 1.21214
O 2.21279 -7.81875 8.90773
O -0.08452 -6.49541 9.85963
C 3.24325 -6.902 8.91642
C -0.666 -9.45738 10.21653
C -1.21313 -10.86062 9.95656
C -0.21977 -11.36726 8.92675
C 0.77914 -10.20296 8.91029
O 0.72161 -9.68962 10.22203
H -1.87981 -8.86414 8.51801
H -0.11098 -9.31662 7.05951
H -1.09917 -9.03296 11.14831
H -1.07431 -11.43825 10.89869
H -2.28028 -10.91484 9.65137
H 0.25263 -12.29356 9.32236
H -0.63843 -11.5531 7.91388
H 1.77846 -10.54552 8.56185
O -1.37051 -4.46903 4.41082
C -2.25734 -3.05153 0.66589
C -4.8188 -6.46604 2.90619
C -4.94204 -7.97508 2.71396
C -4.2179 -8.47276 3.94513
C -3.90915 -7.14397 4.64668
O -4.99116 -6.31723 4.29336
H -2.93202 -6.61177 1.82479
H -1.8481 -7.14024 3.8213
H -1.84932 -2.35745 1.43157
H -5.55128 -5.93457 2.25952
H -6.02143 -8.23274 2.80792
H -4.55497 -8.36076 1.7463
H -4.93325 -9.07342 4.55039
H -3.29724 -9.06444 3.75086
H -3.78777 -7.34478 5.73205
H -3.22015 -2.65745 0.27597
H -1.53491 -3.12327 -0.17281
H 3.77455 -6.96178 9.88825
H 2.84169 -5.87372 8.79081
H 3.96246 -7.1277 8.1003
H -1.17532 -4.54083 9.16353
H -2.89652 -4.65787 8.74324
H -1.92859 -3.65303 6.83799
H -0.51099 -4.78592 6.87315
$end

$opt
CONSTRAINT
tors           1           2           3           4     -79.360
tors           3           4           5           6    +148.240
tors           4           5           6           7    +173.877
tors           5           6           7           8    +173.269
tors           6           7           8           9     +31.843
tors           7           8           9          10    +107.136
tors           8           9          10          11    -161.050
tors           9          10          11          12    +109.318
tors          11          12          13          14     -99.030
ENDCONSTRAINT
$end

$rem
JOBTYPE                   OPT
METHOD                    B3LYP
DFT_D                     d3_op
BASIS                     STO-3G
GEOM_OPT_MAX_CYCLES       100
GEOM_OPT_TOL_GRADIENT     300
GEOM_OPT_TOL_DISPLACEMENT 1200
GEOM_OPT_TOL_ENERGY       100
SYMMETRY                  False
THRESH                    12
SCF_CONVERGENCE           8
MAX_SUB_FILE_NUM          128
MEM_STATIC                400
MEM_TOTAL                 4000
$end
--------------------------------------------------------------

   15   -1510.1465225825      6.95E-09 Convergence criterion met
 Total energy in the final basis set = -1510.14652258
   14   -1510.2155776534      6.04E-09 Convergence criterion met
 Total energy in the final basis set = -1510.21557765
   14   -1510.2526950305      9.17E-09 Convergence criterion met
 Total energy in the final basis set = -1510.25269503
   14   -1510.2693234124      7.75E-09 Convergence criterion met
 Total energy in the final basis set = -1510.26932341
   13   -1510.2752914897      9.20E-09 Convergence criterion met
 Total energy in the final basis set = -1510.27529149
   13   -1510.2774821938      3.85E-09 Convergence criterion met
 Total energy in the final basis set = -1510.27748219
   12   -1510.2780816437      7.50E-09 Convergence criterion met
 Total energy in the final basis set = -1510.27808164
   12   -1510.2783696274      4.26E-09 Convergence criterion met
   11   -1510.2792624684      7.57E-09 Convergence criterion met
 Total energy in the final basis set = -1510.27926247
   11   -1510.2792794686      5.25E-09 Convergence criterion met
 Total energy in the final basis set = -1510.27927947
   10   -1510.2793019423      9.27E-09 Convergence criterion met
 Total energy in the final basis set = -1510.27930194
   11   -1510.2793120356      2.95E-09 Convergence criterion met
 Total energy in the final basis set = -1510.27931204
   10   -1510.2793189762      8.20E-09 Convergence criterion met
 Total energy in the final basis set = -1510.27931898
    9   -1510.2793216316      6.67E-09 Convergence criterion met
 Total energy in the final basis set = -1510.27932163

             Standard Nuclear Orientation (Angstroms)
    I     Atom           X                Y                Z
 ----------------------------------------------------------------
    1      O      -5.1570426888     0.9303877976     0.8524088720
    2      C      -4.8259913593     0.6208750768    -0.3121723923
    3      C      -4.0678997100    -0.6705039581    -0.7854636859
    4      C      -2.5002505019    -0.6129344969    -0.5463223895
    5      C      -2.0329306082     0.7338938176     0.1127459252
    6      O      -0.8966924582     0.4806274808     0.9374958343
    7      C      -0.3426117459     1.7551720336     1.4572816684
    8      C       0.7810310236     1.3610476822     2.4816570585
    9      O       1.4013467439     0.0920823969     2.0303322267
   10      C       2.7148728142     0.3424658992     1.5038689494
   11      C       3.1098832538    -0.8884777041     0.6226202849
   12      C       3.1260856884    -0.5325590170    -0.9325502190
   13      C       2.6679477294     0.9379362856    -1.2313883357
   14      O       1.5305689461     1.3009691176    -1.6084306944
   15      O      -5.1392980922     1.3971871859    -1.4760874261
   16      O       3.7646713935     1.8278828322    -1.0223987887
   17      O       3.3598030778     1.3946301294     1.7047878151
   18      C       3.3254094155     3.2283860028    -1.2180706885
   19      C       4.6224920869    -1.3228388098     0.8388063039
   20      C       4.8290510327    -2.7467510934     0.1861263636
   21      C       4.8563136063    -2.3778117899    -1.3441127127
   22      C       4.6487394962    -0.8128212804    -1.2841094819
   23      O       5.3724295332    -0.4142162258    -0.0562880925
   24      H       2.4009151643    -1.7071647604     0.8369327570
   25      H       2.4465283229    -1.2058601328    -1.4847581327
   26      H       4.9823352986    -1.2218814235     1.8810112136
   27      H       5.7856355595    -3.1837538147     0.5137400372
   28      H       4.0154055410    -3.4439207610     0.4423329092
   29      H       5.8297287608    -2.6188236080    -1.7999770421
   30      H       4.0626790934    -2.8819693830    -1.9183863350
   31      H       5.0289547408    -0.2499720234    -2.1579809520
   32      O      -2.5452826146     1.8636349421    -0.0520316456
   33      C      -5.7793369063     2.6689064717    -1.0718155580
   34      C      -4.4495068381    -1.9341588243     0.0993617372
   35      C      -3.9903215660    -3.2348519006    -0.6708025040
   36      C      -2.4324310070    -3.1810059246    -0.4548605172
   37      C      -2.2885154513    -1.8637888557     0.4046411635
   38      O      -3.5101789619    -1.8571274756     1.2416909474
   39      H      -4.2977194307    -0.8308520187    -1.8534224913
   40      H      -1.9480578671    -0.7295569968    -1.4979239627
   41      H      -5.0953749907     3.2805079821    -0.4484196379
   42      H      -5.4958011872    -1.9407843073     0.4615379937
   43      H      -4.4318926095    -4.1325502465    -0.2094211848
   44      H      -4.2747211517    -3.2087203779    -1.7348541093
   45      H      -2.0739620284    -4.0525145574     0.1155972598
   46      H      -1.8712090669    -3.1234950800    -1.4011725085
   47      H      -1.3801522158    -1.7936856008     1.0333197019
   48      H      -6.7160590513     2.4949172592    -0.5032934648
   49      H      -6.0093843319     3.2086571978    -2.0088404428
   50      H       4.2328120128     3.8495438274    -1.1068204804
   51      H       2.5787181885     3.5262638298    -0.4535779584
   52      H       2.8837328815     3.3838941459    -2.2236103820
   53      H       1.5583645568     2.1527084150     2.5486105278
   54      H       0.3417986358     1.1779443493     3.4835007511
   55      H      -1.1294950013     2.3702893752     1.9448843655
   56      H       0.0867173104     2.3407800864     0.6141440568
 ----------------------------------------------------------------

    9   -1510.2793223007      4.29E-09 Convergence criterion met
 Total energy in the final basis set = -1510.27932230
 Final energy is   -1510.27932230075
 **  OPTIMIZATION CONVERGED  **

                    Orbital Energies (a.u.)
 --------------------------------------------------------------

 Alpha MOs
 -- Occupied --
-18.938 -18.937 -18.934 -18.921 -18.890 -18.883 -18.883 -18.875
-18.874 -18.858 -10.102 -10.100 -10.100 -10.087 -10.075 -10.073
-10.064 -10.062 -10.062 -10.055 -10.054 -10.052 -10.041 -10.040
-10.035 -10.029 -10.023 -10.022 -10.018 -10.017  -1.019  -1.013
 -1.009  -0.996  -0.972  -0.966  -0.944  -0.937  -0.933  -0.922
 -0.766  -0.758  -0.729  -0.721  -0.714  -0.706  -0.695  -0.661
 -0.653  -0.617  -0.596  -0.578  -0.548  -0.542  -0.539  -0.534
 -0.517  -0.507  -0.485  -0.474  -0.460  -0.453  -0.450  -0.445
 -0.442  -0.434  -0.429  -0.415  -0.412  -0.408  -0.402  -0.399
 -0.390  -0.379  -0.374  -0.364  -0.359  -0.355  -0.352  -0.348
 -0.347  -0.341  -0.333  -0.330  -0.328  -0.326  -0.320  -0.310
 -0.308  -0.307  -0.304  -0.300  -0.292  -0.283  -0.280  -0.276
 -0.271  -0.260  -0.253  -0.245  -0.241  -0.236  -0.230  -0.182
 -0.179  -0.171  -0.163  -0.162  -0.154  -0.151  -0.145  -0.140
 -0.139

          Ground-State Mulliken Net Atomic Charges

     Atom                 Charge (a.u.)
  ----------------------------------------
      1 O                    -0.217401
      2 C                     0.211713
      3 C                    -0.081027
      4 C                    -0.077406
      5 C                     0.215698
      6 O                    -0.166191
      7 C                    -0.047783
      8 C                    -0.054298
      9 O                    -0.168218
     10 C                     0.205733
     11 C                    -0.077910
     12 C                    -0.078415
     13 C                     0.203118
     14 O                    -0.219134
     15 O                    -0.170766
     16 O                    -0.159242
     17 O                    -0.206638
     18 C                    -0.126211
     19 C                     0.026252
     20 C                    -0.144096
     21 C                    -0.143926
     22 C                     0.026916
     23 O                    -0.182521
     24 H                     0.088538
     25 H                     0.084351
     26 H                     0.084758
     27 H                     0.078588
     28 H                     0.073864
     29 H                     0.078358
     30 H                     0.073172
     31 H                     0.086278
     32 O                    -0.212529
     33 C                    -0.127975
     34 C                     0.025365
     35 C                    -0.144045
     36 C                    -0.144441
     37 C                     0.022490
     38 O                    -0.188897
     39 H                     0.084141
     40 H                     0.086854
     41 H                     0.092550
     42 H                     0.084252
     43 H                     0.076970
     44 H                     0.072890
     45 H                     0.076484
     46 H                     0.071830
     47 H                     0.093433
     48 H                     0.085876
     49 H                     0.086852
     50 H                     0.094210
     51 H                     0.086499
     52 H                     0.089023
     53 H                     0.101033
     54 H                     0.088923
     55 H                     0.094327
     56 H                     0.087728
  ----------------------------------------
  Sum of atomic charges =    -0.000000

                    Cartesian Multipole Moments
 -----------------------------------------------------------------
    Charge (ESU x 10^10)
                -0.0000
    Dipole Moment (Debye)
         X       0.9575      Y      -1.4952      Z      -1.8175
       Tot       2.5408
    Quadrupole Moments (Debye-Ang)
        XX    -168.8396     XY      -3.7709     YY    -147.9453
        XZ       3.7355     YZ       3.0201     ZZ    -158.7892

 Total job time:  52.37s(wall), 2490.97s(cpu)
        *  Thank you very much for using Q-Chem.  Have a nice day.  *
