 Q-Chem 5.0, Q-Chem, Inc., Pleasanton, CA (2017)
 Q-Chem 5.0.1 for Intel X86 EM64T Linux

User input:
--------------------------------------------------------------
$molecule
0  1
O -4.8229880431 -0.8564144394 1.2190142327
C -4.2905079882 -0.2680217567 0.2524219059
C -3.256419513 -0.8907971867 -0.7526371447
C -2.2537857138 0.0760959262 -1.4949677346
C -1.9218949169 1.3963346318 -0.6912935013
O -0.8170836421 2.0350718624 -1.3472200543
C -0.5422805512 3.3561548756 -0.7362945309
C 0.4659980115 3.3880972977 0.4930890787
O 0.5521924793 2.1257270396 1.2553386651
C 1.7375717179 1.3922699002 0.8748909919
C 1.4425332158 -0.1374543097 0.8891143858
C 2.3852799295 -0.9677518092 -0.0785513174
C 3.3438039059 -0.075987607 -0.948118627
O 3.022502668 0.5472194759 -1.9849411077
O -4.7816468192 0.9594911932 -0.2980708261
O 4.6694697452 -0.1136878582 -0.4118449819
O 2.7943597289 1.9497616512 0.499925657
C 5.5407500455 0.8033161084 -1.1797819004
C 1.7944561673 -0.8174165228 2.2854510913
C 1.1104707543 -2.2426983596 2.2994947659
C 2.0826649009 -3.0544350719 1.3670798345
C 3.113359626 -1.9304404457 0.9516235074
O 3.2396517163 -1.1101413878 2.1773592135
H 0.3743686809 -0.3102440959 0.6519905344
H 1.7630295471 -1.5487176257 -0.7825437867
H 1.5882474425 -0.1856599398 3.1713708864
H 1.0810436082 -2.6557464569 3.3202298945
H 0.0874025842 -2.1983637981 1.8931859844
H 2.5933150749 -3.8622793094 1.9153159792
H 1.5665564403 -3.4865860373 0.4949451876
H 4.1066900154 -2.2903235501 0.6220910218
O -2.4450884105 1.8251021974 0.3576443208
C -5.8373820959 1.5173111947 0.5761832269
C -2.273036499 -1.9847214392 -0.1574764293
C -2.0086824614 -3.0391479208 -1.297648888
C -1.1888319235 -2.1601706312 -2.3171212679
C -0.9584881278 -0.8361387895 -1.4864497167
O -0.9596614133 -1.3005534995 -0.0759882304
H -3.8881460813 -1.3759394843 -1.5216814553
H -2.594042267 0.3396125799 -2.5126778839
H -5.42833376 1.8117896992 1.5640863168
H -2.5719057517 -2.3903134115 0.8289384682
H -1.4020810779 -3.8744951383 -0.9118580532
H -2.9388894868 -3.4431515941 -1.7278480149
H -0.2251376126 -2.6263809757 -2.5758134693
H -1.7454154925 -1.9655162275 -3.2479540618
H -0.0257794189 -0.2860942549 -1.717392102
H -6.6620228831 0.7926785558 0.7360370117
H -6.2231758496 2.4129370427 0.0556277048
H 6.5415262902 0.7357961263 -0.7151642436
H 5.1715768092 1.8474803342 -1.1203546852
H 5.6054164818 0.5107012734 -2.24810004
H 1.4850559412 3.6508810084 0.1352962051
H 0.1212044658 4.1763564113 1.1940653614
H -1.5032031119 3.8071039759 -0.4114809844
H -0.1105326447 3.9707443195 -1.5522792061
$end

$rem
JOBTYPE                   OPT
METHOD                    B3LYP
DFT_D                     d3_op
BASIS                     STO-3G
GEOM_OPT_MAX_CYCLES       100
GEOM_OPT_TOL_GRADIENT     300
GEOM_OPT_TOL_DISPLACEMENT 1200
GEOM_OPT_TOL_ENERGY       100
SYMMETRY                  False
THRESH                    12
SCF_CONVERGENCE           8
MAX_SUB_FILE_NUM          128
MEM_STATIC                400
MEM_TOTAL                 4000
$end
--------------------------------------------------------------

   16   -1510.2749697499      6.45E-09 Convergence criterion met
 Total energy in the final basis set = -1510.27496975
   14   -1510.2772414259      4.49E-09 Convergence criterion met
 Total energy in the final basis set = -1510.27724143
   14   -1510.2845962106      2.87E-09 Convergence criterion met
 Total energy in the final basis set = -1510.28459621
   14   -1510.2872667445      4.41E-09 Convergence criterion met
 Total energy in the final basis set = -1510.28726674
   14   -1510.2898077907      2.44E-09 Convergence criterion met
 Total energy in the final basis set = -1510.28980779
   14   -1510.2904410529      7.42E-09 Convergence criterion met
 Total energy in the final basis set = -1510.29044105
   13   -1510.2939652436      5.77E-09 Convergence criterion met
 Total energy in the final basis set = -1510.29396524
   14   -1510.2931057981      6.52E-09 Convergence criterion met
   13   -1510.3053711076      5.20E-09 Convergence criterion met
 Total energy in the final basis set = -1510.30537111
   13   -1510.3056685090      3.98E-09 Convergence criterion met
 Total energy in the final basis set = -1510.30566851
   12   -1510.3055231881      9.20E-09 Convergence criterion met
 Total energy in the final basis set = -1510.30552319
   12   -1510.3056762163      5.39E-09 Convergence criterion met
 Total energy in the final basis set = -1510.30567622
   11   -1510.3056668724      9.14E-09 Convergence criterion met
 Total energy in the final basis set = -1510.30566687
   11   -1510.3056865715      7.43E-09 Convergence criterion met
 Total energy in the final basis set = -1510.30568657

             Standard Nuclear Orientation (Angstroms)
    I     Atom           X                Y                Z
 ----------------------------------------------------------------
    1      O      -1.8625570824    -0.8700416495     1.2982088241
    2      C      -2.8010207761    -0.6749352382     0.4880962613
    3      C      -2.7579441857    -0.8128333138    -1.0797855525
    4      C      -1.8437502210     0.2890828283    -1.7587008745
    5      C      -1.6535264764     1.5177510652    -0.8049628071
    6      O      -0.7431972100     2.4697669433    -1.3602321627
    7      C      -0.7419126606     3.7061060950    -0.5319134117
    8      C       0.3194932478     3.6232828870     0.6328287444
    9      O       0.2292651175     2.2903534899     1.2701571640
   10      C       1.2592956293     1.4440491657     0.7391772260
   11      C       0.9746491351    -0.0354098413     1.1169505621
   12      C       1.7871011831    -1.0447869347     0.2046965806
   13      C       2.6339267829    -0.3346093342    -0.9095418973
   14      O       2.2098953323     0.0566147901    -2.0294632058
   15      O      -4.1524580241    -0.4285374648     0.8830787912
   16      O       4.0100314097    -0.2845957398    -0.5403989331
   17      O       2.2233224323     1.8759484608     0.0629593037
   18      C       4.7804173385     0.4454405341    -1.5721256111
   19      C       1.5293693333    -0.4228653058     2.5556117862
   20      C       0.8629248137    -1.7987464956     2.9543187106
   21      C       1.6785901464    -2.8003788015     2.0554529130
   22      C       2.6459611139    -1.8098465800     1.2917780781
   23      O       2.9453676249    -0.7695831128     2.3052649477
   24      H      -0.1200804123    -0.2419784457     1.0606012370
   25      H       1.0526864731    -1.7008945077    -0.3069794536
   26      H       1.4493637587     0.3794519337     3.3147320880
   27      H       1.0057684180    -2.0052521383     4.0269752493
   28      H      -0.2148513507    -1.8032295299     2.7227622657
   29      H       2.2563861178    -3.5139313848     2.6645834439
   30      H       1.0363791861    -3.3631480256     1.3595730489
   31      H       3.5831867382    -2.2584305078     0.9111981704
   32      O      -2.3028184392     1.7045226433     0.2522036455
   33      C      -4.2209313396    -0.2483822687     2.3514056232
   34      C      -1.9690710331    -2.1267484018    -1.4754033242
   35      C      -2.0449817123    -2.3369731608    -3.0402245097
   36      C      -0.9775468156    -1.2933899882    -3.5447624377
   37      C      -0.5760957911    -0.5794677539    -2.1950947568
   38      O      -0.5698967103    -1.7154723401    -1.2425592345
   39      H      -3.7924744037    -0.7913980396    -1.4640791233
   40      H      -2.3372960236     0.6840026796    -2.6664842675
   41      H      -3.6188701321     0.6256438498     2.6734351031
   42      H      -2.2220598665    -3.0152838009    -0.8647891275
   43      H      -1.7662024140    -3.3687013430    -3.3068457907
   44      H      -3.0548884216    -2.1330460514    -3.4310186681
   45      H      -0.0995479454    -1.7985021946    -3.9784533864
   46      H      -1.3855623373    -0.5928215005    -4.2906419033
   47      H       0.4429298523    -0.1012124422    -2.1836632458
   48      H      -3.8589497856    -1.1471432340     2.8912219895
   49      H      -5.2865142538    -0.0753292878     2.5892638241
   50      H       5.8326636960     0.4310164714    -1.2335773396
   51      H       4.4299566300     1.4939163596    -1.6608185799
   52      H       4.6996677647    -0.0416242564    -2.5654376014
   53      H       1.3468512190     3.7570774979     0.2315702949
   54      H       0.0968773733     4.3912197825     1.4006879706
   55      H      -1.7531012696     3.8660779825    -0.1031311485
   56      H      -0.4843064300     4.5362997135    -1.2202664045
 ----------------------------------------------------------------

   10   -1510.3056861842      6.51E-09 Convergence criterion met
 Total energy in the final basis set = -1510.30568618
 Final energy is   -1510.30568618415
 **  OPTIMIZATION CONVERGED  **

                    Orbital Energies (a.u.)
 --------------------------------------------------------------

 Alpha MOs
 -- Occupied --
-18.945 -18.932 -18.931 -18.925 -18.887 -18.885 -18.875 -18.869
-18.868 -18.857 -10.107 -10.100 -10.094 -10.089 -10.076 -10.069
-10.061 -10.060 -10.052 -10.043 -10.040 -10.038 -10.037 -10.035
-10.018 -10.012 -10.009 -10.007 -10.002  -9.999  -1.024  -1.009
 -1.005  -0.997  -0.970  -0.952  -0.944  -0.934  -0.931  -0.921
 -0.762  -0.745  -0.722  -0.715  -0.702  -0.697  -0.686  -0.660
 -0.648  -0.615  -0.591  -0.569  -0.543  -0.535  -0.530  -0.520
 -0.508  -0.499  -0.486  -0.474  -0.458  -0.453  -0.448  -0.433
 -0.430  -0.422  -0.414  -0.413  -0.409  -0.405  -0.399  -0.398
 -0.392  -0.379  -0.368  -0.364  -0.359  -0.355  -0.351  -0.347
 -0.343  -0.340  -0.327  -0.322  -0.317  -0.315  -0.312  -0.308
 -0.300  -0.297  -0.294  -0.288  -0.285  -0.278  -0.273  -0.265
 -0.264  -0.255  -0.249  -0.245  -0.236  -0.228  -0.212  -0.195
 -0.174  -0.168  -0.163  -0.159  -0.154  -0.148  -0.143  -0.138
 -0.126

          Ground-State Mulliken Net Atomic Charges

     Atom                 Charge (a.u.)
  ----------------------------------------
      1 O                    -0.226061
      2 C                     0.222733
      3 C                    -0.079896
      4 C                    -0.081581
      5 C                     0.212214
      6 O                    -0.165425
      7 C                    -0.051642
      8 C                    -0.055910
      9 O                    -0.170729
     10 C                     0.209577
     11 C                    -0.094381
     12 C                    -0.095706
     13 C                     0.221003
     14 O                    -0.230039
     15 O                    -0.167366
     16 O                    -0.163357
     17 O                    -0.213117
     18 C                    -0.126170
     19 C                     0.025540
     20 C                    -0.146366
     21 C                    -0.143533
     22 C                     0.023964
     23 O                    -0.192983
     24 H                     0.113988
     25 H                     0.110258
     26 H                     0.078767
     27 H                     0.071085
     28 H                     0.086484
     29 H                     0.072137
     30 H                     0.073754
     31 H                     0.083684
     32 O                    -0.207759
     33 C                    -0.127749
     34 C                     0.026854
     35 C                    -0.145535
     36 C                    -0.142891
     37 C                     0.005260
     38 O                    -0.197185
     39 H                     0.085836
     40 H                     0.085768
     41 H                     0.094618
     42 H                     0.081380
     43 H                     0.076653
     44 H                     0.072318
     45 H                     0.077898
     46 H                     0.071549
     47 H                     0.120547
     48 H                     0.087522
     49 H                     0.088876
     50 H                     0.088415
     51 H                     0.093711
     52 H                     0.086290
     53 H                     0.102039
     54 H                     0.088571
     55 H                     0.095010
     56 H                     0.091079
  ----------------------------------------
  Sum of atomic charges =    -0.000000

                    Cartesian Multipole Moments
 -----------------------------------------------------------------
    Charge (ESU x 10^10)
                -0.0000
    Dipole Moment (Debye)
         X      -2.5939      Y       0.5855      Z      -1.2123
       Tot       2.9225
    Quadrupole Moments (Debye-Ang)
        XX    -157.6048     XY       0.9938     YY    -146.5110
        XZ      -3.2611     YZ       1.2865     ZZ    -156.8343

 Total job time:  119.41s(wall), 5686.84s(cpu)
        *  Thank you very much for using Q-Chem.  Have a nice day.  *
