 Q-Chem 5.0, Q-Chem, Inc., Pleasanton, CA (2017)
 Q-Chem 5.0.1 for Intel X86 EM64T Linux

User input:
--------------------------------------------------------------
$molecule
0  1
O -3.94934 -3.66094 2.70899
C -3.26408 -4.56952 2.26188
C -3.36658 -6.02376 2.66595
C -2.10989 -6.89199 2.49058
C -0.84027 -6.16934 2.09821
O 0.22934 -7.00942 2.2232
C 1.45069 -6.44213 1.73767
C 2.1542 -5.6758 2.853
O 1.19301 -5.23195 3.82356
C 1.11823 -5.97801 4.95358
C -0.28804 -6.09018 5.49256
C -0.55842 -7.34173 6.34038
C 0.66752 -8.09404 6.81767
O 1.33497 -8.86327 6.14139
O -2.80619 -4.37369 0.99103
O 1.06071 -7.94054 8.11653
O 2.11888 -6.18897 5.62678
C 2.15269 -8.55946 8.68936
C -0.55696 -4.96982 6.53095
C -2.06222 -4.71232 6.64611
C -2.49021 -5.94645 7.41297
C -1.13798 -6.62914 7.60606
O -0.25717 -5.54724 7.77012
H -0.93247 -5.82257 4.65762
H -1.26675 -8.107 5.99815
H -0.02644 -4.02099 6.29377
H -2.21469 -3.82085 7.2957
H -2.57383 -4.53883 5.67642
H -2.85914 -5.61299 8.40933
H -3.26859 -6.59314 6.96565
H -1.22039 -7.3133 8.4807
O -0.69684 -4.96048 1.97446
C -2.81071 -3.16442 0.3248
C -3.9368 -6.5163 3.99112
C -4.65441 -7.85491 3.78879
C -3.47148 -8.77508 3.50437
C -2.29377 -7.80269 3.70034
O -2.80844 -6.93833 4.68542
H -4.10798 -6.35144 1.8993
H -2.23141 -7.54528 1.59625
H -2.20213 -2.4205 0.88197
H -4.58765 -5.77171 4.49696
H -5.09969 -8.14145 4.76856
H -5.45224 -7.85675 3.01522
H -3.44902 -9.56328 4.28948
H -3.47124 -9.25144 2.50039
H -1.35991 -8.367 3.89609
H -3.85081 -2.79116 0.21102
H -2.37017 -3.30379 -0.68359
H 2.23011 -8.24966 9.75162
H 3.08253 -8.2596 8.16042
H 2.0337 -9.66313 8.64605
H 2.84625 -6.419 3.31455
H 2.80075 -4.85361 2.48068
H 1.2535 -5.74324 0.89068
H 2.11446 -7.21811 1.30003
$end

$opt
CONSTRAINT
tors           1           2           3           4    -154.543
tors           3           4           5           6    +168.699
tors           4           5           6           7    +173.877
tors           5           6           7           8     +88.907
tors           6           7           8           9     -25.718
tors           7           8           9          10    +100.932
tors           8           9          10          11    -144.138
tors           9          10          11          12    +154.509
tors          11          12          13          14     -78.871
ENDCONSTRAINT
$end

$rem
JOBTYPE                   OPT
METHOD                    B3LYP
DFT_D                     d3_op
BASIS                     STO-3G
GEOM_OPT_MAX_CYCLES       100
GEOM_OPT_TOL_GRADIENT     300
GEOM_OPT_TOL_DISPLACEMENT 1200
GEOM_OPT_TOL_ENERGY       100
SYMMETRY                  False
THRESH                    12
SCF_CONVERGENCE           8
MAX_SUB_FILE_NUM          128
MEM_STATIC                400
MEM_TOTAL                 4000
$end
--------------------------------------------------------------

   15   -1510.0863913184      7.64E-09 Convergence criterion met
 Total energy in the final basis set = -1510.08639132
   14   -1510.1535190693      3.67E-09 Convergence criterion met
 Total energy in the final basis set = -1510.15351907
   14   -1510.2072750573      3.15E-09 Convergence criterion met
 Total energy in the final basis set = -1510.20727506
   13   -1510.2344210095      8.35E-09 Convergence criterion met
 Total energy in the final basis set = -1510.23442101
   13   -1510.2504528154      7.00E-09 Convergence criterion met
 Total energy in the final basis set = -1510.25045282
   13   -1510.2600823458      4.11E-09 Convergence criterion met
 Total energy in the final basis set = -1510.26008235
   13   -1510.2661680081      3.95E-09 Convergence criterion met
 Total energy in the final basis set = -1510.26616801
   12   -1510.2698611843      9.02E-09 Convergence criterion met
    9   -1510.2751207587      9.95E-09 Convergence criterion met
 Total energy in the final basis set = -1510.27512076
    9   -1510.2751232288      6.49E-09 Convergence criterion met
 Total energy in the final basis set = -1510.27512323
    9   -1510.2751343556      8.33E-09 Convergence criterion met
 Total energy in the final basis set = -1510.27513436
    9   -1510.2751373710      9.62E-09 Convergence criterion met
 Total energy in the final basis set = -1510.27513737
    9   -1510.2751399338      6.38E-09 Convergence criterion met
 Total energy in the final basis set = -1510.27513993
    9   -1510.2751414298      4.72E-09 Convergence criterion met
 Total energy in the final basis set = -1510.27514143

             Standard Nuclear Orientation (Angstroms)
    I     Atom           X                Y                Z
 ----------------------------------------------------------------
    1      O      -4.8229880431    -0.8564144394     1.2190142327
    2      C      -4.2905079882    -0.2680217567     0.2524219059
    3      C      -3.2564195130    -0.8907971867    -0.7526371447
    4      C      -2.2537857138     0.0760959262    -1.4949677346
    5      C      -1.9218949169     1.3963346318    -0.6912935013
    6      O      -0.8170836421     2.0350718624    -1.3472200543
    7      C      -0.5422805512     3.3561548756    -0.7362945309
    8      C       0.4659980115     3.3880972977     0.4930890787
    9      O       0.5521924793     2.1257270396     1.2553386651
   10      C       1.7375717179     1.3922699002     0.8748909919
   11      C       1.4425332158    -0.1374543097     0.8891143858
   12      C       2.3852799295    -0.9677518092    -0.0785513174
   13      C       3.3438039059    -0.0759876070    -0.9481186270
   14      O       3.0225026680     0.5472194759    -1.9849411077
   15      O      -4.7816468192     0.9594911932    -0.2980708261
   16      O       4.6694697452    -0.1136878582    -0.4118449819
   17      O       2.7943597289     1.9497616512     0.4999256570
   18      C       5.5407500455     0.8033161084    -1.1797819004
   19      C       1.7944561673    -0.8174165228     2.2854510913
   20      C       1.1104707543    -2.2426983596     2.2994947659
   21      C       2.0826649009    -3.0544350719     1.3670798345
   22      C       3.1133596260    -1.9304404457     0.9516235074
   23      O       3.2396517163    -1.1101413878     2.1773592135
   24      H       0.3743686809    -0.3102440959     0.6519905344
   25      H       1.7630295471    -1.5487176257    -0.7825437867
   26      H       1.5882474425    -0.1856599398     3.1713708864
   27      H       1.0810436082    -2.6557464569     3.3202298945
   28      H       0.0874025842    -2.1983637981     1.8931859844
   29      H       2.5933150749    -3.8622793094     1.9153159792
   30      H       1.5665564403    -3.4865860373     0.4949451876
   31      H       4.1066900154    -2.2903235501     0.6220910218
   32      O      -2.4450884105     1.8251021974     0.3576443208
   33      C      -5.8373820959     1.5173111947     0.5761832269
   34      C      -2.2730364990    -1.9847214392    -0.1574764293
   35      C      -2.0086824614    -3.0391479208    -1.2976488880
   36      C      -1.1888319235    -2.1601706312    -2.3171212679
   37      C      -0.9584881278    -0.8361387895    -1.4864497167
   38      O      -0.9596614133    -1.3005534995    -0.0759882304
   39      H      -3.8881460813    -1.3759394843    -1.5216814553
   40      H      -2.5940422670     0.3396125799    -2.5126778839
   41      H      -5.4283337600     1.8117896992     1.5640863168
   42      H      -2.5719057517    -2.3903134115     0.8289384682
   43      H      -1.4020810779    -3.8744951383    -0.9118580532
   44      H      -2.9388894868    -3.4431515941    -1.7278480149
   45      H      -0.2251376126    -2.6263809757    -2.5758134693
   46      H      -1.7454154925    -1.9655162275    -3.2479540618
   47      H      -0.0257794189    -0.2860942549    -1.7173921020
   48      H      -6.6620228831     0.7926785558     0.7360370117
   49      H      -6.2231758496     2.4129370427     0.0556277048
   50      H       6.5415262902     0.7357961263    -0.7151642436
   51      H       5.1715768092     1.8474803342    -1.1203546852
   52      H       5.6054164818     0.5107012734    -2.2481000400
   53      H       1.4850559412     3.6508810084     0.1352962051
   54      H       0.1212044658     4.1763564113     1.1940653614
   55      H      -1.5032031119     3.8071039759    -0.4114809844
   56      H      -0.1105326447     3.9707443195    -1.5522792061
 ----------------------------------------------------------------

    9   -1510.2751420883      3.51E-09 Convergence criterion met
 Total energy in the final basis set = -1510.27514209
 Final energy is   -1510.27514208829
 **  OPTIMIZATION CONVERGED  **

                    Orbital Energies (a.u.)
 --------------------------------------------------------------

 Alpha MOs
 -- Occupied --
-18.937 -18.932 -18.921 -18.920 -18.904 -18.884 -18.881 -18.877
-18.873 -18.853 -10.104 -10.101 -10.096 -10.086 -10.071 -10.071
-10.069 -10.066 -10.062 -10.051 -10.049 -10.048 -10.047 -10.043
-10.030 -10.029 -10.024 -10.016 -10.010 -10.007  -1.018  -1.009
 -1.005  -0.994  -0.986  -0.959  -0.942  -0.934  -0.931  -0.920
 -0.772  -0.752  -0.733  -0.719  -0.710  -0.704  -0.691  -0.661
 -0.648  -0.619  -0.597  -0.573  -0.554  -0.547  -0.536  -0.527
 -0.514  -0.502  -0.483  -0.474  -0.469  -0.460  -0.452  -0.442
 -0.431  -0.423  -0.419  -0.413  -0.409  -0.405  -0.402  -0.399
 -0.392  -0.380  -0.373  -0.369  -0.361  -0.357  -0.349  -0.347
 -0.344  -0.340  -0.333  -0.329  -0.326  -0.321  -0.319  -0.316
 -0.311  -0.307  -0.302  -0.295  -0.292  -0.286  -0.277  -0.272
 -0.268  -0.256  -0.250  -0.245  -0.239  -0.235  -0.219  -0.190
 -0.177  -0.164  -0.162  -0.159  -0.155  -0.154  -0.151  -0.138
 -0.132

          Ground-State Mulliken Net Atomic Charges

     Atom                 Charge (a.u.)
  ----------------------------------------
      1 O                    -0.215604
      2 C                     0.215185
      3 C                    -0.080378
      4 C                    -0.073986
      5 C                     0.216334
      6 O                    -0.172736
      7 C                    -0.052742
      8 C                    -0.053686
      9 O                    -0.178258
     10 C                     0.213324
     11 C                    -0.094744
     12 C                    -0.081885
     13 C                     0.210936
     14 O                    -0.227613
     15 O                    -0.168297
     16 O                    -0.166598
     17 O                    -0.204705
     18 C                    -0.126656
     19 C                     0.026031
     20 C                    -0.145560
     21 C                    -0.143455
     22 C                     0.025520
     23 O                    -0.189934
     24 H                     0.113477
     25 H                     0.078952
     26 H                     0.081348
     27 H                     0.073845
     28 H                     0.081087
     29 H                     0.074489
     30 H                     0.070316
     31 H                     0.086631
     32 O                    -0.202794
     33 C                    -0.127061
     34 C                     0.025526
     35 C                    -0.141112
     36 C                    -0.145422
     37 C                     0.022718
     38 O                    -0.196404
     39 H                     0.085057
     40 H                     0.089520
     41 H                     0.092121
     42 H                     0.093269
     43 H                     0.078797
     44 H                     0.076512
     45 H                     0.079697
     46 H                     0.076849
     47 H                     0.098024
     48 H                     0.088523
     49 H                     0.089098
     50 H                     0.088000
     51 H                     0.092896
     52 H                     0.084474
     53 H                     0.094513
     54 H                     0.086688
     55 H                     0.090365
     56 H                     0.089506
  ----------------------------------------
  Sum of atomic charges =    -0.000000

                    Cartesian Multipole Moments
 -----------------------------------------------------------------
    Charge (ESU x 10^10)
                -0.0000
    Dipole Moment (Debye)
         X      -2.2703      Y      -0.4241      Z      -2.5222
       Tot       3.4199
    Quadrupole Moments (Debye-Ang)
        XX    -159.3829     XY      -3.2194     YY    -147.1120
        XZ       2.1997     YZ       3.2035     ZZ    -162.9074

 Total job time:  73.72s(wall), 3515.47s(cpu)
        *  Thank you very much for using Q-Chem.  Have a nice day.  *
