 Q-Chem 5.0, Q-Chem, Inc., Pleasanton, CA (2017)
 Q-Chem 5.0.1 for Intel X86 EM64T Linux

User input:
--------------------------------------------------------------
$molecule
0  1
O -4.9799258028 0.7886718636 1.6141277171
C -4.6150146955 0.5291470497 0.4479467246
C -3.8581117569 -0.7577366625 -0.0461191609
C -2.5970979469 -0.4938109479 -0.9610236083
C -2.0103244555 0.936050619 -0.6682462578
O -0.6506814858 1.0913786563 -1.1314404049
C -0.2254485679 2.4886342486 -0.8361303832
C 0.79514187 2.6060128845 0.3777015452
O 0.6716321863 1.4823576875 1.340535147
C 1.8482073836 0.6214858718 1.1532053635
C 1.8133080276 -0.3510983175 -0.086115474
C 3.1620564677 -0.3314898832 -0.9389208766
C 4.1317443897 0.8692108799 -0.6669656633
O 4.3759320773 1.8164714573 -1.4493402686
O -5.1029269724 1.2122170957 -0.7220974704
O 4.7981484601 0.6785672789 0.5812481221
O 2.6929303889 0.5619453212 2.069926121
C 5.7276581209 1.8020035803 0.8403304212
C 1.8449191238 -1.8537141946 0.4336912246
C 1.6585997478 -2.8519493007 -0.7839177628
C 3.0920071821 -2.8408159432 -1.4286261121
C 3.7939078542 -1.741844984 -0.5459294498
O 3.267167985 -2.021479585 0.8092123861
H 0.9286605077 -0.0924057403 -0.7016707625
H 2.9189169038 -0.297207319 -2.0161060425
H 1.1850155674 -2.0481316765 1.3019180938
H 1.3805886401 -3.8525674047 -0.4172560377
H 0.8902299642 -2.5142074157 -1.4955952962
H 3.5990712701 -3.8115447426 -1.3072321494
H 3.0772788031 -2.579005834 -2.4986797436
H 4.9003685268 -1.7670695981 -0.5424584787
O -2.6172649691 1.8401164776 -0.0472572168
C -5.8590872238 2.4150298513 -0.3143460555
C -3.2412524979 -1.6716415072 1.0944539391
C -3.2468417289 -3.1498382684 0.5464040954
C -2.166936696 -3.032685759 -0.5941252473
C -1.6125239086 -1.5724837628 -0.3545459383
O -1.7941653051 -1.341731725 1.0989611171
H -4.6018600135 -1.3355657911 -0.626298974
H -2.8002176768 -0.6204690365 -2.0398367391
H -5.1961950371 3.1611815595 0.1702007614
H -3.6848296545 -1.5131210135 2.0967795105
H -2.9240823909 -3.8522309409 1.3318413755
H -4.2348581512 -3.4625717267 0.1727055592
H -1.361894433 -3.7744432692 -0.4735933403
H -2.6007675214 -3.1461117887 -1.6007756241
H -0.5622380098 -1.4208824984 -0.64351962
H -6.6799235515 2.164788514 0.3885398409
H -6.2810683402 2.8442529026 -1.2417630429
H 6.2220065235 1.5689057087 1.8009809951
H 5.1861317078 2.7659993143 0.9277979504
H 6.4893127422 1.8961411881 0.0393333894
H 1.8263729705 2.7022767155 -0.021177315
H 0.5574686791 3.5385452423 0.9332308556
H -1.1421992746 3.0663052818 -0.5997822711
H 0.2485466604 2.8782235355 -1.7601997839
$end

$rem
JOBTYPE                   OPT
METHOD                    B3LYP
DFT_D                     d3_op
BASIS                     STO-3G
GEOM_OPT_MAX_CYCLES       100
GEOM_OPT_TOL_GRADIENT     300
GEOM_OPT_TOL_DISPLACEMENT 1200
GEOM_OPT_TOL_ENERGY       100
SYMMETRY                  False
THRESH                    12
SCF_CONVERGENCE           8
MAX_SUB_FILE_NUM          128
MEM_STATIC                400
MEM_TOTAL                 4000
$end
--------------------------------------------------------------

   16   -1510.2545068614      5.33E-09 Convergence criterion met
 Total energy in the final basis set = -1510.25450686
   15   -1510.2566779322      3.05E-09 Convergence criterion met
 Total energy in the final basis set = -1510.25667793
   14   -1510.2611812100      3.94E-09 Convergence criterion met
 Total energy in the final basis set = -1510.26118121
   13   -1510.2646672767      7.72E-09 Convergence criterion met
 Total energy in the final basis set = -1510.26466728
   13   -1510.2673583535      7.07E-09 Convergence criterion met
 Total energy in the final basis set = -1510.26735835
   13   -1510.2695942291      6.53E-09 Convergence criterion met
 Total energy in the final basis set = -1510.26959423
   14   -1510.2716454698      3.89E-09 Convergence criterion met
 Total energy in the final basis set = -1510.27164547
   14   -1510.2737418998      4.34E-09 Convergence criterion met
    9   -1510.2832690346      9.34E-09 Convergence criterion met
 Total energy in the final basis set = -1510.28326903
   10   -1510.2832736167      9.00E-09 Convergence criterion met
 Total energy in the final basis set = -1510.28327362
   10   -1510.2832815537      8.62E-09 Convergence criterion met
 Total energy in the final basis set = -1510.28328155
   10   -1510.2832848924      7.12E-09 Convergence criterion met
 Total energy in the final basis set = -1510.28328489
   10   -1510.2832897357      7.04E-09 Convergence criterion met
 Total energy in the final basis set = -1510.28328974
   10   -1510.2832852391      7.04E-09 Convergence criterion met
 Total energy in the final basis set = -1510.28328524

             Standard Nuclear Orientation (Angstroms)
    I     Atom           X                Y                Z
 ----------------------------------------------------------------
    1      O      -2.8241167943     0.9193281768     2.1678818857
    2      C      -3.5032530178     0.6469406630     1.1562541291
    3      C      -3.4440447387    -0.6659690419     0.2904652915
    4      C      -2.6044096500    -0.5463442758    -1.0484519582
    5      C      -1.8601556513     0.8299526187    -1.1717190766
    6      O      -0.8616157001     0.7460774780    -2.1991817832
    7      C      -0.2365598006     2.0754754037    -2.4169792075
    8      C       1.1784218766     2.1897857182    -1.7317526382
    9      O       1.0837058214     2.0919001323    -0.2641820699
   10      C       0.9828532445     0.7364963353     0.2465131929
   11      C       1.7003125099    -0.4162833400    -0.5686926323
   12      C       3.2721029635    -0.2149629866    -0.6901704310
   13      C       3.7606111940     1.1419373031    -0.0793876041
   14      O       4.3518683154     2.0700095899    -0.6741758223
   15      O      -4.5898524204     1.4444219903     0.6607990283
   16      O       3.3936797481     1.1664371292     1.3015561981
   17      O       0.4102231880     0.5783733452     1.3428892723
   18      C       3.6753544691     2.4986863281     1.8820179944
   19      C       1.6246541332    -1.7685761249     0.2511506104
   20      C       2.0324288339    -2.9544848158    -0.7098056364
   21      C       3.5912423724    -2.7566681406    -0.7994103053
   22      C       3.7866651224    -1.4859635411     0.1194051894
   23      O       2.7725684456    -1.6654958795     1.1804584305
   24      H       1.2266563138    -0.5176829708    -1.5599012459
   25      H       3.6039526612    -0.2481780147    -1.7429735420
   26      H       0.6570913240    -1.8882797943     0.7867067945
   27      H       1.7738247897    -3.9236470030    -0.2545055186
   28      H       1.5388933833    -2.8860764492    -1.6925563499
   29      H       4.1337568826    -3.6193959394    -0.3809477107
   30      H       3.9424692284    -2.5847210282    -1.8295875636
   31      H       4.7963503618    -1.3726740408     0.5595977691
   32      O      -2.1024771081     1.8707113353    -0.5212667139
   33      C      -4.6363679537     2.7281428084     1.3941429526
   34      C      -2.6663516982    -1.8366545788     1.0305361538
   35      C      -3.1095999811    -3.2040295586     0.3818387368
   36      C      -2.3902829995    -3.1170579277    -1.0157238258
   37      C      -1.5996184782    -1.7563846951    -0.8767774579
   38      O      -1.2675928461    -1.6859736940     0.5635400143
   39      H      -4.4822490081    -0.9624486203     0.0581530516
   40      H      -3.2428883433    -0.6712005504    -1.9429204169
   41      H      -3.7160882938     3.3219990104     1.2171873089
   42      H      -2.7073264634    -1.7843187268     2.1356364800
   43      H      -2.7323565186    -4.0517559673     0.9757229806
   44      H      -4.2044448645    -3.2905048494     0.2951977497
   45      H      -1.6882135811    -3.9530884767    -1.1628735526
   46      H      -3.0990006945    -3.0988821285    -1.8591470153
   47      H      -0.6897035502    -1.6786034373    -1.4989882554
   48      H      -4.7518692485     2.5728586242     2.4864326861
   49      H      -5.5129069039     3.2759131196     1.0017525104
   50      H       3.4283854631     2.4204689551     2.9564397078
   51      H       3.0390467603     3.2755796840     1.4104882844
   52      H       4.7401125824     2.7830939958     1.7589317514
   53      H       1.8786274769     1.4554359733    -2.1765206958
   54      H       1.5748285513     3.2057031271    -1.9387987476
   55      H      -0.9043684399     2.8602481244    -2.0032091268
   56      H      -0.1242443263     2.2021203188    -3.5138796250
 ----------------------------------------------------------------

    9   -1510.2832870425      4.72E-09 Convergence criterion met
 Total energy in the final basis set = -1510.28328704
 Final energy is   -1510.28328704254
 **  OPTIMIZATION CONVERGED  **

                    Orbital Energies (a.u.)
 --------------------------------------------------------------

 Alpha MOs
 -- Occupied --
-18.945 -18.930 -18.918 -18.916 -18.896 -18.894 -18.879 -18.874
-18.868 -18.860 -10.111 -10.093 -10.090 -10.087 -10.077 -10.076
-10.066 -10.061 -10.055 -10.055 -10.050 -10.046 -10.039 -10.034
-10.033 -10.028 -10.025 -10.022 -10.015 -10.013  -1.025  -1.007
 -0.995  -0.993  -0.976  -0.960  -0.949  -0.931  -0.929  -0.921
 -0.767  -0.757  -0.729  -0.717  -0.716  -0.703  -0.696  -0.652
 -0.652  -0.616  -0.594  -0.585  -0.550  -0.545  -0.539  -0.531
 -0.513  -0.503  -0.487  -0.474  -0.464  -0.456  -0.453  -0.439
 -0.435  -0.429  -0.426  -0.413  -0.405  -0.404  -0.403  -0.398
 -0.393  -0.390  -0.374  -0.365  -0.361  -0.354  -0.349  -0.345
 -0.340  -0.337  -0.332  -0.330  -0.329  -0.324  -0.318  -0.311
 -0.306  -0.304  -0.302  -0.296  -0.293  -0.284  -0.277  -0.274
 -0.270  -0.259  -0.248  -0.242  -0.235  -0.232  -0.223  -0.194
 -0.170  -0.167  -0.162  -0.159  -0.151  -0.149  -0.138  -0.138
 -0.135

          Ground-State Mulliken Net Atomic Charges

     Atom                 Charge (a.u.)
  ----------------------------------------
      1 O                    -0.208515
      2 C                     0.214836
      3 C                    -0.080746
      4 C                    -0.076100
      5 C                     0.215261
      6 O                    -0.178524
      7 C                    -0.057922
      8 C                    -0.050973
      9 O                    -0.179144
     10 C                     0.210443
     11 C                    -0.087045
     12 C                    -0.084188
     13 C                     0.204501
     14 O                    -0.218941
     15 O                    -0.175838
     16 O                    -0.162562
     17 O                    -0.178867
     18 C                    -0.127247
     19 C                     0.014140
     20 C                    -0.145700
     21 C                    -0.144176
     22 C                     0.027002
     23 O                    -0.184799
     24 H                     0.078061
     25 H                     0.078123
     26 H                     0.113731
     27 H                     0.075815
     28 H                     0.066300
     29 H                     0.076610
     30 H                     0.070394
     31 H                     0.081679
     32 O                    -0.198131
     33 C                    -0.128312
     34 C                     0.027549
     35 C                    -0.143550
     36 C                    -0.144574
     37 C                     0.024113
     38 O                    -0.186961
     39 H                     0.084014
     40 H                     0.087279
     41 H                     0.093142
     42 H                     0.093728
     43 H                     0.079145
     44 H                     0.074686
     45 H                     0.078110
     46 H                     0.073864
     47 H                     0.085088
     48 H                     0.086784
     49 H                     0.084881
     50 H                     0.094817
     51 H                     0.092545
     52 H                     0.087593
     53 H                     0.084499
     54 H                     0.093888
     55 H                     0.102937
     56 H                     0.087259
  ----------------------------------------
  Sum of atomic charges =     0.000000

                    Cartesian Multipole Moments
 -----------------------------------------------------------------
    Charge (ESU x 10^10)
                 0.0000
    Dipole Moment (Debye)
         X      -1.3289      Y      -1.3823      Z      -4.2873
       Tot       4.6966
    Quadrupole Moments (Debye-Ang)
        XX    -152.9389     XY       1.4347     YY    -152.0394
        XZ       0.3559     YZ       1.6685     ZZ    -158.8484

 Total job time:  124.09s(wall), 5914.30s(cpu)
        *  Thank you very much for using Q-Chem.  Have a nice day.  *
