 Q-Chem 5.0, Q-Chem, Inc., Pleasanton, CA (2017)
 Q-Chem 5.0.1 for Intel X86 EM64T Linux

User input:
--------------------------------------------------------------
$molecule
0  1
O -3.94934 -3.66094 2.70899
C -3.26408 -4.56952 2.26188
C -3.36658 -6.02376 2.66595
C -2.05651 -6.75173 3.00891
C -0.80983 -5.89818 3.08186
O 0.16543 -6.55935 3.77262
C 1.39378 -5.82846 3.85138
C 1.583 -5.2685 5.25736
O 0.30593 -5.09702 5.89183
C 0.01619 -5.99044 6.8701
C -0.43264 -7.32794 6.33131
C 0.23907 -8.54621 6.98163
C 0.96895 -8.28192 8.28321
O 2.18187 -8.3089 8.43382
O -2.52968 -4.31985 1.14167
O 0.3081 -7.79672 9.38256
O -0.21017 -5.60877 8.00799
C 0.88689 -7.46429 10.59187
C -1.90684 -7.67283 7.01989
C -2.81132 -8.85311 6.54986
C -1.85868 -9.99549 6.61919
C -0.90126 -9.3773 7.59884
O -1.6266 -8.33294 8.21009
H -0.60019 -7.53323 5.35896
H 0.92696 -9.07025 6.28243
H -2.53783 -6.76869 7.16244
H -3.58751 -8.96325 7.35342
H -3.498 -8.97234 5.72867
H -2.41185 -10.87865 7.0087
H -1.32472 -10.24821 5.67782
H -0.54305 -10.18345 8.28578
O -0.7733 -4.68748 2.9071
C -2.40556 -3.08 0.5496
C -4.26806 -6.42724 3.82608
C -4.97303 -7.72477 3.45296
C -3.76877 -8.62859 3.25914
C -2.65263 -7.74737 3.92491
O -3.35414 -6.87597 4.78567
H -3.79414 -6.45722 1.72843
H -1.76338 -7.34669 2.11363
H -1.9502 -2.35999 1.26273
H -4.98073 -5.64637 4.16724
H -5.53855 -8.03876 4.35989
H -5.6646 -7.69451 2.58363
H -3.98486 -9.60705 3.73822
H -3.50808 -8.82748 2.19638
H -1.89688 -8.4707 4.24528
H -3.40099 -2.70898 0.22451
H -1.7486 -3.16617 -0.33999
H 0.09865 -7.10553 11.28488
H 1.63266 -6.65335 10.44942
H 1.37794 -8.35527 11.03787
H 2.16979 -6.04274 5.80875
H 2.19977 -4.34512 5.27835
H 1.43975 -4.95886 3.15773
H 2.25751 -6.45318 3.53887
$end

$opt
CONSTRAINT
tors           1           2           3           4    -131.785
tors           3           4           5           6    +161.635
tors           4           5           6           7    +178.306
tors           5           6           7           8    +106.250
tors           6           7           8           9     -25.718
tors           7           8           9          10    +107.136
tors           8           9          10          11     -78.442
tors           9          10          11          12    +133.079
tors          11          12          13          14    -110.005
ENDCONSTRAINT
$end

$rem
JOBTYPE                   OPT
METHOD                    B3LYP
DFT_D                     d3_op
BASIS                     STO-3G
GEOM_OPT_MAX_CYCLES       100
GEOM_OPT_TOL_GRADIENT     300
GEOM_OPT_TOL_DISPLACEMENT 1200
GEOM_OPT_TOL_ENERGY       100
SYMMETRY                  False
THRESH                    12
SCF_CONVERGENCE           8
MAX_SUB_FILE_NUM          128
MEM_STATIC                400
MEM_TOTAL                 4000
$end
--------------------------------------------------------------

   15   -1509.9760857141      9.00E-09 Convergence criterion met
 Total energy in the final basis set = -1509.97608571
   14   -1510.0524456468      9.35E-09 Convergence criterion met
 Total energy in the final basis set = -1510.05244565
   14   -1510.1253857844      4.53E-09 Convergence criterion met
 Total energy in the final basis set = -1510.12538578
   13   -1510.1697744097      9.70E-09 Convergence criterion met
 Total energy in the final basis set = -1510.16977441
   14   -1510.1979687677      4.01E-09 Convergence criterion met
 Total energy in the final basis set = -1510.19796877
   13   -1510.2161974603      4.24E-09 Convergence criterion met
 Total energy in the final basis set = -1510.21619746
   14   -1510.2281575157      3.57E-09 Convergence criterion met
 Total energy in the final basis set = -1510.22815752
   13   -1510.2358508277      5.91E-09 Convergence criterion met
   10   -1510.2544314872      9.87E-09 Convergence criterion met
 Total energy in the final basis set = -1510.25443149
   10   -1510.2544348875      7.49E-09 Convergence criterion met
 Total energy in the final basis set = -1510.25443489
   10   -1510.2544401179      8.04E-09 Convergence criterion met
 Total energy in the final basis set = -1510.25444012
    9   -1510.2544435662      8.49E-09 Convergence criterion met
 Total energy in the final basis set = -1510.25444357
    9   -1510.2544455327      3.26E-09 Convergence criterion met
 Total energy in the final basis set = -1510.25444553
    9   -1510.2544465586      3.27E-09 Convergence criterion met
 Total energy in the final basis set = -1510.25444656

             Standard Nuclear Orientation (Angstroms)
    I     Atom           X                Y                Z
 ----------------------------------------------------------------
    1      O      -4.9799258028     0.7886718636     1.6141277171
    2      C      -4.6150146955     0.5291470497     0.4479467246
    3      C      -3.8581117569    -0.7577366625    -0.0461191609
    4      C      -2.5970979469    -0.4938109479    -0.9610236083
    5      C      -2.0103244555     0.9360506190    -0.6682462578
    6      O      -0.6506814858     1.0913786563    -1.1314404049
    7      C      -0.2254485679     2.4886342486    -0.8361303832
    8      C       0.7951418700     2.6060128845     0.3777015452
    9      O       0.6716321863     1.4823576875     1.3405351470
   10      C       1.8482073836     0.6214858718     1.1532053635
   11      C       1.8133080276    -0.3510983175    -0.0861154740
   12      C       3.1620564677    -0.3314898832    -0.9389208766
   13      C       4.1317443897     0.8692108799    -0.6669656633
   14      O       4.3759320773     1.8164714573    -1.4493402686
   15      O      -5.1029269724     1.2122170957    -0.7220974704
   16      O       4.7981484601     0.6785672789     0.5812481221
   17      O       2.6929303889     0.5619453212     2.0699261210
   18      C       5.7276581209     1.8020035803     0.8403304212
   19      C       1.8449191238    -1.8537141946     0.4336912246
   20      C       1.6585997478    -2.8519493007    -0.7839177628
   21      C       3.0920071821    -2.8408159432    -1.4286261121
   22      C       3.7939078542    -1.7418449840    -0.5459294498
   23      O       3.2671679850    -2.0214795850     0.8092123861
   24      H       0.9286605077    -0.0924057403    -0.7016707625
   25      H       2.9189169038    -0.2972073190    -2.0161060425
   26      H       1.1850155674    -2.0481316765     1.3019180938
   27      H       1.3805886401    -3.8525674047    -0.4172560377
   28      H       0.8902299642    -2.5142074157    -1.4955952962
   29      H       3.5990712701    -3.8115447426    -1.3072321494
   30      H       3.0772788031    -2.5790058340    -2.4986797436
   31      H       4.9003685268    -1.7670695981    -0.5424584787
   32      O      -2.6172649691     1.8401164776    -0.0472572168
   33      C      -5.8590872238     2.4150298513    -0.3143460555
   34      C      -3.2412524979    -1.6716415072     1.0944539391
   35      C      -3.2468417289    -3.1498382684     0.5464040954
   36      C      -2.1669366960    -3.0326857590    -0.5941252473
   37      C      -1.6125239086    -1.5724837628    -0.3545459383
   38      O      -1.7941653051    -1.3417317250     1.0989611171
   39      H      -4.6018600135    -1.3355657911    -0.6262989740
   40      H      -2.8002176768    -0.6204690365    -2.0398367391
   41      H      -5.1961950371     3.1611815595     0.1702007614
   42      H      -3.6848296545    -1.5131210135     2.0967795105
   43      H      -2.9240823909    -3.8522309409     1.3318413755
   44      H      -4.2348581512    -3.4625717267     0.1727055592
   45      H      -1.3618944330    -3.7744432692    -0.4735933403
   46      H      -2.6007675214    -3.1461117887    -1.6007756241
   47      H      -0.5622380098    -1.4208824984    -0.6435196200
   48      H      -6.6799235515     2.1647885140     0.3885398409
   49      H      -6.2810683402     2.8442529026    -1.2417630429
   50      H       6.2220065235     1.5689057087     1.8009809951
   51      H       5.1861317078     2.7659993143     0.9277979504
   52      H       6.4893127422     1.8961411881     0.0393333894
   53      H       1.8263729705     2.7022767155    -0.0211773150
   54      H       0.5574686791     3.5385452423     0.9332308556
   55      H      -1.1421992746     3.0663052818    -0.5997822711
   56      H       0.2485466604     2.8782235355    -1.7601997839
 ----------------------------------------------------------------

    9   -1510.2544470101      2.64E-09 Convergence criterion met
 Total energy in the final basis set = -1510.25444701
 Final energy is   -1510.25444701012
 **  OPTIMIZATION CONVERGED  **

                    Orbital Energies (a.u.)
 --------------------------------------------------------------

 Alpha MOs
 -- Occupied --
-18.952 -18.937 -18.917 -18.901 -18.898 -18.896 -18.889 -18.888
-18.872 -18.861 -10.114 -10.098 -10.097 -10.092 -10.072 -10.069
-10.063 -10.062 -10.061 -10.060 -10.059 -10.054 -10.048 -10.037
-10.035 -10.031 -10.025 -10.023 -10.022 -10.021  -1.027  -1.012
 -0.999  -0.997  -0.973  -0.970  -0.951  -0.935  -0.928  -0.924
 -0.767  -0.761  -0.729  -0.723  -0.714  -0.704  -0.700  -0.659
 -0.654  -0.614  -0.601  -0.580  -0.550  -0.548  -0.541  -0.538
 -0.515  -0.509  -0.489  -0.478  -0.466  -0.461  -0.458  -0.440
 -0.436  -0.434  -0.423  -0.412  -0.411  -0.409  -0.404  -0.401
 -0.394  -0.387  -0.379  -0.370  -0.367  -0.358  -0.352  -0.345
 -0.343  -0.340  -0.337  -0.335  -0.331  -0.328  -0.324  -0.317
 -0.312  -0.310  -0.306  -0.304  -0.297  -0.284  -0.279  -0.274
 -0.273  -0.260  -0.252  -0.245  -0.238  -0.237  -0.233  -0.194
 -0.176  -0.172  -0.162  -0.158  -0.151  -0.148  -0.147  -0.142
 -0.141

          Ground-State Mulliken Net Atomic Charges

     Atom                 Charge (a.u.)
  ----------------------------------------
      1 O                    -0.218531
      2 C                     0.217225
      3 C                    -0.080598
      4 C                    -0.074883
      5 C                     0.221938
      6 O                    -0.169230
      7 C                    -0.061808
      8 C                    -0.052879
      9 O                    -0.184815
     10 C                     0.210604
     11 C                    -0.091337
     12 C                    -0.082215
     13 C                     0.199025
     14 O                    -0.220136
     15 O                    -0.178803
     16 O                    -0.158230
     17 O                    -0.167528
     18 C                    -0.126842
     19 C                     0.023689
     20 C                    -0.145264
     21 C                    -0.142959
     22 C                     0.027136
     23 O                    -0.181070
     24 H                     0.095628
     25 H                     0.082383
     26 H                     0.090857
     27 H                     0.077920
     28 H                     0.072000
     29 H                     0.078365
     30 H                     0.073262
     31 H                     0.085905
     32 O                    -0.198176
     33 C                    -0.128534
     34 C                     0.022599
     35 C                    -0.141644
     36 C                    -0.146114
     37 C                     0.020137
     38 O                    -0.191215
     39 H                     0.083401
     40 H                     0.089076
     41 H                     0.088987
     42 H                     0.093234
     43 H                     0.078690
     44 H                     0.074110
     45 H                     0.077640
     46 H                     0.073043
     47 H                     0.085693
     48 H                     0.087323
     49 H                     0.085229
     50 H                     0.095189
     51 H                     0.087186
     52 H                     0.088033
     53 H                     0.080037
     54 H                     0.089316
     55 H                     0.103076
     56 H                     0.084876
  ----------------------------------------
  Sum of atomic charges =    -0.000000

                    Cartesian Multipole Moments
 -----------------------------------------------------------------
    Charge (ESU x 10^10)
                -0.0000
    Dipole Moment (Debye)
         X      -0.5423      Y      -0.8500      Z      -4.2174
       Tot       4.3362
    Quadrupole Moments (Debye-Ang)
        XX    -156.9158     XY       4.8283     YY    -148.9123
        XZ       3.7586     YZ       2.7891     ZZ    -169.0184

 Total job time:  90.36s(wall), 4306.63s(cpu)
        *  Thank you very much for using Q-Chem.  Have a nice day.  *
