 Q-Chem 5.0, Q-Chem, Inc., Pleasanton, CA (2017)
 Q-Chem 5.0.1 for Intel X86 EM64T Linux

User input:
--------------------------------------------------------------
$molecule
0  1
O -5.7831854959 0.7162782561 0.2680736165
C -4.790163116 0.4765498577 -0.4513196155
C -3.8615452794 -0.7910569908 -0.3887740281
C -2.3320371331 -0.5202650114 -0.6694918299
C -1.9572907707 0.9437962137 -0.2246976401
O -0.5324306152 1.1163131367 -0.1245252748
C -0.2581182226 2.5552157762 0.1517336434
C 1.0430060125 2.7952068693 1.0244903175
O 1.3694150386 1.6930205613 1.9595076934
C 2.4628049179 0.931719376 1.3453790805
C 2.0201602335 -0.3675675442 0.5866764771
C 2.7819123383 -0.5182748695 -0.8008378523
C 3.6219330679 0.7627495483 -1.1631420473
O 3.1548740751 1.9003754037 -1.4012288444
O -4.5343510098 1.1328921854 -1.7074336566
O 5.0117791406 0.445178111 -1.2177026251
O 3.649781992 1.3008836204 1.470343274
C 5.7958754917 1.6676980032 -1.5095622876
C 2.5389350875 -1.6658501192 1.343532211
C 1.8800239604 -2.9492918374 0.6986968166
C 2.6913252786 -3.0735767661 -0.6428256224
C 3.6462152896 -1.821736619 -0.5346489129
O 3.9534922528 -1.7487567483 0.9135746013
H 0.9261226231 -0.3158791051 0.4475447096
H 2.0517280181 -0.6776171633 -1.615402411
H 2.4701448676 -1.6095872822 2.4474103441
H 2.0362409563 -3.823896719 1.3498888082
H 0.8004391272 -2.8261746154 0.5296875523
H 3.2789611677 -4.0047287438 -0.674879823
H 2.0480499383 -3.0311372621 -1.5361870862
H 4.5795896761 -1.8764272538 -1.1258901821
O -2.781952594 1.8257883067 0.1119554981
C -5.4298600423 2.2996422768 -1.8521027017
C -3.8177306142 -1.5697912712 0.9890535165
C -3.5597509916 -3.0855173991 0.6404374986
C -2.0835890158 -3.0038661486 0.0975131529
C -1.7113716134 -1.5005876519 0.418155284
O -2.5325069073 -1.1620206651 1.6065962849
H -4.2492607765 -1.4661169943 -1.1754865095
H -2.0193651964 -0.7238839305 -1.7087030582
H -5.1802610832 3.0907416963 -1.1153044254
H -4.668967543 -1.3580493682 1.6651281553
H -3.6182681635 -3.7053682911 1.5494588029
H -4.2705096984 -3.4760332316 -0.1052988855
H -1.4133036183 -3.691984682 0.6364344283
H -2.0170505802 -3.221699581 -0.9807761881
H -0.6439554402 -1.318380142 0.6330121567
H -6.4950104461 2.0191352286 -1.72067839
H -5.2698869849 2.6868269004 -2.8752831195
H 6.8528522844 1.3473874813 -1.5551284255
H 5.6703178712 2.4252077372 -0.709441315
H 5.4996973266 2.1208037815 -2.4776901815
H 1.8932109662 3.0021766469 0.3384257262
H 0.862119934 3.7041712708 1.637941542
H -1.1559537031 2.9687763909 0.6578615187
H -0.133931851 3.0835854122 -0.8185674102
$end

$rem
JOBTYPE                   OPT
METHOD                    B3LYP
DFT_D                     d3_op
BASIS                     STO-3G
GEOM_OPT_MAX_CYCLES       100
GEOM_OPT_TOL_GRADIENT     300
GEOM_OPT_TOL_DISPLACEMENT 1200
GEOM_OPT_TOL_ENERGY       100
SYMMETRY                  False
THRESH                    12
SCF_CONVERGENCE           8
MAX_SUB_FILE_NUM          128
MEM_STATIC                400
MEM_TOTAL                 4000
$end
--------------------------------------------------------------

   16   -1510.2542866643      4.42E-09 Convergence criterion met
 Total energy in the final basis set = -1510.25428666
   14   -1510.2570270359      8.51E-09 Convergence criterion met
 Total energy in the final basis set = -1510.25702704
   14   -1510.2611812662      9.27E-09 Convergence criterion met
 Total energy in the final basis set = -1510.26118127
   15   -1510.2647224644      2.51E-09 Convergence criterion met
 Total energy in the final basis set = -1510.26472246
   14   -1510.2673477383      9.47E-09 Convergence criterion met
 Total energy in the final basis set = -1510.26734774
   13   -1510.2695502978      6.09E-09 Convergence criterion met
 Total energy in the final basis set = -1510.26955030
   14   -1510.2712623701      4.24E-09 Convergence criterion met
 Total energy in the final basis set = -1510.27126237
   13   -1510.2729607836      4.89E-09 Convergence criterion met
   12   -1510.2866052458      4.35E-09 Convergence criterion met
 Total energy in the final basis set = -1510.28660525
   12   -1510.2866279390      2.50E-09 Convergence criterion met
 Total energy in the final basis set = -1510.28662794
   11   -1510.2866168663      3.38E-09 Convergence criterion met
 Total energy in the final basis set = -1510.28661687
   10   -1510.2866215294      5.25E-09 Convergence criterion met
 Total energy in the final basis set = -1510.28662153
   11   -1510.2866216906      3.36E-09 Convergence criterion met
 Total energy in the final basis set = -1510.28662169
   10   -1510.2866129823      7.53E-09 Convergence criterion met
 Total energy in the final basis set = -1510.28661298

             Standard Nuclear Orientation (Angstroms)
    I     Atom           X                Y                Z
 ----------------------------------------------------------------
    1      O      -5.1952349702     0.6270689498     1.2509095646
    2      C      -4.4468119866     0.3513159893     0.2910843202
    3      C      -3.5845161123    -0.9438018552     0.0834831161
    4      C      -2.0318059756    -0.6444091857    -0.0441728628
    5      C      -1.6863891705     0.8738729084     0.0693386719
    6      O      -0.8432622425     1.2366726372    -1.0444054299
    7      C      -0.3557069902     2.6257132168    -0.8840605479
    8      C       1.1913467926     2.6279737999    -0.5878532859
    9      O       1.5085046513     1.9693098237     0.6969738299
   10      C       1.4347954019     0.5264625602     0.6773400096
   11      C       1.6642127803    -0.2383558897    -0.6898630836
   12      C       3.0582539081     0.0395104888    -1.3942570781
   13      C       3.9792543788     0.9978995558    -0.5647823323
   14      O       4.5962455766     2.0036503917    -0.9781512734
   15      O      -4.2510612147     1.1945255700    -0.8536746810
   16      O       3.9910295209     0.5334529540     0.7875377032
   17      O       1.1820340622    -0.0467396554     1.7615756466
   18      C       4.7177205286     1.4865443882     1.6565675131
   19      C       1.7590458434    -1.8012148885    -0.4377422692
   20      C       1.4946417718    -2.5300357666    -1.8122199468
   21      C       2.8448741497    -2.2399199380    -2.5672449134
   22      C       3.6473265798    -1.4365520838    -1.4665093042
   23      O       3.2003169984    -2.0398765446    -0.1943762571
   24      H       0.8096343449     0.0170491651    -1.3447076869
   25      H       2.9348468893     0.4719587071    -2.4028961337
   26      H       1.1652452868    -2.1572111217     0.4239755874
   27      H       1.3447159676    -3.6100407885    -1.6543398186
   28      H       0.6156488658    -2.1224817087    -2.3367007107
   29      H       3.3745592366    -3.1716316316    -2.8220451131
   30      H       2.7017932615    -1.6526779552    -3.4887077004
   31      H       4.7498794339    -1.4865700032    -1.5575180291
   32      O      -2.0368526224     1.6765187007     0.9609692921
   33      C      -4.9550036044     2.4815723213    -0.6585848429
   34      C      -3.6147380725    -1.8648257229     1.3712028579
   35      C      -3.0603866121    -3.2890909911     0.9797077054
   36      C      -1.5196353971    -2.9915645056     0.8563879507
   37      C      -1.4726015469    -1.4527702686     1.2135286445
   38      O      -2.5428581957    -1.2938200716     2.2199817759
   39      H      -3.9536480976    -1.4718158824    -0.8146536800
   40      H      -1.6188600175    -1.0248361345    -0.9943840300
   41      H      -4.5157185029     3.0518740981     0.1857537069
   42      H      -4.5824369966    -1.8513978076     1.9091423772
   43      H      -3.2681075649    -4.0166794058     1.7802108644
   44      H      -3.4977132185    -3.6631059181     0.0400556836
   45      H      -0.9350219620    -3.5725308587     1.5874226552
   46      H      -1.1275482705    -3.1974448582    -0.1522411970
   47      H      -0.5005172290    -1.0731917926     1.6021538838
   48      H      -6.0359203813     2.3324203615    -0.4610181579
   49      H      -4.8231176339     3.0495089142    -1.5979453032
   50      H       4.8268768233     0.9858509011     2.6358448282
   51      H       4.1355633026     2.4227555155     1.7823884105
   52      H       5.7161416312     1.7362030037     1.2445975739
   53      H       1.7407801590     2.1932483375    -1.4464180298
   54      H       1.5241450974     3.6794552355    -0.4653497196
   55      H      -0.9115007021     3.0921277019    -0.0413321546
   56      H      -0.5522383876     3.1756913996    -1.8281285453
 ----------------------------------------------------------------

    9   -1510.2866127112      8.81E-09 Convergence criterion met
 Total energy in the final basis set = -1510.28661271
 Final energy is   -1510.28661271120
 **  OPTIMIZATION CONVERGED  **

                    Orbital Energies (a.u.)
 --------------------------------------------------------------

 Alpha MOs
 -- Occupied --
-18.941 -18.941 -18.932 -18.931 -18.891 -18.886 -18.884 -18.881
-18.880 -18.877 -10.106 -10.106 -10.103 -10.098 -10.082 -10.075
-10.066 -10.063 -10.063 -10.060 -10.055 -10.050 -10.043 -10.039
-10.037 -10.035 -10.025 -10.024 -10.018 -10.017  -1.023  -1.017
 -1.009  -1.004  -0.974  -0.966  -0.948  -0.941  -0.938  -0.935
 -0.767  -0.763  -0.728  -0.726  -0.716  -0.707  -0.700  -0.661
 -0.661  -0.619  -0.604  -0.586  -0.555  -0.545  -0.542  -0.536
 -0.515  -0.509  -0.493  -0.479  -0.471  -0.462  -0.453  -0.444
 -0.436  -0.434  -0.428  -0.419  -0.415  -0.412  -0.411  -0.403
 -0.401  -0.398  -0.377  -0.372  -0.363  -0.360  -0.354  -0.351
 -0.348  -0.344  -0.343  -0.337  -0.329  -0.328  -0.317  -0.316
 -0.311  -0.306  -0.305  -0.302  -0.298  -0.293  -0.286  -0.279
 -0.270  -0.258  -0.256  -0.253  -0.241  -0.236  -0.229  -0.192
 -0.180  -0.176  -0.170  -0.165  -0.159  -0.152  -0.151  -0.147
 -0.140

          Ground-State Mulliken Net Atomic Charges

     Atom                 Charge (a.u.)
  ----------------------------------------
      1 O                    -0.205218
      2 C                     0.213662
      3 C                    -0.078548
      4 C                    -0.080133
      5 C                     0.213895
      6 O                    -0.180371
      7 C                    -0.060660
      8 C                    -0.051746
      9 O                    -0.175368
     10 C                     0.217409
     11 C                    -0.093368
     12 C                    -0.083660
     13 C                     0.205478
     14 O                    -0.214315
     15 O                    -0.176214
     16 O                    -0.162408
     17 O                    -0.200763
     18 C                    -0.127623
     19 C                     0.023491
     20 C                    -0.144567
     21 C                    -0.143747
     22 C                     0.026868
     23 O                    -0.184702
     24 H                     0.094898
     25 H                     0.080920
     26 H                     0.091950
     27 H                     0.077718
     28 H                     0.071269
     29 H                     0.078853
     30 H                     0.073402
     31 H                     0.083558
     32 O                    -0.205504
     33 C                    -0.129507
     34 C                     0.024860
     35 C                    -0.144229
     36 C                    -0.145836
     37 C                     0.015230
     38 O                    -0.184849
     39 H                     0.083824
     40 H                     0.081658
     41 H                     0.092471
     42 H                     0.089884
     43 H                     0.078512
     44 H                     0.071439
     45 H                     0.079163
     46 H                     0.070336
     47 H                     0.101073
     48 H                     0.090150
     49 H                     0.087804
     50 H                     0.096008
     51 H                     0.092210
     52 H                     0.091343
     53 H                     0.085835
     54 H                     0.094916
     55 H                     0.106587
     56 H                     0.086662
  ----------------------------------------
  Sum of atomic charges =     0.000000

                    Cartesian Multipole Moments
 -----------------------------------------------------------------
    Charge (ESU x 10^10)
                -0.0000
    Dipole Moment (Debye)
         X       0.2207      Y      -0.1515      Z      -4.8987
       Tot       4.9060
    Quadrupole Moments (Debye-Ang)
        XX    -162.4052     XY       1.6637     YY    -151.1056
        XZ       8.5185     YZ       0.2090     ZZ    -166.0769

 Total job time:  124.54s(wall), 5940.44s(cpu)
        *  Thank you very much for using Q-Chem.  Have a nice day.  *
