 Q-Chem 5.0, Q-Chem, Inc., Pleasanton, CA (2017)
 Q-Chem 5.0.1 for Intel X86 EM64T Linux

User input:
--------------------------------------------------------------
$molecule
0  1
O -3.94934 -3.66094 2.70899
C -3.26408 -4.56952 2.26188
C -3.36658 -6.02376 2.66595
C -2.05804 -6.82812 2.73359
C -0.77531 -6.04484 2.56278
O 0.28624 -6.79629 2.97973
C 1.55073 -6.17731 2.72051
C 2.56135 -6.57832 3.79008
O 1.88436 -6.84032 5.0294
C 1.70971 -8.1505 5.33279
C 0.33144 -8.65737 4.98048
C 0.30127 -10.04007 4.31302
C 1.57612 -10.85268 4.4185
O 2.65083 -10.55342 3.91852
O -2.70795 -4.3622 1.03462
O 1.60665 -12.03998 5.10704
O 2.51792 -8.75332 6.02592
C 2.71519 -12.84741 5.26778
C -0.2854 -9.09417 6.38732
C -1.80229 -9.22857 6.44549
C -2.01996 -10.43775 5.5533
C -0.58512 -10.83668 5.35173
O 0.03888 -10.44547 6.54736
H -0.26527 -7.77645 4.81934
H -0.05067 -10.01214 3.26053
H 0.03519 -8.44014 7.23097
H -2.00914 -9.55248 7.49378
H -2.46168 -8.36521 6.32987
H -2.59971 -11.19114 6.13313
H -2.42826 -10.39595 4.53618
H -0.63158 -11.93258 5.15183
O -0.68036 -4.84866 2.32813
C -2.671 -3.14595 0.38345
C -3.96749 -6.20026 4.06915
C -4.91377 -7.37251 4.00947
C -3.92368 -8.44855 3.64686
C -2.5676 -7.68244 3.88328
O -2.89998 -6.70518 4.82501
H -4.04532 -6.45106 1.88738
H -2.01391 -7.50853 1.85325
H -2.11359 -2.40349 0.99361
H -4.47092 -5.3091 4.5024
H -5.28354 -7.52013 5.05099
H -5.77992 -7.28852 3.31795
H -4.16719 -9.28247 4.33164
H -3.97319 -8.80371 2.5942
H -1.87491 -8.45872 4.03342
H -3.70265 -2.7796 0.19454
H -2.15322 -3.2704 -0.58959
H 2.43356 -13.73529 5.87004
H 3.51704 -12.29332 5.80084
H 3.08642 -13.18936 4.27821
H 3.01965 -7.52395 3.41297
H 3.39884 -5.8572 3.90588
H 1.4908 -5.08023 2.90066
H 1.91269 -6.33279 1.68119
$end

$opt
CONSTRAINT
tors           1           2           3           4    -143.778
tors           3           4           5           6    +164.514
tors           4           5           6           7    +173.877
tors           5           6           7           8    +148.796
tors           6           7           8           9     -29.398
tors           7           8           9          10    +102.178
tors           8           9          10          11     -98.478
tors           9          10          11          12    +137.014
tors          11          12          13          14     -64.756
ENDCONSTRAINT
$end

$rem
JOBTYPE                   OPT
METHOD                    B3LYP
DFT_D                     d3_op
BASIS                     STO-3G
GEOM_OPT_MAX_CYCLES       100
GEOM_OPT_TOL_GRADIENT     300
GEOM_OPT_TOL_DISPLACEMENT 1200
GEOM_OPT_TOL_ENERGY       100
SYMMETRY                  False
THRESH                    12
SCF_CONVERGENCE           8
MAX_SUB_FILE_NUM          128
MEM_STATIC                400
MEM_TOTAL                 4000
$end
--------------------------------------------------------------

   15   -1510.0031587201      7.86E-09 Convergence criterion met
 Total energy in the final basis set = -1510.00315872
   15   -1510.0734956549      3.40E-09 Convergence criterion met
 Total energy in the final basis set = -1510.07349565
   14   -1510.1404036042      7.56E-09 Convergence criterion met
 Total energy in the final basis set = -1510.14040360
   14   -1510.1807733190      4.20E-09 Convergence criterion met
 Total energy in the final basis set = -1510.18077332
   14   -1510.2062899300      3.33E-09 Convergence criterion met
 Total energy in the final basis set = -1510.20628993
   14   -1510.2229124569      3.55E-09 Convergence criterion met
 Total energy in the final basis set = -1510.22291246
   13   -1510.2343334447      9.56E-09 Convergence criterion met
 Total energy in the final basis set = -1510.23433344
   13   -1510.2420042243      5.73E-09 Convergence criterion met
   11   -1510.2543721496      8.11E-09 Convergence criterion met
 Total energy in the final basis set = -1510.25437215
   11   -1510.2544497864      5.91E-09 Convergence criterion met
 Total energy in the final basis set = -1510.25444979
   11   -1510.2545187845      4.35E-09 Convergence criterion met
 Total energy in the final basis set = -1510.25451878
   11   -1510.2545469544      6.55E-09 Convergence criterion met
 Total energy in the final basis set = -1510.25454695
   11   -1510.2545570517      5.01E-09 Convergence criterion met
 Total energy in the final basis set = -1510.25455705
   10   -1510.2545580747      9.76E-09 Convergence criterion met
 Total energy in the final basis set = -1510.25455807

             Standard Nuclear Orientation (Angstroms)
    I     Atom           X                Y                Z
 ----------------------------------------------------------------
    1      O      -5.7831854959     0.7162782561     0.2680736165
    2      C      -4.7901631160     0.4765498577    -0.4513196155
    3      C      -3.8615452794    -0.7910569908    -0.3887740281
    4      C      -2.3320371331    -0.5202650114    -0.6694918299
    5      C      -1.9572907707     0.9437962137    -0.2246976401
    6      O      -0.5324306152     1.1163131367    -0.1245252748
    7      C      -0.2581182226     2.5552157762     0.1517336434
    8      C       1.0430060125     2.7952068693     1.0244903175
    9      O       1.3694150386     1.6930205613     1.9595076934
   10      C       2.4628049179     0.9317193760     1.3453790805
   11      C       2.0201602335    -0.3675675442     0.5866764771
   12      C       2.7819123383    -0.5182748695    -0.8008378523
   13      C       3.6219330679     0.7627495483    -1.1631420473
   14      O       3.1548740751     1.9003754037    -1.4012288444
   15      O      -4.5343510098     1.1328921854    -1.7074336566
   16      O       5.0117791406     0.4451781110    -1.2177026251
   17      O       3.6497819920     1.3008836204     1.4703432740
   18      C       5.7958754917     1.6676980032    -1.5095622876
   19      C       2.5389350875    -1.6658501192     1.3435322110
   20      C       1.8800239604    -2.9492918374     0.6986968166
   21      C       2.6913252786    -3.0735767661    -0.6428256224
   22      C       3.6462152896    -1.8217366190    -0.5346489129
   23      O       3.9534922528    -1.7487567483     0.9135746013
   24      H       0.9261226231    -0.3158791051     0.4475447096
   25      H       2.0517280181    -0.6776171633    -1.6154024110
   26      H       2.4701448676    -1.6095872822     2.4474103441
   27      H       2.0362409563    -3.8238967190     1.3498888082
   28      H       0.8004391272    -2.8261746154     0.5296875523
   29      H       3.2789611677    -4.0047287438    -0.6748798230
   30      H       2.0480499383    -3.0311372621    -1.5361870862
   31      H       4.5795896761    -1.8764272538    -1.1258901821
   32      O      -2.7819525940     1.8257883067     0.1119554981
   33      C      -5.4298600423     2.2996422768    -1.8521027017
   34      C      -3.8177306142    -1.5697912712     0.9890535165
   35      C      -3.5597509916    -3.0855173991     0.6404374986
   36      C      -2.0835890158    -3.0038661486     0.0975131529
   37      C      -1.7113716134    -1.5005876519     0.4181552840
   38      O      -2.5325069073    -1.1620206651     1.6065962849
   39      H      -4.2492607765    -1.4661169943    -1.1754865095
   40      H      -2.0193651964    -0.7238839305    -1.7087030582
   41      H      -5.1802610832     3.0907416963    -1.1153044254
   42      H      -4.6689675430    -1.3580493682     1.6651281553
   43      H      -3.6182681635    -3.7053682911     1.5494588029
   44      H      -4.2705096984    -3.4760332316    -0.1052988855
   45      H      -1.4133036183    -3.6919846820     0.6364344283
   46      H      -2.0170505802    -3.2216995810    -0.9807761881
   47      H      -0.6439554402    -1.3183801420     0.6330121567
   48      H      -6.4950104461     2.0191352286    -1.7206783900
   49      H      -5.2698869849     2.6868269004    -2.8752831195
   50      H       6.8528522844     1.3473874813    -1.5551284255
   51      H       5.6703178712     2.4252077372    -0.7094413150
   52      H       5.4996973266     2.1208037815    -2.4776901815
   53      H       1.8932109662     3.0021766469     0.3384257262
   54      H       0.8621199340     3.7041712708     1.6379415420
   55      H      -1.1559537031     2.9687763909     0.6578615187
   56      H      -0.1339318510     3.0835854122    -0.8185674102
 ----------------------------------------------------------------

    9   -1510.2545589557      6.82E-09 Convergence criterion met
 Total energy in the final basis set = -1510.25455896
 Final energy is   -1510.25455895570
 **  OPTIMIZATION CONVERGED  **

                    Orbital Energies (a.u.)
 --------------------------------------------------------------

 Alpha MOs
 -- Occupied --
-18.945 -18.939 -18.918 -18.902 -18.899 -18.892 -18.890 -18.889
-18.870 -18.864 -10.110 -10.105 -10.101 -10.093 -10.070 -10.066
-10.065 -10.064 -10.063 -10.061 -10.059 -10.055 -10.047 -10.038
-10.036 -10.033 -10.027 -10.023 -10.023 -10.022  -1.022  -1.014
 -1.004  -0.999  -0.974  -0.971  -0.947  -0.936  -0.931  -0.925
 -0.768  -0.763  -0.730  -0.724  -0.714  -0.706  -0.698  -0.661
 -0.655  -0.614  -0.601  -0.576  -0.550  -0.549  -0.542  -0.539
 -0.513  -0.510  -0.487  -0.481  -0.464  -0.460  -0.459  -0.445
 -0.437  -0.435  -0.426  -0.412  -0.411  -0.410  -0.404  -0.402
 -0.393  -0.386  -0.377  -0.371  -0.367  -0.361  -0.353  -0.349
 -0.346  -0.341  -0.338  -0.334  -0.331  -0.327  -0.323  -0.317
 -0.312  -0.311  -0.305  -0.304  -0.297  -0.287  -0.281  -0.276
 -0.276  -0.257  -0.254  -0.246  -0.240  -0.238  -0.234  -0.188
 -0.178  -0.169  -0.161  -0.161  -0.154  -0.151  -0.149  -0.144
 -0.144

          Ground-State Mulliken Net Atomic Charges

     Atom                 Charge (a.u.)
  ----------------------------------------
      1 O                    -0.218833
      2 C                     0.217237
      3 C                    -0.080104
      4 C                    -0.075326
      5 C                     0.219745
      6 O                    -0.170762
      7 C                    -0.058409
      8 C                    -0.051737
      9 O                    -0.192274
     10 C                     0.222315
     11 C                    -0.088565
     12 C                    -0.079439
     13 C                     0.210888
     14 O                    -0.227430
     15 O                    -0.178428
     16 O                    -0.163499
     17 O                    -0.179625
     18 C                    -0.126746
     19 C                     0.024720
     20 C                    -0.145229
     21 C                    -0.144023
     22 C                     0.024211
     23 O                    -0.185713
     24 H                     0.096480
     25 H                     0.083067
     26 H                     0.085308
     27 H                     0.078775
     28 H                     0.073243
     29 H                     0.078141
     30 H                     0.071635
     31 H                     0.092227
     32 O                    -0.201677
     33 C                    -0.128606
     34 C                     0.022732
     35 C                    -0.141146
     36 C                    -0.146666
     37 C                     0.021876
     38 O                    -0.190923
     39 H                     0.082980
     40 H                     0.088601
     41 H                     0.088897
     42 H                     0.092839
     43 H                     0.079075
     44 H                     0.074405
     45 H                     0.077801
     46 H                     0.073224
     47 H                     0.082567
     48 H                     0.087907
     49 H                     0.085685
     50 H                     0.091946
     51 H                     0.094157
     52 H                     0.088093
     53 H                     0.092522
     54 H                     0.087631
     55 H                     0.099881
     56 H                     0.084349
  ----------------------------------------
  Sum of atomic charges =     0.000000

                    Cartesian Multipole Moments
 -----------------------------------------------------------------
    Charge (ESU x 10^10)
                 0.0000
    Dipole Moment (Debye)
         X       0.0044      Y      -1.6042      Z      -3.6306
       Tot       3.9692
    Quadrupole Moments (Debye-Ang)
        XX    -170.9908     XY       5.1839     YY    -149.3343
        XZ      -0.6061     YZ      -1.7865     ZZ    -162.2931

 Total job time:  70.27s(wall), 3346.66s(cpu)
        *  Thank you very much for using Q-Chem.  Have a nice day.  *
