 Q-Chem 5.0, Q-Chem, Inc., Pleasanton, CA (2017)
 Q-Chem 5.0.1 for Intel X86 EM64T Linux

User input:
--------------------------------------------------------------
$molecule
0  1
O -3.8392522069 -0.7461169861 1.6135677421
C -3.8865160998 -0.6704306223 0.3941236331
C -2.7967856439 -1.1204294164 -0.5538117081
C -1.7989776628 -0.0539691297 -1.034327082
C -1.8942076382 1.3043003097 -0.3754455104
O -0.7637396323 2.0257819834 -0.6341195726
C -0.7856280707 3.3341894869 -0.0537343473
C 0.3814306078 3.499462776 0.9141441812
O 0.782866869 2.216683152 1.4203327512
C 1.7853930752 1.6086457129 0.7388815608
C 1.9939923853 0.1723864865 1.1563920048
C 1.8481795251 -0.8577683404 0.0268771337
C 1.8741841785 -0.301205878 -1.3824640243
O 1.0690684178 -0.5651989358 -2.263748409
O -4.959452871 -0.0659499358 -0.1824105952
O 2.9643338427 0.4276642971 -1.7521868873
O 2.5219260082 2.1929696121 -0.0447901301
C 3.1701250028 0.9504721122 -3.0123036323
C 3.4194200735 -0.0804356691 1.6690398061
C 3.4465315914 -1.3435513283 2.5309552045
C 3.3303968854 -2.4068696183 1.4622561019
C 3.2486012805 -1.5305899416 0.2032507131
O 4.1138394521 -0.4644788104 0.5146767834
H 1.257474737 -0.0427091717 1.9648238684
H 1.2453458753 -1.7379843858 0.2728773952
H 3.8334496479 0.7851966434 2.231296817
H 4.445704909 -1.431777311 3.0136945622
H 2.6533294506 -1.3639771009 3.3092571566
H 4.2883198814 -2.9735347504 1.4306710068
H 2.4871892724 -3.1202631573 1.5841990714
H 3.5397254052 -2.1394169486 -0.6831989443
O -2.8728476313 1.7260950316 0.2277910158
C -6.0371137901 0.4360568141 0.51671479
C -2.1004219554 -2.2278427211 0.205239786
C -1.4515850206 -3.1992279685 -0.7409137663
C -0.5517520402 -2.2510188914 -1.4338389247
C -0.7591296523 -0.9524144453 -0.5079556186
O -1.0964174678 -1.4766715352 0.7438169472
H -3.3424782469 -1.5830029326 -1.4101998877
H -1.7114511297 0.069636667 -2.1375939298
H -5.7030076408 1.2323058424 1.2158024119
H -2.7146775923 -2.8077618964 0.9334985103
H -0.8682871223 -3.9107191292 -0.1116477579
H -2.1397732008 -3.7548257288 -1.4141940955
H 0.4456672987 -2.741713071 -1.4446417923
H -0.8632744815 -2.0525911954 -2.4845016692
H -0.1365646137 -0.1298210064 -0.3846029208
H -6.5368608447 -0.3774514295 1.0848586121
H -6.7641848767 0.871298967 -0.1990635964
H 4.134692217 1.4979378565 -3.025184284
H 2.3530870593 1.6580043186 -3.2696497627
H 3.2120878256 0.1334525107 -3.7638759805
H 1.2027615279 3.9982409773 0.3542747366
H 0.1501958243 4.2116048788 1.7350331864
H -1.6887868099 3.5619456101 0.5517098532
H -0.7591048066 4.1231435935 -0.8355615376
$end

$rem
JOBTYPE                   OPT
METHOD                    B3LYP
DFT_D                     d3_op
BASIS                     STO-3G
GEOM_OPT_MAX_CYCLES       100
GEOM_OPT_TOL_GRADIENT     300
GEOM_OPT_TOL_DISPLACEMENT 1200
GEOM_OPT_TOL_ENERGY       100
SYMMETRY                  False
THRESH                    12
SCF_CONVERGENCE           8
MAX_SUB_FILE_NUM          128
MEM_STATIC                400
MEM_TOTAL                 4000
$end
--------------------------------------------------------------

   15   -1510.0119050817      7.44E-09 Convergence criterion met
 Total energy in the final basis set = -1510.01190508
   15   -1510.0769047009      3.52E-09 Convergence criterion met
 Total energy in the final basis set = -1510.07690470
   14   -1510.1579404112      4.41E-09 Convergence criterion met
 Total energy in the final basis set = -1510.15794041
   13   -1510.2100921369      8.24E-09 Convergence criterion met
 Total energy in the final basis set = -1510.21009214
   13   -1510.2441569862      8.90E-09 Convergence criterion met
 Total energy in the final basis set = -1510.24415699
   13   -1510.2636502669      5.59E-09 Convergence criterion met
 Total energy in the final basis set = -1510.26365027
   13   -1510.2740172192      5.35E-09 Convergence criterion met
 Total energy in the final basis set = -1510.27401722
   14   -1510.2781626966      1.80E-09 Convergence criterion met
   12   -1510.3056496707      4.12E-09 Convergence criterion met
 Total energy in the final basis set = -1510.30564967
   11   -1510.3056641064      6.99E-09 Convergence criterion met
 Total energy in the final basis set = -1510.30566411
   11   -1510.3056778042      8.02E-09 Convergence criterion met
 Total energy in the final basis set = -1510.30567780
   10   -1510.3056832674      8.85E-09 Convergence criterion met
 Total energy in the final basis set = -1510.30568327
   10   -1510.3056938990      9.03E-09 Convergence criterion met
 Total energy in the final basis set = -1510.30569390
   10   -1510.3056973273      4.24E-09 Convergence criterion met
 Total energy in the final basis set = -1510.30569733

             Standard Nuclear Orientation (Angstroms)
    I     Atom           X                Y                Z
 ----------------------------------------------------------------
    1      O      -1.4588084971    -0.7172392388     1.7823053792
    2      C      -2.5280745609    -0.7699482449     1.1271119525
    3      C      -2.7108157558    -1.2170577046    -0.3714310812
    4      C      -2.0465435431    -0.1993871321    -1.3883917173
    5      C      -1.8556120089     1.2082075395    -0.7274980273
    6      O      -1.1648207169     2.1003531219    -1.6058209202
    7      C      -1.1704252264     3.4735739960    -1.0334115754
    8      C       0.0729788164     3.7120587189    -0.0911619618
    9      O       0.2390359211     2.5333191730     0.7885385705
   10      C       1.2581615081     1.6804864235     0.2467906504
   11      C       1.2026903960     0.2895713463     0.9351693945
   12      C       1.9859697459    -0.8119654124     0.1091339638
   13      C       2.5585190279    -0.2779742737    -1.2507948449
   14      O       1.9172980141    -0.1543913461    -2.3281716990
   15      O      -3.8205092564    -0.5575389557     1.6990221821
   16      O       3.9623008736    -0.0488239859    -1.1531262443
   17      O       2.0495790191     2.0413928976    -0.6568526421
   18      C       4.4673300260     0.5153871555    -2.4252412613
   19      C       2.0017768697     0.2537066322     2.3089448600
   20      C       1.5695925863    -1.0674768856     3.0597414786
   21      C       2.3710262592    -2.1515244376     2.2480144300
   22      C       3.0845124894    -1.2541487380     1.1601082696
   23      O       3.3982839978    -0.0054126385     1.8950254090
   24      H       0.1430336023    -0.0146935388     1.1024801080
   25      H       1.2685821298    -1.6232736102    -0.1332347403
   26      H       1.9345353887     1.1826440505     2.9079308393
   27      H       1.8812922632    -1.0369292687     4.1158807756
   28      H       0.4785650091    -1.2165902133     3.0054163463
   29      H       3.1168831458    -2.6607695315     2.8790209659
   30      H       1.7152142610    -2.9088332824     1.7898286761
   31      H       4.0040131808    -1.6818980037     0.7170625436
   32      O      -2.3460320901     1.5508859390     0.3750058777
   33      C      -3.6781947980    -0.0841557745     3.0950214334
   34      C      -1.8417303708    -2.5110563095    -0.6468997929
   35      C      -2.1294754422    -3.0417808137    -2.1078319964
   36      C      -1.2898163023    -2.0288689677    -2.9756182986
   37      C      -0.7691004887    -1.0284057635    -1.8712083938
   38      O      -0.4817551532    -1.9435032821    -0.7410252711
   39      H      -3.7867426842    -1.3629469556    -0.5696353851
   40      H      -2.7159815477    -0.0378569290    -2.2539819832
   41      H      -3.1135895563     0.8694694129     3.1359242244
   42      H      -1.8912788307    -3.2755270774     0.1528600738
   43      H      -1.7661627818    -4.0754276943    -2.2212109780
   44      H      -3.2044058797    -3.0177423823    -2.3491000953
   45      H      -0.4380295006    -2.5303566563    -3.4627088370
   46      H      -1.8929266031    -1.5278711601    -3.7493916465
   47      H       0.1763157023    -0.4739095351    -2.1277157852
   48      H      -3.1595203336    -0.8316660668     3.7295594040
   49      H      -4.7057223269     0.0733585546     3.4709131824
   50      H       5.5560269576     0.6496167980    -2.2881252844
   51      H       3.9931725103     1.4945022685    -2.6403194720
   52      H       4.2784965549    -0.1661634696    -3.2797695374
   53      H       0.9975820324     3.8399787627    -0.6939191611
   54      H      -0.1025178757     4.6007488296     0.5480075609
   55      H      -2.1075039387     3.6320238287    -0.4599248345
   56      H      -1.1296308413     4.1675860819    -1.8972041081
 ----------------------------------------------------------------

    9   -1510.3056975088      4.12E-09 Convergence criterion met
 Total energy in the final basis set = -1510.30569751
 Final energy is   -1510.30569750878
 **  OPTIMIZATION CONVERGED  **

                    Orbital Energies (a.u.)
 --------------------------------------------------------------

 Alpha MOs
 -- Occupied --
-18.945 -18.932 -18.931 -18.925 -18.887 -18.885 -18.875 -18.869
-18.868 -18.857 -10.107 -10.100 -10.094 -10.089 -10.076 -10.069
-10.061 -10.060 -10.052 -10.043 -10.041 -10.038 -10.037 -10.035
-10.018 -10.012 -10.009 -10.007 -10.002  -9.999  -1.024  -1.009
 -1.005  -0.997  -0.970  -0.952  -0.944  -0.934  -0.931  -0.921
 -0.762  -0.745  -0.722  -0.715  -0.702  -0.697  -0.686  -0.660
 -0.648  -0.615  -0.591  -0.569  -0.543  -0.535  -0.530  -0.520
 -0.508  -0.499  -0.486  -0.474  -0.459  -0.453  -0.448  -0.433
 -0.430  -0.422  -0.414  -0.413  -0.409  -0.405  -0.399  -0.399
 -0.392  -0.379  -0.368  -0.365  -0.359  -0.354  -0.351  -0.347
 -0.343  -0.340  -0.327  -0.322  -0.317  -0.315  -0.311  -0.308
 -0.300  -0.297  -0.294  -0.288  -0.285  -0.278  -0.273  -0.265
 -0.264  -0.255  -0.249  -0.245  -0.236  -0.228  -0.212  -0.195
 -0.174  -0.168  -0.163  -0.160  -0.154  -0.148  -0.143  -0.138
 -0.126

          Ground-State Mulliken Net Atomic Charges

     Atom                 Charge (a.u.)
  ----------------------------------------
      1 O                    -0.225925
      2 C                     0.222542
      3 C                    -0.080013
      4 C                    -0.081658
      5 C                     0.212226
      6 O                    -0.165672
      7 C                    -0.051693
      8 C                    -0.055868
      9 O                    -0.170888
     10 C                     0.209774
     11 C                    -0.093935
     12 C                    -0.095389
     13 C                     0.221104
     14 O                    -0.230126
     15 O                    -0.167335
     16 O                    -0.163525
     17 O                    -0.212878
     18 C                    -0.126208
     19 C                     0.025468
     20 C                    -0.146717
     21 C                    -0.143519
     22 C                     0.023984
     23 O                    -0.193156
     24 H                     0.113676
     25 H                     0.109967
     26 H                     0.078916
     27 H                     0.070988
     28 H                     0.087126
     29 H                     0.072234
     30 H                     0.073647
     31 H                     0.083869
     32 O                    -0.207871
     33 C                    -0.127653
     34 C                     0.026881
     35 C                    -0.145538
     36 C                    -0.142970
     37 C                     0.005328
     38 O                    -0.197178
     39 H                     0.085866
     40 H                     0.085769
     41 H                     0.095037
     42 H                     0.081279
     43 H                     0.076667
     44 H                     0.072336
     45 H                     0.077837
     46 H                     0.071510
     47 H                     0.120352
     48 H                     0.087180
     49 H                     0.088934
     50 H                     0.088388
     51 H                     0.093767
     52 H                     0.086397
     53 H                     0.101989
     54 H                     0.088548
     55 H                     0.095119
     56 H                     0.091009
  ----------------------------------------
  Sum of atomic charges =    -0.000000

                    Cartesian Multipole Moments
 -----------------------------------------------------------------
    Charge (ESU x 10^10)
                -0.0000
    Dipole Moment (Debye)
         X      -2.7835      Y       0.1013      Z      -0.8367
       Tot       2.9083
    Quadrupole Moments (Debye-Ang)
        XX    -159.0729     XY      -0.9313     YY    -146.4621
        XZ      -3.2077     YZ      -1.0333     ZZ    -155.9158

 Total job time:  183.54s(wall), 8762.62s(cpu)
        *  Thank you very much for using Q-Chem.  Have a nice day.  *
