 Q-Chem 5.0, Q-Chem, Inc., Pleasanton, CA (2017)
 Q-Chem 5.0.1 for Intel X86 EM64T Linux

User input:
--------------------------------------------------------------
$molecule
0  1
O -3.94934 -3.66094 2.70899
C -3.26408 -4.56952 2.26188
C -3.36658 -6.02376 2.66595
C -2.13077 -6.6589 3.32415
C -0.99299 -5.7228 3.66656
O -0.32178 -6.18911 4.76085
C 0.85476 -5.4323 5.06454
C 0.5231 -4.31909 6.05293
O -0.86277 -3.95978 5.93839
C -1.41303 -3.39897 7.04376
C -2.81689 -3.88576 7.31374
C -3.09183 -4.29434 8.7683
C -2.07125 -3.83193 9.78873
O -1.37814 -4.56422 10.48004
O -2.41323 -4.29299 1.23844
O -1.95088 -2.48817 9.97775
O -0.85997 -2.4884 7.64284
C -1.09193 -1.89837 10.8818
C -3.90871 -2.80916 7.12737
C -5.24437 -3.48661 6.82274
C -5.55002 -4.12679 8.16468
C -4.41112 -3.5431 9.01215
O -4.14644 -2.2952 8.41554
H -3.03162 -4.70817 6.6068
H -3.17049 -5.39999 8.86515
H -3.66205 -2.06459 6.33929
H -5.97897 -2.66868 6.64349
H -5.25853 -4.17789 5.95387
H -6.54293 -3.76211 8.50891
H -5.5235 -5.23817 8.17613
H -4.68487 -3.5225 10.09013
O -0.50328 -4.96077 2.84265
C -2.21953 -3.03579 0.70501
C -4.43941 -6.28846 3.74047
C -4.91165 -7.73813 3.6597
C -3.69662 -8.45766 4.20165
C -2.81112 -7.26413 4.58023
O -3.73024 -6.26995 4.94977
H -3.66135 -6.5638 1.73784
H -1.68615 -7.45061 2.68117
H -1.83751 -2.34418 1.48617
H -5.31394 -5.60522 3.67383
H -5.74586 -7.85287 4.38878
H -5.254 -8.07104 2.6563
H -4.00216 -9.01993 5.1123
H -3.18898 -9.14128 3.48726
H -2.10346 -7.58741 5.37226
H -3.17282 -2.64464 0.28964
H -1.47257 -3.09892 -0.1126
H -1.20238 -0.7963 10.82194
H -0.04087 -2.16629 10.64136
H -1.33779 -2.22746 11.91398
H 0.64393 -4.80607 7.04951
H 1.22085 -3.45454 6.01955
H 1.31487 -4.96562 4.16623
H 1.66273 -6.08759 5.45479
$end

$opt
CONSTRAINT
tors           1           2           3           4    -117.633
tors           3           4           5           6    +149.796
tors           4           5           6           7    +173.877
tors           5           6           7           8     +91.832
tors           6           7           8           9     -25.718
tors           7           8           9          10    +155.400
tors           8           9          10          11    -139.742
tors           9          10          11          12    +133.079
tors          11          12          13          14    -117.686
ENDCONSTRAINT
$end

$rem
JOBTYPE                   OPT
METHOD                    B3LYP
DFT_D                     d3_op
BASIS                     STO-3G
GEOM_OPT_MAX_CYCLES       100
GEOM_OPT_TOL_GRADIENT     300
GEOM_OPT_TOL_DISPLACEMENT 1200
GEOM_OPT_TOL_ENERGY       100
SYMMETRY                  False
THRESH                    12
SCF_CONVERGENCE           8
MAX_SUB_FILE_NUM          128
MEM_STATIC                400
MEM_TOTAL                 4000
$end
--------------------------------------------------------------

   15   -1510.1353388859      7.04E-09 Convergence criterion met
 Total energy in the final basis set = -1510.13533889
   14   -1510.2060483445      7.98E-09 Convergence criterion met
 Total energy in the final basis set = -1510.20604834
   15   -1510.2403127210      1.90E-09 Convergence criterion met
 Total energy in the final basis set = -1510.24031272
   14   -1510.2608456269      2.22E-09 Convergence criterion met
 Total energy in the final basis set = -1510.26084563
   13   -1510.2678184085      9.42E-09 Convergence criterion met
 Total energy in the final basis set = -1510.26781841
   13   -1510.2706865516      5.40E-09 Convergence criterion met
 Total energy in the final basis set = -1510.27068655
   13   -1510.2720083120      5.28E-09 Convergence criterion met
 Total energy in the final basis set = -1510.27200831
   13   -1510.2729360424      2.95E-09 Convergence criterion met
   11   -1510.2743827901      3.36E-09 Convergence criterion met
 Total energy in the final basis set = -1510.27438279
   10   -1510.2743958277      4.87E-09 Convergence criterion met
 Total energy in the final basis set = -1510.27439583
   10   -1510.2744085958      9.42E-09 Convergence criterion met
 Total energy in the final basis set = -1510.27440860
   10   -1510.2744177267      8.65E-09 Convergence criterion met
 Total energy in the final basis set = -1510.27441773
    9   -1510.2744229300      8.29E-09 Convergence criterion met
 Total energy in the final basis set = -1510.27442293
    9   -1510.2744245215      6.35E-09 Convergence criterion met
 Total energy in the final basis set = -1510.27442452

             Standard Nuclear Orientation (Angstroms)
    I     Atom           X                Y                Z
 ----------------------------------------------------------------
    1      O       2.8319587191     0.3027907695     2.4965939226
    2      C       3.5269951226     0.0388484994     1.4924930275
    3      C       3.4557009415     0.7217011612     0.0781130610
    4      C       3.0521179980    -0.2438445542    -1.1099317677
    5      C       2.3410122589    -1.5440400998    -0.5783993323
    6      O       1.4155941935    -2.0039107650    -1.5649328000
    7      C       0.8363669098    -3.3069619101    -1.1596300677
    8      C      -0.5007692343    -3.0688522928    -0.3497443499
    9      O      -0.3819671014    -1.7187475146     0.2504214983
   10      C      -1.6910543182    -1.1624930212     0.5092751709
   11      C      -1.6463148878     0.3586836743     0.1290565798
   12      C      -2.8713598484     0.8521924081    -0.7541917388
   13      C      -4.0656954012    -0.1576682907    -0.8933043642
   14      O      -4.4754454199    -0.6780095506    -1.9558054021
   15      O       4.6914691516    -0.7992939756     1.5060009844
   16      O      -4.7395386123    -0.2724037067     0.3618721802
   17      O      -2.6669925745    -1.8675772346     0.8425060333
   18      C      -5.8538594343    -1.2396907637     0.2513095256
   19      C      -1.7296650321     1.3770549020     1.3526637346
   20      C      -1.0988135547     2.7345220408     0.8440051388
   21      C      -2.2483140940     3.2660367883    -0.0887580085
   22      C      -3.3311185184     2.1286401378     0.0784927202
   23      O      -3.1685175423     1.6892780623     1.4816668130
   24      H      -0.6795728907     0.5178025140    -0.3902756048
   25      H      -2.5407189508     1.1163927525    -1.7742144455
   26      H      -1.3252031958     0.9919487308     2.3087553441
   27      H      -0.9042303648     3.4179326866     1.6855486307
   28      H      -0.1654904568     2.5547298057     0.2881291346
   29      H      -2.6475845023     4.2306653321     0.2632879284
   30      H      -1.9255737244     3.3779548727    -1.1362588748
   31      H      -4.3759943905     2.4420984968    -0.1105016131
   32      O       2.5244199948    -2.1072761480     0.5231535985
   33      C       4.7777541251    -1.5137814037     2.7982341557
   34      C       2.3585233567     1.8539211275    -0.0466698997
   35      C       2.8309163986     2.8503534203    -1.1721296082
   36      C       2.6613152981     1.9472253420    -2.4517118074
   37      C       1.9738814661     0.6613854390    -1.8428191054
   38      O       1.2002802565     1.1819131586    -0.6876995263
   39      H       4.4600169706     1.1397067204    -0.1177953678
   40      H       3.9104438958    -0.5185815875    -1.7495949918
   41      H       3.9424420124    -2.2354928342     2.9083129151
   42      H       2.0612406446     2.3057672647     0.9193707680
   43      H       2.1651606773     3.7276482007    -1.2098687888
   44      H       3.8665164473     3.1950165019    -1.0238110037
   45      H       2.0063372517     2.4195942666    -3.2006257071
   46      H       3.6246222380     1.7061396235    -2.9289268564
   47      H       1.3117818212     0.0982070859    -2.5279465908
   48      H       4.7568999584    -0.8122152647     3.6570745592
   49      H       5.7388515993    -2.0599353327     2.7853102487
   50      H      -6.3895001785    -1.1977924129     1.2172773111
   51      H      -5.4750054821    -2.2687603423     0.0846618561
   52      H      -6.5463182902    -0.9770700831    -0.5745671816
   53      H      -1.3805913352    -3.1173574607    -1.0256924940
   54      H      -0.6200316766    -3.8585333830     0.4255580336
   55      H       1.5646364583    -3.8618388044    -0.5325542098
   56      H       0.6302895509    -3.8677288570    -2.0932168639
 ----------------------------------------------------------------

    9   -1510.2744240967      3.83E-09 Convergence criterion met
 Total energy in the final basis set = -1510.27442410
 Final energy is   -1510.27442409670
 **  OPTIMIZATION CONVERGED  **

                    Orbital Energies (a.u.)
 --------------------------------------------------------------

 Alpha MOs
 -- Occupied --
-18.942 -18.922 -18.922 -18.913 -18.900 -18.885 -18.877 -18.876
-18.866 -18.858 -10.108 -10.094 -10.092 -10.085 -10.078 -10.071
-10.067 -10.065 -10.055 -10.050 -10.050 -10.046 -10.046 -10.038
-10.028 -10.027 -10.026 -10.018 -10.010 -10.003  -1.022  -1.003
 -1.000  -0.995  -0.980  -0.959  -0.945  -0.928  -0.927  -0.921
 -0.769  -0.751  -0.732  -0.718  -0.709  -0.704  -0.690  -0.656
 -0.647  -0.616  -0.595  -0.574  -0.551  -0.544  -0.535  -0.528
 -0.512  -0.502  -0.487  -0.475  -0.463  -0.461  -0.454  -0.438
 -0.429  -0.424  -0.419  -0.408  -0.406  -0.402  -0.398  -0.398
 -0.392  -0.382  -0.370  -0.367  -0.358  -0.354  -0.347  -0.342
 -0.340  -0.336  -0.334  -0.332  -0.329  -0.321  -0.317  -0.314
 -0.313  -0.303  -0.299  -0.294  -0.290  -0.280  -0.277  -0.271
 -0.270  -0.257  -0.247  -0.243  -0.241  -0.234  -0.220  -0.183
 -0.170  -0.165  -0.164  -0.159  -0.156  -0.145  -0.144  -0.137
 -0.132

          Ground-State Mulliken Net Atomic Charges

     Atom                 Charge (a.u.)
  ----------------------------------------
      1 O                    -0.216312
      2 C                     0.215659
      3 C                    -0.081137
      4 C                    -0.074977
      5 C                     0.222115
      6 O                    -0.169488
      7 C                    -0.048776
      8 C                    -0.047250
      9 O                    -0.181338
     10 C                     0.209861
     11 C                    -0.089696
     12 C                    -0.080468
     13 C                     0.205435
     14 O                    -0.222523
     15 O                    -0.173130
     16 O                    -0.157817
     17 O                    -0.202485
     18 C                    -0.125900
     19 C                     0.026854
     20 C                    -0.148514
     21 C                    -0.144896
     22 C                     0.027449
     23 O                    -0.185647
     24 H                     0.106706
     25 H                     0.081918
     26 H                     0.084045
     27 H                     0.072348
     28 H                     0.083935
     29 H                     0.074555
     30 H                     0.070991
     31 H                     0.081081
     32 O                    -0.206817
     33 C                    -0.127953
     34 C                     0.023408
     35 C                    -0.142376
     36 C                    -0.145563
     37 C                     0.024697
     38 O                    -0.194240
     39 H                     0.084530
     40 H                     0.088529
     41 H                     0.092687
     42 H                     0.092791
     43 H                     0.078376
     44 H                     0.075700
     45 H                     0.078830
     46 H                     0.075228
     47 H                     0.093839
     48 H                     0.087731
     49 H                     0.086469
     50 H                     0.090097
     51 H                     0.089067
     52 H                     0.086070
     53 H                     0.084538
     54 H                     0.085848
     55 H                     0.096028
     56 H                     0.089890
  ----------------------------------------
  Sum of atomic charges =    -0.000000

                    Cartesian Multipole Moments
 -----------------------------------------------------------------
    Charge (ESU x 10^10)
                 0.0000
    Dipole Moment (Debye)
         X       3.3077      Y       0.2226      Z      -2.5689
       Tot       4.1940
    Quadrupole Moments (Debye-Ang)
        XX    -156.0986     XY       0.7386     YY    -147.4289
        XZ      -2.2523     YZ      -2.0381     ZZ    -163.2192

 Total job time:  63.49s(wall), 3023.25s(cpu)
        *  Thank you very much for using Q-Chem.  Have a nice day.  *
