 Q-Chem 5.0, Q-Chem, Inc., Pleasanton, CA (2017)
 Q-Chem 5.0.1 for Intel X86 EM64T Linux

User input:
--------------------------------------------------------------
$molecule
0  1
O 2.8319587191 0.3027907695 2.4965939226
C 3.5269951226 0.0388484994 1.4924930275
C 3.4557009415 0.7217011612 0.078113061
C 3.052117998 -0.2438445542 -1.1099317677
C 2.3410122589 -1.5440400998 -0.5783993323
O 1.4155941935 -2.003910765 -1.5649328
C 0.8363669098 -3.3069619101 -1.1596300677
C -0.5007692343 -3.0688522928 -0.3497443499
O -0.3819671014 -1.7187475146 0.2504214983
C -1.6910543182 -1.1624930212 0.5092751709
C -1.6463148878 0.3586836743 0.1290565798
C -2.8713598484 0.8521924081 -0.7541917388
C -4.0656954012 -0.1576682907 -0.8933043642
O -4.4754454199 -0.6780095506 -1.9558054021
O 4.6914691516 -0.7992939756 1.5060009844
O -4.7395386123 -0.2724037067 0.3618721802
O -2.6669925745 -1.8675772346 0.8425060333
C -5.8538594343 -1.2396907637 0.2513095256
C -1.7296650321 1.377054902 1.3526637346
C -1.0988135547 2.7345220408 0.8440051388
C -2.248314094 3.2660367883 -0.0887580085
C -3.3311185184 2.1286401378 0.0784927202
O -3.1685175423 1.6892780623 1.481666813
H -0.6795728907 0.517802514 -0.3902756048
H -2.5407189508 1.1163927525 -1.7742144455
H -1.3252031958 0.9919487308 2.3087553441
H -0.9042303648 3.4179326866 1.6855486307
H -0.1654904568 2.5547298057 0.2881291346
H -2.6475845023 4.2306653321 0.2632879284
H -1.9255737244 3.3779548727 -1.1362588748
H -4.3759943905 2.4420984968 -0.1105016131
O 2.5244199948 -2.107276148 0.5231535985
C 4.7777541251 -1.5137814037 2.7982341557
C 2.3585233567 1.8539211275 -0.0466698997
C 2.8309163986 2.8503534203 -1.1721296082
C 2.6613152981 1.947225342 -2.4517118074
C 1.9738814661 0.661385439 -1.8428191054
O 1.2002802565 1.1819131586 -0.6876995263
H 4.4600169706 1.1397067204 -0.1177953678
H 3.9104438958 -0.5185815875 -1.7495949918
H 3.9424420124 -2.2354928342 2.9083129151
H 2.0612406446 2.3057672647 0.919370768
H 2.1651606773 3.7276482007 -1.2098687888
H 3.8665164473 3.1950165019 -1.0238110037
H 2.0063372517 2.4195942666 -3.2006257071
H 3.624622238 1.7061396235 -2.9289268564
H 1.3117818212 0.0982070859 -2.5279465908
H 4.7568999584 -0.8122152647 3.6570745592
H 5.7388515993 -2.0599353327 2.7853102487
H -6.3895001785 -1.1977924129 1.2172773111
H -5.4750054821 -2.2687603423 0.0846618561
H -6.5463182902 -0.9770700831 -0.5745671816
H -1.3805913352 -3.1173574607 -1.025692494
H -0.6200316766 -3.858533383 0.4255580336
H 1.5646364583 -3.8618388044 -0.5325542098
H 0.6302895509 -3.867728857 -2.0932168639
$end

$rem
JOBTYPE                   OPT
METHOD                    B3LYP
DFT_D                     d3_op
BASIS                     STO-3G
GEOM_OPT_MAX_CYCLES       100
GEOM_OPT_TOL_GRADIENT     300
GEOM_OPT_TOL_DISPLACEMENT 1200
GEOM_OPT_TOL_ENERGY       100
SYMMETRY                  False
THRESH                    12
SCF_CONVERGENCE           8
MAX_SUB_FILE_NUM          128
MEM_STATIC                400
MEM_TOTAL                 4000
$end
--------------------------------------------------------------

   16   -1510.2743477677      5.45E-09 Convergence criterion met
 Total energy in the final basis set = -1510.27434777
   14   -1510.2790677125      3.17E-09 Convergence criterion met
 Total energy in the final basis set = -1510.27906771
   14   -1510.2846983895      2.38E-09 Convergence criterion met
 Total energy in the final basis set = -1510.28469839
   14   -1510.2876636500      2.42E-09 Convergence criterion met
 Total energy in the final basis set = -1510.28766365
   12   -1510.2898617580      8.79E-09 Convergence criterion met
 Total energy in the final basis set = -1510.28986176
   14   -1510.2914814885      2.23E-09 Convergence criterion met
 Total energy in the final basis set = -1510.29148149
   13   -1510.2932154898      7.28E-09 Convergence criterion met
 Total energy in the final basis set = -1510.29321549
   13   -1510.2945711327      9.63E-09 Convergence criterion met
   12   -1510.3056305522      9.17E-09 Convergence criterion met
 Total energy in the final basis set = -1510.30563055
   12   -1510.3056353084      8.78E-09 Convergence criterion met
 Total energy in the final basis set = -1510.30563531
   12   -1510.3056225639      5.98E-09 Convergence criterion met
 Total energy in the final basis set = -1510.30562256
   11   -1510.3056592435      6.23E-09 Convergence criterion met
 Total energy in the final basis set = -1510.30565924
   11   -1510.3056626499      5.07E-09 Convergence criterion met
 Total energy in the final basis set = -1510.30566265
   11   -1510.3056656070      2.12E-09 Convergence criterion met
 Total energy in the final basis set = -1510.30566561

             Standard Nuclear Orientation (Angstroms)
    I     Atom           X                Y                Z
 ----------------------------------------------------------------
    1      O      -2.3207134342    -1.5718023357     1.6471774849
    2      C      -3.0266321158    -0.8994189986     0.8630999418
    3      C      -3.0621237529    -1.0092179523    -0.7075667679
    4      C      -2.3143915535     0.1648964479    -1.4645028868
    5      C      -1.7519698853     1.2575561727    -0.4950091129
    6      O      -1.3847261034     2.4011068880    -1.2699577736
    7      C      -0.7401428932     3.4376994522    -0.4246284633
    8      C       0.8240003469     3.2498612810    -0.3938478305
    9      O       1.1654608073     2.0402281840     0.3852526252
   10      C       1.2596717076     0.9045216518    -0.4887469459
   11      C       1.1894708255    -0.4294273720     0.3285209553
   12      C       2.4475305368    -1.3700972997     0.1259191166
   13      C       3.6127129558    -0.6858424200    -0.6582922317
   14      O       4.3779590403    -1.1977879233    -1.5029217515
   15      O      -4.0666806604    -0.0059967161     1.2754905621
   16      O       3.6887959133     0.6852998706    -0.2338385551
   17      O       1.2485190441     1.0040215672    -1.7417393016
   18      C       4.6857957582     1.4239715107    -1.0384957397
   19      C       1.1860767163    -0.2381876496     1.9009241094
   20      C       0.5706774486    -1.5362483269     2.5431196965
   21      C       1.7287516351    -2.5697248446     2.2822449366
   22      C       2.8402062541    -1.6384061877     1.6448742183
   23      O       2.6197080300    -0.3205948218     2.2771539799
   24      H       0.2781991193    -0.9650232252    -0.0361202954
   25      H       2.1832717361    -2.3038355323    -0.4007629863
   26      H       0.7463845481     0.7202439145     2.2343377438
   27      H       0.4150579371    -1.3833884646     3.6230604158
   28      H      -0.3977272366    -1.8032496405     2.0809632140
   29      H       2.0926422173    -3.0206435330     3.2191715335
   30      H       1.4304318688    -3.3780901892     1.5953110951
   31      H       3.8839821272    -1.9761279619     1.7974214585
   32      O      -1.6326558125     1.1689600612     0.7489129178
   33      C      -4.0172658666     0.1716917376     2.7440841053
   34      C      -2.2225446848    -2.2616997313    -1.1858329927
   35      C      -2.5564807890    -2.5608977885    -2.6983488846
   36      C      -1.7676812498    -1.4059510232    -3.4250093394
   37      C      -1.1464118486    -0.6367446525    -2.1996740809
   38      O      -0.8399464612    -1.7293624290    -1.2448276159
   39      H      -4.1183174250    -1.0676935345    -1.0255706728
   40      H      -2.9713913941     0.6611541689    -2.2004420559
   41      H      -3.0716110685     0.6629880468     3.0523028532
   42      H      -2.2702599187    -3.1283824041    -0.4986730811
   43      H      -2.1769069683    -3.5535315896    -2.9884639813
   44      H      -3.6398053260    -2.5257117890    -2.8956859537
   45      H      -0.9678253685    -1.8085761790    -4.0666634776
   46      H      -2.4202439023    -0.7619393754    -4.0355933801
   47      H      -0.2233076969    -0.0368671505    -2.3824452360
   48      H      -4.1039605552    -0.7969718070     3.2771790702
   49      H      -4.8748439868     0.8187252801     3.0047008487
   50      H       4.8745122789     2.3733472454    -0.5044000291
   51      H       4.2907726893     1.6424182291    -2.0525283381
   52      H       5.6296900069     0.8524263565    -1.1416808000
   53      H       1.2099534434     3.1540280056    -1.4314546623
   54      H       1.2923065634     4.1151068478     0.1177560260
   55      H      -1.1404588222     3.3882483398     0.6104208234
   56      H      -0.9919358857     4.4144567811    -0.8859442149
 ----------------------------------------------------------------

   11   -1510.3056646088      2.45E-09 Convergence criterion met
 Total energy in the final basis set = -1510.30566461
 Final energy is   -1510.30566460883
 **  OPTIMIZATION CONVERGED  **

                    Orbital Energies (a.u.)
 --------------------------------------------------------------

 Alpha MOs
 -- Occupied --
-18.945 -18.929 -18.929 -18.929 -18.901 -18.889 -18.870 -18.868
-18.867 -18.861 -10.111 -10.100 -10.094 -10.090 -10.078 -10.071
-10.065 -10.059 -10.058 -10.055 -10.045 -10.043 -10.039 -10.034
-10.024 -10.022 -10.021 -10.006 -10.001  -9.988  -1.026  -1.008
 -1.006  -0.999  -0.979  -0.951  -0.948  -0.932  -0.931  -0.928
 -0.768  -0.746  -0.728  -0.718  -0.705  -0.701  -0.683  -0.660
 -0.652  -0.618  -0.593  -0.574  -0.548  -0.541  -0.529  -0.518
 -0.514  -0.501  -0.487  -0.473  -0.465  -0.458  -0.453  -0.439
 -0.431  -0.423  -0.415  -0.414  -0.408  -0.406  -0.404  -0.397
 -0.391  -0.382  -0.371  -0.365  -0.358  -0.355  -0.352  -0.348
 -0.345  -0.341  -0.335  -0.332  -0.328  -0.315  -0.314  -0.308
 -0.307  -0.302  -0.293  -0.288  -0.284  -0.278  -0.277  -0.275
 -0.265  -0.258  -0.250  -0.241  -0.239  -0.235  -0.213  -0.196
 -0.172  -0.170  -0.168  -0.158  -0.155  -0.151  -0.151  -0.141
 -0.125

          Ground-State Mulliken Net Atomic Charges

     Atom                 Charge (a.u.)
  ----------------------------------------
      1 O                    -0.219146
      2 C                     0.219655
      3 C                    -0.082003
      4 C                    -0.080355
      5 C                     0.211259
      6 O                    -0.168918
      7 C                    -0.052818
      8 C                    -0.053776
      9 O                    -0.168051
     10 C                     0.215565
     11 C                    -0.096160
     12 C                    -0.079437
     13 C                     0.210006
     14 O                    -0.213277
     15 O                    -0.172864
     16 O                    -0.165126
     17 O                    -0.237242
     18 C                    -0.129166
     19 C                     0.022317
     20 C                    -0.153150
     21 C                    -0.144536
     22 C                     0.024917
     23 O                    -0.192907
     24 H                     0.112869
     25 H                     0.085874
     26 H                     0.090107
     27 H                     0.069292
     28 H                     0.096307
     29 H                     0.072447
     30 H                     0.071527
     31 H                     0.077534
     32 O                    -0.208561
     33 C                    -0.128350
     34 C                     0.026101
     35 C                    -0.143833
     36 C                    -0.143362
     37 C                     0.014198
     38 O                    -0.190128
     39 H                     0.086039
     40 H                     0.088778
     41 H                     0.093622
     42 H                     0.089308
     43 H                     0.079454
     44 H                     0.074398
     45 H                     0.081332
     46 H                     0.075096
     47 H                     0.109789
     48 H                     0.088781
     49 H                     0.087832
     50 H                     0.089881
     51 H                     0.086610
     52 H                     0.093345
     53 H                     0.100496
     54 H                     0.089549
     55 H                     0.098561
     56 H                     0.090320
  ----------------------------------------
  Sum of atomic charges =    -0.000000

                    Cartesian Multipole Moments
 -----------------------------------------------------------------
    Charge (ESU x 10^10)
                -0.0000
    Dipole Moment (Debye)
         X      -3.0947      Y       1.6356      Z      -1.1310
       Tot       3.6785
    Quadrupole Moments (Debye-Ang)
        XX    -156.1190     XY       5.8807     YY    -148.0050
        XZ       1.8508     YZ      -0.4945     ZZ    -161.4613

 Total job time:  154.20s(wall), 7361.93s(cpu)
        *  Thank you very much for using Q-Chem.  Have a nice day.  *
