 Q-Chem 5.0, Q-Chem, Inc., Pleasanton, CA (2017)
 Q-Chem 5.0.1 for Intel X86 EM64T Linux

User input:
--------------------------------------------------------------
$molecule
0  1
O -3.94934 -3.66094 2.70899
C -3.26408 -4.56952 2.26188
C -3.36658 -6.02376 2.66595
C -2.11996 -6.89977 2.46002
C -0.85516 -6.18465 2.03935
O 0.17428 -7.07759 1.94808
C 1.37398 -6.50189 1.42031
C 2.39982 -6.31263 2.53295
O 1.74897 -6.36224 3.81233
C 2.53056 -6.75305 4.84941
C 1.74017 -7.34918 5.98983
C 2.30021 -8.66618 6.54675
C 3.72226 -9.00199 6.14465
O 4.06258 -9.4703 5.06788
O -2.80371 -4.38378 0.99197
O 4.69531 -8.84143 7.08562
O 3.73096 -6.51439 4.90239
C 6.03145 -9.12247 6.88915
C 1.74094 -6.46977 7.25658
C 0.49418 -6.77467 8.08421
C 0.81667 -8.17415 8.56668
C 2.25736 -8.31373 8.05354
O 2.75888 -7.00006 8.06563
H 0.68377 -7.45549 5.65714
H 1.6714 -9.55529 6.32207
H 1.80468 -5.38108 7.03891
H 0.51501 -6.0816 8.95604
H -0.47983 -6.66834 7.55934
H 0.77752 -8.17787 9.6785
H 0.1691 -8.97907 8.15622
H 2.8083 -9.05329 8.67556
O -0.67336 -4.97467 2.10556
C -2.81291 -3.18073 0.31524
C -3.54473 -6.17672 4.1933
C -4.19306 -7.52321 4.51136
C -3.0455 -8.46461 4.21711
C -1.94067 -7.45813 3.88267
O -2.2382 -6.34462 4.68724
H -4.26565 -6.43194 2.15186
H -2.30665 -7.69086 1.69982
H -2.21038 -2.42824 0.86727
H -4.13816 -5.35779 4.65536
H -4.39264 -7.5424 5.60692
H -5.13605 -7.73525 3.96307
H -2.79556 -9.01684 5.15049
H -3.21894 -9.18153 3.38556
H -0.94588 -7.92546 4.03955
H -3.85498 -2.81482 0.19519
H -2.36915 -3.32672 -0.69083
H 6.59098 -8.89686 7.81998
H 6.43677 -8.49516 6.06665
H 6.16455 -10.1977 6.64341
H 3.03369 -7.22801 2.45856
H 3.07259 -5.43785 2.39811
H 1.21672 -5.4967 0.96694
H 1.77721 -7.10346 0.57736
$end

$opt
CONSTRAINT
tors           1           2           3           4    -155.929
tors           3           4           5           6    +177.583
tors           4           5           6           7    +173.877
tors           5           6           7           8    +106.250
tors           6           7           8           9     -17.972
tors           7           8           9          10    +154.053
tors           8           9          10          11    -155.386
tors           9          10          11          12    +133.079
tors          11          12          13          14     -78.819
ENDCONSTRAINT
$end

$rem
JOBTYPE                   OPT
METHOD                    B3LYP
DFT_D                     d3_op
BASIS                     STO-3G
GEOM_OPT_MAX_CYCLES       100
GEOM_OPT_TOL_GRADIENT     300
GEOM_OPT_TOL_DISPLACEMENT 1200
GEOM_OPT_TOL_ENERGY       100
SYMMETRY                  False
THRESH                    12
SCF_CONVERGENCE           8
MAX_SUB_FILE_NUM          128
MEM_STATIC                400
MEM_TOTAL                 4000
$end
--------------------------------------------------------------

   15   -1510.1295098951      8.38E-09 Convergence criterion met
 Total energy in the final basis set = -1510.12950990
   14   -1510.2003085523      6.47E-09 Convergence criterion met
 Total energy in the final basis set = -1510.20030855
   14   -1510.2388995930      6.29E-09 Convergence criterion met
 Total energy in the final basis set = -1510.23889959
   14   -1510.2570608539      6.15E-09 Convergence criterion met
 Total energy in the final basis set = -1510.25706085
   14   -1510.2639933618      4.22E-09 Convergence criterion met
 Total energy in the final basis set = -1510.26399336
    2   -1510.2639933619      2.26E-09 Convergence criterion met
 Total energy in the final basis set = -1510.26399336
   13   -1510.2665956114      6.42E-09 Convergence criterion met
 Total energy in the final basis set = -1510.26659561
    2   -1510.2665956114      7.18E-09 Convergence criterion met
   11   -1510.2702280889      8.51E-09 Convergence criterion met
 Total energy in the final basis set = -1510.27022809
   11   -1510.2702481495      4.55E-09 Convergence criterion met
 Total energy in the final basis set = -1510.27024815
   10   -1510.2702604532      6.82E-09 Convergence criterion met
 Total energy in the final basis set = -1510.27026045
    9   -1510.2702682389      9.65E-09 Convergence criterion met
 Total energy in the final basis set = -1510.27026824
    9   -1510.2702743627      8.81E-09 Convergence criterion met
 Total energy in the final basis set = -1510.27027436
    9   -1510.2702786092      7.64E-09 Convergence criterion met
 Total energy in the final basis set = -1510.27027861

             Standard Nuclear Orientation (Angstroms)
    I     Atom           X                Y                Z
 ----------------------------------------------------------------
    1      O      -5.6752379105    -0.3776206035     1.4041502971
    2      C      -4.9698351586     0.0632673993     0.4707947552
    3      C      -3.9897714004    -0.7729001886    -0.4262577228
    4      C      -2.8035052790    -0.0035309089    -1.1207264840
    5      C      -2.3278198989     1.2627975987    -0.3161882789
    6      O      -1.2192000316     1.8199549985    -1.0323619479
    7      C      -0.7924321922     3.1036357055    -0.4302703789
    8      C       0.5664766539     2.8928701853     0.3526849315
    9      O       0.6866856458     1.4302106573     0.5712116307
   10      C       2.0547485936     1.0325461814     0.7077739715
   11      C       2.1568979812    -0.4770735952     0.3034386139
   12      C       3.3606557176    -0.7844477264    -0.6877995552
   13      C       4.2237706450     0.4919741496    -1.0057416205
   14      O       3.9231442035     1.3986883547    -1.8138436308
   15      O      -5.1715533915     1.3454482396    -0.1392134265
   16      O       5.4256402747     0.4698231987    -0.2340558648
   17      O       2.9899724381     1.8146225503     0.9887677748
   18      C       6.1770233849     1.7283144765    -0.4415991370
   19      C       2.5222866993    -1.4323639462     1.5233336945
   20      C       2.1417507709    -2.9062412978     1.1039454349
   21      C       3.2968992462    -3.2344610314     0.0868062908
   22      C       4.1392006900    -1.8962356176     0.1315718435
   23      O       4.0008154249    -1.4427383932     1.5352943684
   24      H       1.1884942328    -0.7676020760    -0.1367834776
   25      H       2.9727879376    -1.1731179638    -1.6468716609
   26      H       2.1252433576    -1.1022197271     2.5027982454
   27      H       2.1725737854    -3.5749050402     1.9788214283
   28      H       1.1387267048    -2.9609885982     0.6508955433
   29      H       3.9079724068    -4.0844311738     0.4293705237
   30      H       2.9233420842    -3.4554244346    -0.9259394468
   31      H       5.2072157942    -1.9987434761    -0.1386178401
   32      O      -2.7508875932     1.7011555698     0.7739716640
   33      C      -6.1622847002     2.1226479430     0.6373888876
   34      C      -3.2183999374    -1.9605883547     0.2995095230
   35      C      -3.0208167188    -3.0994787170    -0.7728915188
   36      C      -1.9939796794    -2.4034984695    -1.7434075207
   37      C      -1.6506235255    -1.0832444267    -0.9441176276
   38      O      -1.8338366021    -1.4588756584     0.4806877612
   39      H      -4.6341422511    -1.2023701643    -1.2176742288
   40      H      -3.0081799372     0.2641978719    -2.1720793606
   41      H      -5.7662080289     2.3943485850     1.6372540958
   42      H      -3.6577910012    -2.2720005682     1.2671727767
   43      H      -2.5824856008    -3.9946427609    -0.3026470114
   44      H      -3.9605484285    -3.3843501083    -1.2721815299
   45      H      -1.0900219863    -3.0155681795    -1.8910144877
   46      H      -2.4298932563    -2.1792668903    -2.7303788684
   47      H      -0.6364816447    -0.6738059591    -1.1152082304
   48      H      -7.1085732760     1.5601790073     0.7733436274
   49      H      -6.3542851673     3.0427571900     0.0552613272
   50      H       7.0943336052     1.6390633771     0.1687597958
   51      H       5.5871982908     2.6041603426    -0.1023549861
   52      H       6.4494696920     1.8733437678    -1.5071543600
   53      H       1.4350616330     3.2617501565    -0.2326108695
   54      H       0.5446868055     3.4399525269     1.3208183653
   55      H      -1.5818861051     3.4572914403     0.2658227400
   56      H      -0.6545734034     3.8303568965    -1.2565366839
 ----------------------------------------------------------------

    9   -1510.2702805969      5.79E-09 Convergence criterion met
 Total energy in the final basis set = -1510.27028060
 Final energy is   -1510.27028059692
 **  OPTIMIZATION CONVERGED  **

                    Orbital Energies (a.u.)
 --------------------------------------------------------------

 Alpha MOs
 -- Occupied --
-18.933 -18.930 -18.929 -18.928 -18.887 -18.884 -18.879 -18.877
-18.869 -18.862 -10.101 -10.099 -10.097 -10.093 -10.073 -10.071
-10.061 -10.059 -10.059 -10.057 -10.056 -10.056 -10.040 -10.037
-10.035 -10.033 -10.024 -10.022 -10.017 -10.016  -1.017  -1.009
 -1.004  -1.001  -0.971  -0.966  -0.942  -0.932  -0.929  -0.927
 -0.765  -0.760  -0.729  -0.720  -0.713  -0.704  -0.695  -0.658
 -0.653  -0.618  -0.597  -0.575  -0.546  -0.543  -0.539  -0.534
 -0.512  -0.506  -0.482  -0.479  -0.461  -0.461  -0.456  -0.440
 -0.434  -0.429  -0.427  -0.411  -0.408  -0.405  -0.404  -0.399
 -0.393  -0.378  -0.373  -0.366  -0.361  -0.356  -0.351  -0.349
 -0.343  -0.339  -0.334  -0.330  -0.327  -0.322  -0.320  -0.313
 -0.309  -0.304  -0.301  -0.300  -0.295  -0.285  -0.279  -0.274
 -0.270  -0.254  -0.250  -0.246  -0.242  -0.235  -0.230  -0.179
 -0.175  -0.170  -0.168  -0.155  -0.154  -0.149  -0.146  -0.144
 -0.139

          Ground-State Mulliken Net Atomic Charges

     Atom                 Charge (a.u.)
  ----------------------------------------
      1 O                    -0.216114
      2 C                     0.215287
      3 C                    -0.080150
      4 C                    -0.074323
      5 C                     0.222605
      6 O                    -0.171717
      7 C                    -0.051246
      8 C                    -0.048091
      9 O                    -0.172117
     10 C                     0.211349
     11 C                    -0.079172
     12 C                    -0.079382
     13 C                     0.210403
     14 O                    -0.222758
     15 O                    -0.171226
     16 O                    -0.163607
     17 O                    -0.209656
     18 C                    -0.126568
     19 C                     0.026681
     20 C                    -0.143624
     21 C                    -0.144939
     22 C                     0.025946
     23 O                    -0.185747
     24 H                     0.086268
     25 H                     0.082177
     26 H                     0.084864
     27 H                     0.077811
     28 H                     0.076620
     29 H                     0.077169
     30 H                     0.071314
     31 H                     0.088476
     32 O                    -0.208204
     33 C                    -0.127738
     34 C                     0.023726
     35 C                    -0.141752
     36 C                    -0.145948
     37 C                     0.023232
     38 O                    -0.192402
     39 H                     0.083294
     40 H                     0.088063
     41 H                     0.090834
     42 H                     0.090727
     43 H                     0.077520
     44 H                     0.074089
     45 H                     0.075859
     46 H                     0.074205
     47 H                     0.086108
     48 H                     0.088940
     49 H                     0.087921
     50 H                     0.090086
     51 H                     0.093970
     52 H                     0.086282
     53 H                     0.091774
     54 H                     0.086370
     55 H                     0.098530
     56 H                     0.087981
  ----------------------------------------
  Sum of atomic charges =     0.000000

                    Cartesian Multipole Moments
 -----------------------------------------------------------------
    Charge (ESU x 10^10)
                -0.0000
    Dipole Moment (Debye)
         X      -1.0663      Y      -0.3996      Z      -2.7905
       Tot       3.0139
    Quadrupole Moments (Debye-Ang)
        XX    -159.9115     XY      -4.4413     YY    -146.8444
        XZ       3.6192     YZ       4.5357     ZZ    -164.3335

 Total job time:  61.99s(wall), 2949.41s(cpu)
        *  Thank you very much for using Q-Chem.  Have a nice day.  *
