 Q-Chem 5.0, Q-Chem, Inc., Pleasanton, CA (2017)
 Q-Chem 5.0.1 for Intel X86 EM64T Linux

User input:
--------------------------------------------------------------
$molecule
0  1
O -5.6752379105 -0.3776206035 1.4041502971
C -4.9698351586 0.0632673993 0.4707947552
C -3.9897714004 -0.7729001886 -0.4262577228
C -2.803505279 -0.0035309089 -1.120726484
C -2.3278198989 1.2627975987 -0.3161882789
O -1.2192000316 1.8199549985 -1.0323619479
C -0.7924321922 3.1036357055 -0.4302703789
C 0.5664766539 2.8928701853 0.3526849315
O 0.6866856458 1.4302106573 0.5712116307
C 2.0547485936 1.0325461814 0.7077739715
C 2.1568979812 -0.4770735952 0.3034386139
C 3.3606557176 -0.7844477264 -0.6877995552
C 4.223770645 0.4919741496 -1.0057416205
O 3.9231442035 1.3986883547 -1.8138436308
O -5.1715533915 1.3454482396 -0.1392134265
O 5.4256402747 0.4698231987 -0.2340558648
O 2.9899724381 1.8146225503 0.9887677748
C 6.1770233849 1.7283144765 -0.441599137
C 2.5222866993 -1.4323639462 1.5233336945
C 2.1417507709 -2.9062412978 1.1039454349
C 3.2968992462 -3.2344610314 0.0868062908
C 4.13920069 -1.8962356176 0.1315718435
O 4.0008154249 -1.4427383932 1.5352943684
H 1.1884942328 -0.767602076 -0.1367834776
H 2.9727879376 -1.1731179638 -1.6468716609
H 2.1252433576 -1.1022197271 2.5027982454
H 2.1725737854 -3.5749050402 1.9788214283
H 1.1387267048 -2.9609885982 0.6508955433
H 3.9079724068 -4.0844311738 0.4293705237
H 2.9233420842 -3.4554244346 -0.9259394468
H 5.2072157942 -1.9987434761 -0.1386178401
O -2.7508875932 1.7011555698 0.773971664
C -6.1622847002 2.122647943 0.6373888876
C -3.2183999374 -1.9605883547 0.299509523
C -3.0208167188 -3.099478717 -0.7728915188
C -1.9939796794 -2.4034984695 -1.7434075207
C -1.6506235255 -1.0832444267 -0.9441176276
O -1.8338366021 -1.4588756584 0.4806877612
H -4.6341422511 -1.2023701643 -1.2176742288
H -3.0081799372 0.2641978719 -2.1720793606
H -5.7662080289 2.394348585 1.6372540958
H -3.6577910012 -2.2720005682 1.2671727767
H -2.5824856008 -3.9946427609 -0.3026470114
H -3.9605484285 -3.3843501083 -1.2721815299
H -1.0900219863 -3.0155681795 -1.8910144877
H -2.4298932563 -2.1792668903 -2.7303788684
H -0.6364816447 -0.6738059591 -1.1152082304
H -7.108573276 1.5601790073 0.7733436274
H -6.3542851673 3.04275719 0.0552613272
H 7.0943336052 1.6390633771 0.1687597958
H 5.5871982908 2.6041603426 -0.1023549861
H 6.449469692 1.8733437678 -1.50715436
H 1.435061633 3.2617501565 -0.2326108695
H 0.5446868055 3.4399525269 1.3208183653
H -1.5818861051 3.4572914403 0.26582274
H -0.6545734034 3.8303568965 -1.2565366839
$end

$rem
JOBTYPE                   OPT
METHOD                    B3LYP
DFT_D                     d3_op
BASIS                     STO-3G
GEOM_OPT_MAX_CYCLES       100
GEOM_OPT_TOL_GRADIENT     300
GEOM_OPT_TOL_DISPLACEMENT 1200
GEOM_OPT_TOL_ENERGY       100
SYMMETRY                  False
THRESH                    12
SCF_CONVERGENCE           8
MAX_SUB_FILE_NUM          128
MEM_STATIC                400
MEM_TOTAL                 4000
$end
--------------------------------------------------------------

   15   -1510.2703388767      9.26E-09 Convergence criterion met
 Total energy in the final basis set = -1510.27033888
   14   -1510.2754622946      2.00E-09 Convergence criterion met
 Total energy in the final basis set = -1510.27546229
   14   -1510.2803281509      4.31E-09 Convergence criterion met
 Total energy in the final basis set = -1510.28032815
   15   -1509.7238368651      9.65E-09 Convergence criterion met
 Total energy in the final basis set = -1509.72383687
   16   -1510.2793090892      5.90E-09 Convergence criterion met
 Total energy in the final basis set = -1510.27930909
   14   -1510.2825940807      2.95E-09 Convergence criterion met
 Total energy in the final basis set = -1510.28259408
   13   -1510.2848381318      3.36E-09 Convergence criterion met
 Total energy in the final basis set = -1510.28483813
   13   -1510.2867878316      4.30E-09 Convergence criterion met
   11   -1510.3058300483      5.29E-09 Convergence criterion met
 Total energy in the final basis set = -1510.30583005
   11   -1510.3058490639      5.94E-09 Convergence criterion met
 Total energy in the final basis set = -1510.30584906
   12   -1510.3058741436      2.60E-09 Convergence criterion met
 Total energy in the final basis set = -1510.30587414
   11   -1510.3058968289      7.87E-09 Convergence criterion met
 Total energy in the final basis set = -1510.30589683
   10   -1510.3059084105      8.22E-09 Convergence criterion met
 Total energy in the final basis set = -1510.30590841
   10   -1510.3059124465      4.53E-09 Convergence criterion met
 Total energy in the final basis set = -1510.30591245

             Standard Nuclear Orientation (Angstroms)
    I     Atom           X                Y                Z
 ----------------------------------------------------------------
    1      O      -1.7941382978    -0.9604639115     1.2864088719
    2      C      -2.7591961251    -0.7197020046     0.5209443181
    3      C      -2.7660644633    -0.7614271263    -1.0529112692
    4      C      -1.8672931810     0.3778733215    -1.6881851589
    5      C      -1.6491172809     1.5488415265    -0.6704940420
    6      O      -0.7544426124     2.5314234471    -1.1974757412
    7      C      -0.7247386598     3.7173851009    -0.2993524973
    8      C       0.3771856244     3.5675563189     0.8202030632
    9      O       0.3086496485     2.1995416127     1.3811280884
   10      C       1.3101909515     1.3833611923     0.7561418285
   11      C       1.0392219476    -0.1134629153     1.0700410545
   12      C       1.8177840383    -1.0786400876     0.0842743661
   13      C       2.6362544377    -0.3150885587    -1.0154986203
   14      O       2.1839882150     0.1294313420    -2.1038740693
   15      O      -4.0969303520    -0.5035230013     0.9754053672
   16      O       4.0206381342    -0.2788093812    -0.6772993373
   17      O       2.2448506220     1.8511610218     0.0630788955
   18      C       4.7648553704     0.5015540425    -1.6913033206
   19      C       1.6435343124    -0.5643453723     2.4698954645
   20      C       0.9827255688    -1.9518223638     2.8345505428
   21      C       1.7520313246    -2.9165035755     1.8578759702
   22      C       2.7034199461    -1.9003561109     1.1067496671
   23      O       3.0469267403    -0.9086429454     2.1542415923
   24      H      -0.0568030023    -0.3188658367     1.0413610346
   25      H       1.0648425564    -1.7045372764    -0.4381906773
   26      H       1.5968448508     0.2057404178     3.2643903560
   27      H       1.1685483167    -2.2077171209     3.8898306296
   28      H      -0.1037622472    -1.9392660761     2.6483192087
   29      H       2.3429497824    -3.6657488039     2.4085407311
   30      H       1.0764765529    -3.4362923821     1.1602657756
   31      H       3.6229757054    -2.3398800761     0.6755980623
   32      O      -2.2661142475     1.6739498123     0.4145954571
   33      C      -4.1159474885    -0.4180971982     2.4537440014
   34      C      -1.9925921509    -2.0505763719    -1.5494210507
   35      C      -2.1091130771    -2.1638305893    -3.1215454904
   36      C      -1.0505650866    -1.0939558849    -3.5880453788
   37      C      -0.6138865268    -0.4645105276    -2.2080602800
   38      O      -0.5865202341    -1.6568788811    -1.3277355558
   39      H      -3.8113316590    -0.7146377409    -1.4048293354
   40      H      -2.3822832507     0.8267478418    -2.5584691992
   41      H      -3.5041500793     0.4352039809     2.8110277625
   42      H      -2.2329363897    -2.9744200744    -0.9881501165
   43      H      -1.8409188690    -3.1778834826    -3.4580153137
   44      H      -3.1278001739    -1.9347960860    -3.4740356918
   45      H      -0.1848908099    -1.5736505081    -4.0725318737
   46      H      -1.4727490315    -0.3480545246    -4.2799480972
   47      H       0.4071281261     0.0085727803    -2.1966716981
   48      H      -3.7349056055    -1.3485833485     2.9220256964
   49      H      -5.1730680848    -0.2642150298     2.7379032253
   50      H       5.8213584925     0.4936275031    -1.3660699533
   51      H       4.3950896775     1.5460166472    -1.7385970168
   52      H       4.6807887464     0.0484287846    -2.7003719900
   53      H       1.3895059099     3.7270148095     0.3911964122
   54      H       0.1825498992     4.2875510887     1.6403355228
   55      H      -1.7200807967     3.8487663798     0.1738697624
   56      H      -0.4922035898     4.5872524819    -0.9464719859
 ----------------------------------------------------------------

    9   -1510.3059130074      7.91E-09 Convergence criterion met
 Total energy in the final basis set = -1510.30591301
 Final energy is   -1510.30591300737
 **  OPTIMIZATION CONVERGED  **

                    Orbital Energies (a.u.)
 --------------------------------------------------------------

 Alpha MOs
 -- Occupied --
-18.945 -18.932 -18.931 -18.925 -18.887 -18.885 -18.875 -18.869
-18.868 -18.857 -10.107 -10.100 -10.093 -10.089 -10.076 -10.069
-10.061 -10.060 -10.052 -10.043 -10.041 -10.038 -10.037 -10.036
-10.018 -10.012 -10.009 -10.007 -10.002  -9.999  -1.024  -1.009
 -1.005  -0.997  -0.970  -0.952  -0.944  -0.934  -0.931  -0.921
 -0.762  -0.745  -0.722  -0.715  -0.702  -0.697  -0.686  -0.660
 -0.648  -0.615  -0.591  -0.569  -0.543  -0.535  -0.530  -0.520
 -0.508  -0.499  -0.486  -0.474  -0.458  -0.453  -0.448  -0.433
 -0.430  -0.422  -0.414  -0.413  -0.409  -0.405  -0.399  -0.398
 -0.392  -0.378  -0.368  -0.364  -0.359  -0.354  -0.351  -0.347
 -0.343  -0.340  -0.327  -0.322  -0.317  -0.315  -0.312  -0.308
 -0.300  -0.297  -0.294  -0.288  -0.285  -0.278  -0.273  -0.265
 -0.264  -0.255  -0.249  -0.245  -0.236  -0.228  -0.212  -0.195
 -0.174  -0.168  -0.163  -0.159  -0.154  -0.148  -0.142  -0.137
 -0.126

          Ground-State Mulliken Net Atomic Charges

     Atom                 Charge (a.u.)
  ----------------------------------------
      1 O                    -0.226022
      2 C                     0.222625
      3 C                    -0.079796
      4 C                    -0.081607
      5 C                     0.212154
      6 O                    -0.165581
      7 C                    -0.051730
      8 C                    -0.055810
      9 O                    -0.170861
     10 C                     0.209461
     11 C                    -0.094470
     12 C                    -0.095646
     13 C                     0.221029
     14 O                    -0.229929
     15 O                    -0.167314
     16 O                    -0.163369
     17 O                    -0.213133
     18 C                    -0.126143
     19 C                     0.025493
     20 C                    -0.146202
     21 C                    -0.143634
     22 C                     0.024118
     23 O                    -0.192895
     24 H                     0.114079
     25 H                     0.110145
     26 H                     0.078786
     27 H                     0.071133
     28 H                     0.086271
     29 H                     0.072189
     30 H                     0.073901
     31 H                     0.083477
     32 O                    -0.207852
     33 C                    -0.127725
     34 C                     0.026869
     35 C                    -0.145557
     36 C                    -0.142849
     37 C                     0.005493
     38 O                    -0.197049
     39 H                     0.085884
     40 H                     0.085776
     41 H                     0.094603
     42 H                     0.081375
     43 H                     0.076645
     44 H                     0.072302
     45 H                     0.078024
     46 H                     0.071559
     47 H                     0.120364
     48 H                     0.087521
     49 H                     0.088921
     50 H                     0.088451
     51 H                     0.093989
     52 H                     0.085890
     53 H                     0.101844
     54 H                     0.088636
     55 H                     0.095123
     56 H                     0.091046
  ----------------------------------------
  Sum of atomic charges =    -0.000000

                    Cartesian Multipole Moments
 -----------------------------------------------------------------
    Charge (ESU x 10^10)
                -0.0000
    Dipole Moment (Debye)
         X      -2.6253      Y       0.6559      Z      -1.0620
       Tot       2.9069
    Quadrupole Moments (Debye-Ang)
        XX    -157.9489     XY       1.3227     YY    -146.6868
        XZ      -3.0575     YZ       1.8094     ZZ    -156.4458

 Total job time:  161.24s(wall), 7672.17s(cpu)
        *  Thank you very much for using Q-Chem.  Have a nice day.  *
