 Q-Chem 5.0, Q-Chem, Inc., Pleasanton, CA (2017)
 Q-Chem 5.0.1 for Intel X86 EM64T Linux

User input:
--------------------------------------------------------------
$molecule
0  1
O -3.94934 -3.66094 2.70899
C -3.26408 -4.56952 2.26188
C -3.36658 -6.02376 2.66595
C -2.05651 -6.75173 3.00891
C -0.80983 -5.89818 3.08186
O 0.22936 -6.6357 3.57336
C 1.47909 -5.93822 3.54249
C 1.87515 -5.50674 4.95071
O 0.87599 -4.62883 5.49278
C 0.44206 -4.93864 6.73972
C -1.05318 -4.79452 6.89509
C -1.63942 -5.45055 8.15374
C -0.63984 -5.8297 9.2279
O -0.1828 -6.94928 9.40743
O -2.54155 -4.32594 1.13378
O -0.1181 -4.80815 9.96309
O 1.2018 -5.46276 7.54237
C 0.83416 -4.9605 10.94918
C -1.55621 -3.34986 7.05228
C -3.011 -3.26777 6.5938
C -3.70243 -4.04118 7.70229
C -2.51884 -4.28566 8.64888
O -1.68399 -3.16885 8.44168
H -1.4754 -5.22989 5.9792
H -2.21265 -6.37121 7.90482
H -0.93184 -2.60447 6.51333
H -3.3094 -2.19734 6.6678
H -3.21462 -3.6287 5.5633
H -4.4604 -3.37626 8.17226
H -4.17382 -4.9986 7.39103
H -2.87247 -4.44643 9.69114
O -0.74682 -4.6906 2.89218
C -2.41551 -3.08697 0.54034
C -4.19861 -6.28113 3.93162
C -4.71263 -7.72183 3.93811
C -3.43444 -8.47686 4.24393
C -2.45052 -7.31334 4.39473
O -3.24477 -6.29519 4.95552
H -3.86304 -6.51623 1.79944
H -1.83077 -7.56981 2.28865
H -1.94665 -2.37055 1.2484
H -5.04473 -5.57104 4.05538
H -5.40482 -7.83516 4.80293
H -5.23426 -8.02711 3.00554
H -3.55625 -8.98661 5.22594
H -3.1181 -9.21352 3.47426
H -1.57564 -7.63608 4.99973
H -3.41185 -2.70848 0.22691
H -1.76941 -3.17764 -0.35672
H 1.07202 -3.96693 11.38117
H 1.76239 -5.39618 10.52171
H 0.44655 -5.61845 11.75608
H 2.03255 -6.42941 5.55581
H 2.8418 -4.9625 4.89115
H 1.50055 -5.04169 2.88185
H 2.253 -6.62017 3.13089
$end

$opt
CONSTRAINT
tors           1           2           3           4    -131.785
tors           3           4           5           6    +171.583
tors           4           5           6           7    +173.877
tors           5           6           7           8    +106.250
tors           6           7           8           9     -60.465
tors           7           8           9          10    +130.810
tors           8           9          10          11    -138.051
tors           9          10          11          12    +165.656
tors          11          12          13          14     -99.109
ENDCONSTRAINT
$end

$rem
JOBTYPE                   OPT
METHOD                    B3LYP
DFT_D                     d3_op
BASIS                     STO-3G
GEOM_OPT_MAX_CYCLES       100
GEOM_OPT_TOL_GRADIENT     300
GEOM_OPT_TOL_DISPLACEMENT 1200
GEOM_OPT_TOL_ENERGY       100
SYMMETRY                  False
THRESH                    12
SCF_CONVERGENCE           8
MAX_SUB_FILE_NUM          128
MEM_STATIC                400
MEM_TOTAL                 4000
$end
--------------------------------------------------------------

   15   -1510.1550888719      6.47E-09 Convergence criterion met
 Total energy in the final basis set = -1510.15508887
   13   -1510.2250082789      9.16E-09 Convergence criterion met
 Total energy in the final basis set = -1510.22500828
   14   -1510.2602348640      3.75E-09 Convergence criterion met
 Total energy in the final basis set = -1510.26023486
   14   -1510.2653358808      5.58E-09 Convergence criterion met
 Total energy in the final basis set = -1510.26533588
   14   -1510.2758381740      3.96E-09 Convergence criterion met
 Total energy in the final basis set = -1510.27583817
   13   -1510.2793300094      7.06E-09 Convergence criterion met
 Total energy in the final basis set = -1510.27933001
   13   -1510.2815580180      3.52E-09 Convergence criterion met
 Total energy in the final basis set = -1510.28155802
   13   -1510.2823105192      6.59E-09 Convergence criterion met
   12   -1510.2833801108      6.31E-09 Convergence criterion met
 Total energy in the final basis set = -1510.28338011
   11   -1510.2834105538      5.11E-09 Convergence criterion met
 Total energy in the final basis set = -1510.28341055
   10   -1510.2834307908      5.47E-09 Convergence criterion met
 Total energy in the final basis set = -1510.28343079
   10   -1510.2834541467      7.72E-09 Convergence criterion met
 Total energy in the final basis set = -1510.28345415
    9   -1510.2834643366      9.50E-09 Convergence criterion met
 Total energy in the final basis set = -1510.28346434
    9   -1510.2834685837      3.66E-09 Convergence criterion met
 Total energy in the final basis set = -1510.28346858

             Standard Nuclear Orientation (Angstroms)
    I     Atom           X                Y                Z
 ----------------------------------------------------------------
    1      O      -3.6065684699    -1.1371723545     1.8938528259
    2      C      -3.7806133035    -0.4273381587     0.8801614312
    3      C      -3.2963800785    -0.7387661151    -0.5837213418
    4      C      -2.5574627981     0.4462797400    -1.3172461637
    5      C      -2.0437579142     1.5319867411    -0.3004179297
    6      O      -1.2287854255     2.4477442934    -1.0240163043
    7      C      -0.8064470229     3.5992364385    -0.1922912634
    8      C       0.7079869843     3.4702509691     0.1938982982
    9      O       0.8646996528     2.2160791770     0.9651680538
   10      C       1.9481306151     1.4056433457     0.4787678183
   11      C       1.4853326429    -0.0864696024     0.4652261041
   12      C       2.4232029252    -1.0499245679    -0.3696672350
   13      C       3.7029843646    -0.3537067200    -0.9625312619
   14      O       3.8428419990     0.0597422892    -2.1350173057
   15      O      -4.7276328141     0.6497319038     0.7996658262
   16      O       4.7416783097    -0.3507794551     0.0236730661
   17      O       3.0124994884     1.8780824876     0.0199503769
   18      C       5.9205687304     0.3742976432    -0.4973496941
   19      C       1.5590130546    -0.7602054365     1.9108988321
   20      C       0.6230344500    -2.0279039013     1.9017872444
   21      C       1.4592884955    -3.0034482302     0.9946653756
   22      C       2.7619104301    -2.1426390517     0.7288720211
   23      O       2.9178144416    -1.3412095309     1.9647404922
   24      H       0.4447981189    -0.1514727002     0.0881512660
   25      H       1.8582278593    -1.4780912103    -1.2166881301
   26      H       1.3957993939    -0.0595635201     2.7527355440
   27      H       0.5053879487    -2.4243294358     2.9229438692
   28      H      -0.3710638819    -1.8028097370     1.4867387070
   29      H       1.7105123519    -3.9372604623     1.5221804882
   30      H       0.9357398422    -3.2528232617     0.0577388073
   31      H       3.6806511397    -2.7274483271     0.5301316747
   32      O      -2.2525148719     1.5811500415     0.9323858982
   33      C      -5.2374999234     0.9685809586     2.1506103414
   34      C      -2.2202435466    -1.8971363713    -0.6973257444
   35      C      -2.3597908948    -2.5289275659    -2.1344007826
   36      C      -1.8089105742    -1.3533598828    -3.0275205793
   37      C      -1.3177610533    -0.3276983919    -1.9315516206
   38      O      -0.9179766213    -1.1896909604    -0.7932006696
   39      H      -4.2030713510    -1.0133899890    -1.1538413356
   40      H      -3.1824936845     0.9323203607    -2.0875849676
   41      H      -4.4346323272     1.3872438079     2.7916260442
   42      H      -2.2192602902    -2.6058082575     0.1538833403
   43      H      -1.7274022597    -3.4271118894    -2.2213938988
   44      H      -3.3993509270    -2.8013271391    -2.3761840947
   45      H      -0.9649232599    -1.6792511587    -3.6555815419
   46      H      -2.5834234892    -0.9153724620    -3.6773033774
   47      H      -0.4800830635     0.3295070944    -2.2360395231
   48      H      -5.6596284765     0.0733081228     2.6512971763
   49      H      -6.0304192305     1.7261061520     2.0102003247
   50      H       6.6904194487     0.3155278120     0.2939216637
   51      H       5.6778859487     1.4373409848    -0.7013162092
   52      H       6.3088106151    -0.0850753757    -1.4297197298
   53      H       1.3506989753     3.4616858774    -0.7120759510
   54      H       0.9963444593     4.3483211435     0.8150572327
   55      H      -1.4215554866     3.6315856725     0.7322376788
   56      H      -0.9653414315     4.5192683570    -0.7930290433
 ----------------------------------------------------------------

    9   -1510.2834694458      4.15E-09 Convergence criterion met
 Total energy in the final basis set = -1510.28346945
 Final energy is   -1510.28346944579
 **  OPTIMIZATION CONVERGED  **

                    Orbital Energies (a.u.)
 --------------------------------------------------------------

 Alpha MOs
 -- Occupied --
-18.945 -18.924 -18.919 -18.914 -18.904 -18.893 -18.884 -18.874
-18.868 -18.848 -10.113 -10.099 -10.098 -10.081 -10.081 -10.078
-10.071 -10.069 -10.058 -10.049 -10.047 -10.046 -10.046 -10.041
-10.030 -10.028 -10.021 -10.018 -10.006 -10.004  -1.026  -1.008
 -1.003  -0.989  -0.985  -0.957  -0.951  -0.935  -0.930  -0.915
 -0.773  -0.750  -0.735  -0.722  -0.710  -0.706  -0.690  -0.659
 -0.644  -0.620  -0.595  -0.575  -0.554  -0.547  -0.533  -0.525
 -0.517  -0.505  -0.492  -0.474  -0.466  -0.462  -0.453  -0.441
 -0.428  -0.423  -0.418  -0.416  -0.410  -0.405  -0.400  -0.395
 -0.393  -0.384  -0.375  -0.370  -0.361  -0.354  -0.351  -0.348
 -0.343  -0.340  -0.332  -0.328  -0.325  -0.320  -0.320  -0.316
 -0.314  -0.309  -0.300  -0.293  -0.288  -0.284  -0.280  -0.271
 -0.266  -0.257  -0.249  -0.245  -0.243  -0.232  -0.218  -0.192
 -0.173  -0.167  -0.164  -0.161  -0.156  -0.153  -0.149  -0.132
 -0.130

          Ground-State Mulliken Net Atomic Charges

     Atom                 Charge (a.u.)
  ----------------------------------------
      1 O                    -0.217629
      2 C                     0.216497
      3 C                    -0.081955
      4 C                    -0.075752
      5 C                     0.219542
      6 O                    -0.175515
      7 C                    -0.049700
      8 C                    -0.046581
      9 O                    -0.185725
     10 C                     0.215085
     11 C                    -0.089776
     12 C                    -0.081618
     13 C                     0.211155
     14 O                    -0.226391
     15 O                    -0.175835
     16 O                    -0.167191
     17 O                    -0.201753
     18 C                    -0.127042
     19 C                     0.026320
     20 C                    -0.143897
     21 C                    -0.144550
     22 C                     0.026696
     23 O                    -0.188653
     24 H                     0.105502
     25 H                     0.082332
     26 H                     0.082322
     27 H                     0.074996
     28 H                     0.081666
     29 H                     0.073539
     30 H                     0.073213
     31 H                     0.082457
     32 O                    -0.202348
     33 C                    -0.128331
     34 C                     0.023633
     35 C                    -0.141765
     36 C                    -0.144581
     37 C                     0.024132
     38 O                    -0.195251
     39 H                     0.085551
     40 H                     0.089818
     41 H                     0.091222
     42 H                     0.093212
     43 H                     0.079450
     44 H                     0.076199
     45 H                     0.081472
     46 H                     0.076309
     47 H                     0.091513
     48 H                     0.088359
     49 H                     0.086738
     50 H                     0.086794
     51 H                     0.091125
     52 H                     0.084103
     53 H                     0.093254
     54 H                     0.086016
     55 H                     0.101643
     56 H                     0.089976
  ----------------------------------------
  Sum of atomic charges =    -0.000000

                    Cartesian Multipole Moments
 -----------------------------------------------------------------
    Charge (ESU x 10^10)
                -0.0000
    Dipole Moment (Debye)
         X      -3.4675      Y       0.8834      Z      -2.1104
       Tot       4.1542
    Quadrupole Moments (Debye-Ang)
        XX    -158.4094     XY      -2.0719     YY    -146.7945
        XZ       4.2144     YZ       5.1016     ZZ    -164.0143

 Total job time:  54.67s(wall), 2605.54s(cpu)
        *  Thank you very much for using Q-Chem.  Have a nice day.  *
