 Q-Chem 5.0, Q-Chem, Inc., Pleasanton, CA (2017)
 Q-Chem 5.0.1 for Intel X86 EM64T Linux

User input:
--------------------------------------------------------------
$molecule
0  1
O -3.6065684699 -1.1371723545 1.8938528259
C -3.7806133035 -0.4273381587 0.8801614312
C -3.2963800785 -0.7387661151 -0.5837213418
C -2.5574627981 0.44627974 -1.3172461637
C -2.0437579142 1.5319867411 -0.3004179297
O -1.2287854255 2.4477442934 -1.0240163043
C -0.8064470229 3.5992364385 -0.1922912634
C 0.7079869843 3.4702509691 0.1938982982
O 0.8646996528 2.216079177 0.9651680538
C 1.9481306151 1.4056433457 0.4787678183
C 1.4853326429 -0.0864696024 0.4652261041
C 2.4232029252 -1.0499245679 -0.369667235
C 3.7029843646 -0.35370672 -0.9625312619
O 3.842841999 0.0597422892 -2.1350173057
O -4.7276328141 0.6497319038 0.7996658262
O 4.7416783097 -0.3507794551 0.0236730661
O 3.0124994884 1.8780824876 0.0199503769
C 5.9205687304 0.3742976432 -0.4973496941
C 1.5590130546 -0.7602054365 1.9108988321
C 0.62303445 -2.0279039013 1.9017872444
C 1.4592884955 -3.0034482302 0.9946653756
C 2.7619104301 -2.1426390517 0.7288720211
O 2.9178144416 -1.3412095309 1.9647404922
H 0.4447981189 -0.1514727002 0.088151266
H 1.8582278593 -1.4780912103 -1.2166881301
H 1.3957993939 -0.0595635201 2.752735544
H 0.5053879487 -2.4243294358 2.9229438692
H -0.3710638819 -1.802809737 1.486738707
H 1.7105123519 -3.9372604623 1.5221804882
H 0.9357398422 -3.2528232617 0.0577388073
H 3.6806511397 -2.7274483271 0.5301316747
O -2.2525148719 1.5811500415 0.9323858982
C -5.2374999234 0.9685809586 2.1506103414
C -2.2202435466 -1.8971363713 -0.6973257444
C -2.3597908948 -2.5289275659 -2.1344007826
C -1.8089105742 -1.3533598828 -3.0275205793
C -1.3177610533 -0.3276983919 -1.9315516206
O -0.9179766213 -1.1896909604 -0.7932006696
H -4.203071351 -1.013389989 -1.1538413356
H -3.1824936845 0.9323203607 -2.0875849676
H -4.4346323272 1.3872438079 2.7916260442
H -2.2192602902 -2.6058082575 0.1538833403
H -1.7274022597 -3.4271118894 -2.2213938988
H -3.399350927 -2.8013271391 -2.3761840947
H -0.9649232599 -1.6792511587 -3.6555815419
H -2.5834234892 -0.915372462 -3.6773033774
H -0.4800830635 0.3295070944 -2.2360395231
H -5.6596284765 0.0733081228 2.6512971763
H -6.0304192305 1.726106152 2.0102003247
H 6.6904194487 0.315527812 0.2939216637
H 5.6778859487 1.4373409848 -0.7013162092
H 6.3088106151 -0.0850753757 -1.4297197298
H 1.3506989753 3.4616858774 -0.712075951
H 0.9963444593 4.3483211435 0.8150572327
H -1.4215554866 3.6315856725 0.7322376788
H -0.9653414315 4.519268357 -0.7930290433
$end

$rem
JOBTYPE                   OPT
METHOD                    B3LYP
DFT_D                     d3_op
BASIS                     STO-3G
GEOM_OPT_MAX_CYCLES       100
GEOM_OPT_TOL_GRADIENT     300
GEOM_OPT_TOL_DISPLACEMENT 1200
GEOM_OPT_TOL_ENERGY       100
SYMMETRY                  False
THRESH                    12
SCF_CONVERGENCE           8
MAX_SUB_FILE_NUM          128
MEM_STATIC                400
MEM_TOTAL                 4000
$end
--------------------------------------------------------------

   16   -1510.2835359531      5.82E-09 Convergence criterion met
 Total energy in the final basis set = -1510.28353595
   14   -1510.2875649299      2.28E-09 Convergence criterion met
 Total energy in the final basis set = -1510.28756493
   14   -1510.2861340638      2.67E-09 Convergence criterion met
 Total energy in the final basis set = -1510.28613406
   13   -1510.2938611509      9.07E-09 Convergence criterion met
 Total energy in the final basis set = -1510.29386115
   13   -1510.2959069264      8.87E-09 Convergence criterion met
 Total energy in the final basis set = -1510.29590693
   13   -1510.2971267999      3.10E-09 Convergence criterion met
 Total energy in the final basis set = -1510.29712680
   13   -1510.2978175764      3.66E-09 Convergence criterion met
 Total energy in the final basis set = -1510.29781758
   13   -1510.2985061296      4.38E-09 Convergence criterion met
   11   -1510.3057881233      5.51E-09 Convergence criterion met
 Total energy in the final basis set = -1510.30578812
   10   -1510.3058127832      5.57E-09 Convergence criterion met
 Total energy in the final basis set = -1510.30581278
   12   -1510.3057587716      3.80E-09 Convergence criterion met
 Total energy in the final basis set = -1510.30575877
   11   -1510.3058167702      7.54E-09 Convergence criterion met
 Total energy in the final basis set = -1510.30581677
   11   -1510.3058112076      9.62E-09 Convergence criterion met
 Total energy in the final basis set = -1510.30581121
   10   -1510.3058201152      8.65E-09 Convergence criterion met
 Total energy in the final basis set = -1510.30582012

             Standard Nuclear Orientation (Angstroms)
    I     Atom           X                Y                Z
 ----------------------------------------------------------------
    1      O      -2.5296641085    -1.4814833347     1.4258808340
    2      C      -3.1405922999    -0.7346375183     0.6296958374
    3      C      -3.0712804224    -0.7699738917    -0.9430614267
    4      C      -2.2169325785     0.3970463388    -1.5893893616
    5      C      -1.6627260272     1.4099114216    -0.5324400168
    6      O      -1.1781193667     2.5620325614    -1.2261371899
    7      C      -0.5350062587     3.5214330787    -0.2932584021
    8      C       1.0103267680     3.2409373954    -0.1725107137
    9      O       1.2319702049     1.9813936172     0.5693000906
   10      C       1.3265485605     0.8808334137    -0.3488567725
   11      C       1.1289246490    -0.4802973807     0.3999409433
   12      C       2.3573810378    -1.4717800087     0.2614229720
   13      C       3.6151268618    -0.8210327119    -0.3983041369
   14      O       4.4243386614    -1.3414391187    -1.1955524134
   15      O      -4.1552507657     0.1989576687     1.0150061916
   16      O       3.7206241652     0.5301029998     0.0783853725
   17      O       1.4100123406     1.0346266959    -1.5934198293
   18      C       4.8379192021     1.2285431581    -0.5932493361
   19      C       1.0029373514    -0.3493766760     1.9730902688
   20      C       0.2844670670    -1.6411504537     2.5115148856
   21      C       1.4152814492    -2.7155201393     2.3021260184
   22      C       2.6131670248    -1.8111424327     1.7956259699
   23      O       2.3963332872    -0.5091683891     2.4607335588
   24      H       0.2256606432    -0.9536496796    -0.0598698636
   25      H       2.0950920097    -2.3741235808    -0.3183159515
   26      H       0.5768160649     0.6144124270     2.3086233958
   27      H       0.0492201008    -1.5207020686     3.5810181183
   28      H      -0.6545560812    -1.8489164436     1.9652982362
   29      H       1.6810904286    -3.2191045188     3.2450978332
   30      H       1.1413084964    -3.4808740953     1.5582725537
   31      H       3.6259307672    -2.2005544782     2.0181193440
   32      O      -1.6318828449     1.2585518693     0.7106351462
   33      C      -4.2090757889     0.2948513256     2.4911485563
   34      C      -2.2636555672    -2.0415920847    -1.4261532697
   35      C      -2.5118132634    -2.2547755182    -2.9690366429
   36      C      -1.6265999978    -1.1076262612    -3.5877308266
   37      C      -1.0455180359    -0.4303607265    -2.2896339034
   38      O      -0.8558026031    -1.5801834088    -1.3724182593
   39      H      -4.1048332696    -0.7583067149    -1.3327868529
   40      H      -2.7968946042     0.9633116843    -2.3396089855
   41      H      -3.2476346181     0.6653272874     2.9018380386
   42      H      -2.3992445502    -2.9344966780    -0.7856897260
   43      H      -2.1596296005    -3.2503817416    -3.2827663862
   44      H      -3.5771879776    -2.1584329428    -3.2329352475
   45      H      -0.8090182439    -1.5173403564    -4.2020175957
   46      H      -2.2097168453    -0.4021596410    -4.2005393463
   47      H      -0.0835528390     0.1266197678    -2.3853742571
   48      H      -4.4395962887    -0.6851085521     2.9570397210
   49      H      -5.0151346900     1.0149560953     2.7229544580
   50      H       4.8903771227     2.2325228436    -0.1336203568
   51      H       4.6542018044     1.3283507710    -1.6829893072
   52      H       5.8002460980     0.6983835267    -0.4435719522
   53      H       1.4572705012     3.1661029833    -1.1871171429
   54      H       1.4918258407     4.0548600348     0.4065534418
   55      H      -1.0064463419     3.4518930253     0.7102779403
   56      H      -0.7005106876     4.5304034274    -0.7234259822
 ----------------------------------------------------------------

    9   -1510.3058202473      6.15E-09 Convergence criterion met
 Total energy in the final basis set = -1510.30582025
 Final energy is   -1510.30582024728
 **  OPTIMIZATION CONVERGED  **

                    Orbital Energies (a.u.)
 --------------------------------------------------------------

 Alpha MOs
 -- Occupied --
-18.945 -18.929 -18.929 -18.928 -18.902 -18.889 -18.871 -18.867
-18.867 -18.861 -10.110 -10.100 -10.094 -10.089 -10.078 -10.071
-10.065 -10.060 -10.058 -10.056 -10.044 -10.043 -10.040 -10.034
-10.024 -10.022 -10.021 -10.006 -10.001  -9.988  -1.025  -1.008
 -1.006  -0.999  -0.980  -0.951  -0.948  -0.933  -0.930  -0.928
 -0.768  -0.745  -0.728  -0.718  -0.705  -0.701  -0.683  -0.660
 -0.652  -0.618  -0.593  -0.574  -0.548  -0.542  -0.529  -0.517
 -0.514  -0.501  -0.487  -0.473  -0.465  -0.458  -0.453  -0.439
 -0.431  -0.422  -0.415  -0.413  -0.408  -0.406  -0.404  -0.397
 -0.391  -0.382  -0.371  -0.365  -0.358  -0.355  -0.352  -0.347
 -0.345  -0.341  -0.335  -0.332  -0.328  -0.315  -0.313  -0.308
 -0.307  -0.302  -0.293  -0.288  -0.284  -0.279  -0.277  -0.275
 -0.265  -0.258  -0.250  -0.241  -0.239  -0.235  -0.213  -0.196
 -0.173  -0.170  -0.168  -0.158  -0.155  -0.151  -0.150  -0.140
 -0.125

          Ground-State Mulliken Net Atomic Charges

     Atom                 Charge (a.u.)
  ----------------------------------------
      1 O                    -0.218965
      2 C                     0.219588
      3 C                    -0.081993
      4 C                    -0.080253
      5 C                     0.211241
      6 O                    -0.169220
      7 C                    -0.052734
      8 C                    -0.053891
      9 O                    -0.168051
     10 C                     0.215576
     11 C                    -0.096347
     12 C                    -0.079493
     13 C                     0.209523
     14 O                    -0.213478
     15 O                    -0.172761
     16 O                    -0.165096
     17 O                    -0.236704
     18 C                    -0.127727
     19 C                     0.022191
     20 C                    -0.153077
     21 C                    -0.144547
     22 C                     0.024860
     23 O                    -0.192862
     24 H                     0.112987
     25 H                     0.085629
     26 H                     0.090308
     27 H                     0.069373
     28 H                     0.096100
     29 H                     0.072411
     30 H                     0.071359
     31 H                     0.077398
     32 O                    -0.208528
     33 C                    -0.128128
     34 C                     0.026241
     35 C                    -0.143784
     36 C                    -0.143401
     37 C                     0.014511
     38 O                    -0.190006
     39 H                     0.086082
     40 H                     0.088784
     41 H                     0.094151
     42 H                     0.089407
     43 H                     0.079517
     44 H                     0.074448
     45 H                     0.081336
     46 H                     0.075106
     47 H                     0.109683
     48 H                     0.087948
     49 H                     0.087947
     50 H                     0.089757
     51 H                     0.088437
     52 H                     0.090353
     53 H                     0.100645
     54 H                     0.089393
     55 H                     0.098508
     56 H                     0.090248
  ----------------------------------------
  Sum of atomic charges =    -0.000000

                    Cartesian Multipole Moments
 -----------------------------------------------------------------
    Charge (ESU x 10^10)
                -0.0000
    Dipole Moment (Debye)
         X      -2.9398      Y       1.8372      Z      -1.2651
       Tot       3.6903
    Quadrupole Moments (Debye-Ang)
        XX    -155.5509     XY       6.1768     YY    -148.6184
        XZ       2.5577     YZ       0.3438     ZZ    -161.1255

 Total job time:  143.85s(wall), 6868.07s(cpu)
        *  Thank you very much for using Q-Chem.  Have a nice day.  *
