 Q-Chem 5.0, Q-Chem, Inc., Pleasanton, CA (2017)
 Q-Chem 5.0.1 for Intel X86 EM64T Linux

User input:
--------------------------------------------------------------
$molecule
0  1
O -4.4244776512 -0.4261887741 1.8264398279
C -4.2349792466 -0.132657171 0.6271500569
C -3.425868971 -0.9658415561 -0.4343843528
C -2.3818576587 -0.1397188971 -1.276697724
C -2.0130443981 1.1879722348 -0.5182186333
O -1.0433503737 1.9028292362 -1.2756268316
C -0.7442749214 3.2222078053 -0.6649267025
C -0.0226704084 3.0615471951 0.7438201892
O 0.339138036 1.6411814047 0.9110494209
C 1.745472298 1.3852812654 0.7786043414
C 1.8248209767 -0.1614165234 0.5450005857
C 2.7587182872 -0.6397055541 -0.6404485328
C 3.828276811 0.4085297588 -1.1094534313
O 3.9908245402 0.8304152382 -2.2766523267
O -4.9776395335 0.8716896524 -0.0889456561
O 4.684206623 0.7309607904 -0.0128044375
O 2.6197982526 2.2768248144 0.7863248837
C 5.6792242935 1.7447018112 -0.4285545373
C 2.3303024037 -1.0885201437 1.7372802489
C 1.6034013197 -2.4766220808 1.5171130209
C 2.401833162 -3.0292062275 0.277900365
C 3.4692002877 -1.883812758 0.054242779
O 3.7436382692 -1.3827279324 1.4195246147
H 0.7799737417 -0.4447400065 0.3371860854
H 2.1691214147 -0.9339647264 -1.5265406092
H 2.238590111 -0.6515273967 2.7502664744
H 1.7214778407 -3.1256259988 2.3992198541
H 0.529607382 -2.340365599 1.290033951
H 2.9044453706 -3.9825318864 0.5056776615
H 1.7585508193 -3.1715431479 -0.6057481196
H 4.4083573764 -2.2040417716 -0.4370336864
O -2.4890600618 1.5741309499 0.5740033241
C -5.780669527 1.6681515912 0.8627512345
C -2.4888039795 -2.0886507911 0.1912114547
C -2.3327276339 -3.2218406397 -0.8929445099
C -1.4711789895 -2.4695671457 -1.9751523263
C -1.138472027 -1.116444659 -1.2307071927
O -1.1279415345 -1.4866152105 0.2083352747
H -4.171048122 -1.4274905341 -1.1080825359
H -2.7225545374 0.0893890926 -2.3022524295
H -5.1302747926 2.2703008071 1.5303232226
H -2.7833789729 -2.4145217323 1.2080992954
H -1.7861099457 -4.0817446327 -0.4732165401
H -3.3017438061 -3.5720423996 -1.2827498983
H -0.54599724 -3.0177790144 -2.2145233388
H -2.0273087773 -2.2932807421 -2.910097353
H -0.1854939468 -0.6405505356 -1.5288166719
H -6.4306243979 1.0254039708 1.4912022564
H -6.4060847053 2.3437063343 0.2502843586
H 6.3505187299 1.8835486619 0.4385244169
H 5.1898949913 2.7092345375 -0.6744251969
H 6.2660908894 1.408670398 -1.3078040327
H 0.8910429495 3.6923462419 0.7928766096
H -0.7162952787 3.3320114893 1.5647458962
H -1.6729505953 3.8210855948 -0.5502339759
H -0.074435542 3.7191844185 -1.3938842338
$end

$rem
JOBTYPE                   OPT
METHOD                    B3LYP
DFT_D                     d3_op
BASIS                     STO-3G
GEOM_OPT_MAX_CYCLES       100
GEOM_OPT_TOL_GRADIENT     300
GEOM_OPT_TOL_DISPLACEMENT 1200
GEOM_OPT_TOL_ENERGY       100
SYMMETRY                  False
THRESH                    12
SCF_CONVERGENCE           8
MAX_SUB_FILE_NUM          128
MEM_STATIC                400
MEM_TOTAL                 4000
$end
--------------------------------------------------------------

   16   -1510.2814151295      6.55E-09 Convergence criterion met
 Total energy in the final basis set = -1510.28141513
   14   -1510.2752449044      4.12E-09 Convergence criterion met
 Total energy in the final basis set = -1510.27524490
   14   -1510.2838425244      5.74E-09 Convergence criterion met
 Total energy in the final basis set = -1510.28384252
   14   -1510.2866638417      6.01E-09 Convergence criterion met
 Total energy in the final basis set = -1510.28666384
   13   -1510.2887598900      7.20E-09 Convergence criterion met
 Total energy in the final basis set = -1510.28875989
   13   -1510.2900034437      6.54E-09 Convergence criterion met
 Total energy in the final basis set = -1510.29000344
   13   -1510.2911296409      2.08E-09 Convergence criterion met
 Total energy in the final basis set = -1510.29112964
   13   -1510.2922339634      4.13E-09 Convergence criterion met
   10   -1510.3055570048      5.11E-09 Convergence criterion met
 Total energy in the final basis set = -1510.30555700
   11   -1510.3055651908      6.13E-09 Convergence criterion met
 Total energy in the final basis set = -1510.30556519
    9   -1510.3055590509      6.00E-09 Convergence criterion met
 Total energy in the final basis set = -1510.30555905
    9   -1510.3055613894      5.75E-09 Convergence criterion met
 Total energy in the final basis set = -1510.30556139
    9   -1510.3055654302      7.48E-09 Convergence criterion met
 Total energy in the final basis set = -1510.30556543
    9   -1510.3055667214      4.05E-09 Convergence criterion met
 Total energy in the final basis set = -1510.30556672

             Standard Nuclear Orientation (Angstroms)
    I     Atom           X                Y                Z
 ----------------------------------------------------------------
    1      O      -1.9094397429    -0.8225346857     1.3202709012
    2      C      -2.8299208758    -0.6981448653     0.4761762728
    3      C      -2.7417437316    -0.9236010428    -1.0794505946
    4      C      -1.8353558754     0.1606292639    -1.7972099715
    5      C      -1.6951217007     1.4433158740    -0.9082528969
    6      O      -0.7817809395     2.3786334610    -1.4864271032
    7      C      -0.8215393821     3.6559070713    -0.7242098188
    8      C       0.2042973634     3.6480877584     0.4756048857
    9      O       0.1204168834     2.3441912581     1.1711323654
   10      C       1.1909314361     1.5005172961     0.7220514963
   11      C       0.9217228946     0.0323584638     1.1514391572
   12      C       1.7848039702    -0.9954650520     0.3086371925
   13      C       2.6399712767    -0.3142217780    -0.8165259416
   14      O       2.2275301284     0.0271178869    -1.9570703334
   15      O      -4.1968990380    -0.4647888451     0.8220256725
   16      O       4.0089313890    -0.2280715300    -0.4285282530
   17      O       2.1725885478     1.9246321661     0.0665104321
   18      C       4.7841942074     0.4738806728    -1.4760862295
   19      C       1.4346986514    -0.2885732438     2.6217428142
   20      C       0.7875585587    -1.6661277460     3.0466003940
   21      C       1.6648964388    -2.6789942567     2.2213942211
   22      C       2.6295702513    -1.6916290081     1.4512007039
   23      O       2.8671753369    -0.6063735394     2.4330561005
   24      H      -0.1668436840    -0.1975321292     1.0692618053
   25      H       1.0800523719    -1.6918134721    -0.1912357219
   26      H       1.3078989186     0.5381231526     3.3474914698
   27      H       0.8907622649    -1.8281394732     4.1313702133
   28      H      -0.2793612042    -1.7066540241     2.7717984795
   29      H       2.2407955685    -3.3473769016     2.8815028718
   30      H       1.0670835245    -3.2918271140     1.5279187765
   31      H       3.5905597889    -2.1271923841     1.1177297268
   32      O      -2.3803297386     1.6758666517     0.1166516963
   33      C      -4.3090842701    -0.2039785771     2.2755799189
   34      C      -1.9121380099    -2.2375490416    -1.3796472674
   35      C      -1.9442421158    -2.5376019857    -2.9312278952
   36      C      -0.8886859805    -1.4989741683    -3.4690296576
   37      C      -0.5372445420    -0.7002347096    -2.1528879919
   38      O      -0.5297273755    -1.7789651717    -1.1363847734
   39      H      -3.7654879758    -0.9503678112    -1.4910259986
   40      H      -2.3148619517     0.4922908582    -2.7371376239
   41      H      -3.7354581007     0.7008231275     2.5625475728
   42      H      -2.1599229758    -3.0961106511    -0.7255794686
   43      H      -1.6354524164    -3.5756700927    -3.1315197807
   44      H      -2.9487462595    -2.3803413914    -3.3558462984
   45      H       0.0108550622    -2.0068398878    -3.8522237891
   46      H      -1.2934676437    -0.8519476255    -4.2632793941
   47      H       0.4693825935    -0.1956404901    -2.1439925912
   48      H      -3.9421401002    -1.0620371760     2.8750040517
   49      H      -5.3843308587    -0.0430442329     2.4755043956
   50      H       5.8347720005     0.4700136679    -1.1321432135
   51      H       4.4331056164     1.5192104915    -1.5949358490
   52      H       4.7080858960    -0.0400377030    -2.4560680614
   53      H       1.2411389079     3.7841075809     0.1002157660
   54      H      -0.0563942476     4.4460723160     1.1996790888
   55      H      -1.8475980059     3.8239777471    -0.3358418986
   56      H      -0.5522271924     4.4529481081    -1.4464034675
 ----------------------------------------------------------------

    9   -1510.3055665457      1.75E-09 Convergence criterion met
 Total energy in the final basis set = -1510.30556655
 Final energy is   -1510.30556654568
 **  OPTIMIZATION CONVERGED  **

                    Orbital Energies (a.u.)
 --------------------------------------------------------------

 Alpha MOs
 -- Occupied --
-18.945 -18.932 -18.930 -18.925 -18.887 -18.885 -18.875 -18.869
-18.868 -18.857 -10.107 -10.100 -10.093 -10.089 -10.075 -10.068
-10.061 -10.060 -10.052 -10.042 -10.040 -10.038 -10.037 -10.035
-10.018 -10.012 -10.009 -10.007 -10.002  -9.999  -1.024  -1.009
 -1.005  -0.997  -0.970  -0.952  -0.944  -0.933  -0.931  -0.921
 -0.762  -0.745  -0.722  -0.715  -0.702  -0.697  -0.686  -0.660
 -0.648  -0.615  -0.591  -0.569  -0.544  -0.535  -0.530  -0.520
 -0.508  -0.499  -0.486  -0.474  -0.459  -0.454  -0.448  -0.433
 -0.429  -0.422  -0.414  -0.413  -0.409  -0.405  -0.399  -0.399
 -0.392  -0.379  -0.368  -0.365  -0.359  -0.354  -0.351  -0.347
 -0.343  -0.340  -0.327  -0.322  -0.318  -0.315  -0.312  -0.308
 -0.300  -0.297  -0.294  -0.288  -0.285  -0.278  -0.273  -0.265
 -0.264  -0.255  -0.249  -0.244  -0.236  -0.228  -0.212  -0.195
 -0.174  -0.168  -0.163  -0.160  -0.154  -0.148  -0.143  -0.138
 -0.126

          Ground-State Mulliken Net Atomic Charges

     Atom                 Charge (a.u.)
  ----------------------------------------
      1 O                    -0.225815
      2 C                     0.222734
      3 C                    -0.079894
      4 C                    -0.081565
      5 C                     0.212425
      6 O                    -0.165390
      7 C                    -0.051583
      8 C                    -0.056025
      9 O                    -0.170753
     10 C                     0.209709
     11 C                    -0.094321
     12 C                    -0.095864
     13 C                     0.220868
     14 O                    -0.230200
     15 O                    -0.167312
     16 O                    -0.163314
     17 O                    -0.213134
     18 C                    -0.126215
     19 C                     0.025562
     20 C                    -0.146523
     21 C                    -0.143426
     22 C                     0.023861
     23 O                    -0.193090
     24 H                     0.114059
     25 H                     0.110271
     26 H                     0.078752
     27 H                     0.071028
     28 H                     0.086681
     29 H                     0.072091
     30 H                     0.073508
     31 H                     0.083792
     32 O                    -0.207830
     33 C                    -0.127726
     34 C                     0.026865
     35 C                    -0.145557
     36 C                    -0.143019
     37 C                     0.005363
     38 O                    -0.197264
     39 H                     0.085886
     40 H                     0.085766
     41 H                     0.094708
     42 H                     0.081384
     43 H                     0.076676
     44 H                     0.072412
     45 H                     0.077810
     46 H                     0.071677
     47 H                     0.120473
     48 H                     0.087537
     49 H                     0.088882
     50 H                     0.088405
     51 H                     0.093528
     52 H                     0.086692
     53 H                     0.101986
     54 H                     0.088434
     55 H                     0.094935
     56 H                     0.091058
  ----------------------------------------
  Sum of atomic charges =    -0.000000

                    Cartesian Multipole Moments
 -----------------------------------------------------------------
    Charge (ESU x 10^10)
                -0.0000
    Dipole Moment (Debye)
         X      -2.5703      Y       0.4256      Z      -1.3516
       Tot       2.9351
    Quadrupole Moments (Debye-Ang)
        XX    -157.3695     XY       0.5852     YY    -146.4022
        XZ      -3.5017     YZ       0.7608     ZZ    -157.1375

 Total job time:  181.67s(wall), 8669.94s(cpu)
        *  Thank you very much for using Q-Chem.  Have a nice day.  *
