 Q-Chem 5.0, Q-Chem, Inc., Pleasanton, CA (2017)
 Q-Chem 5.0.1 for Intel X86 EM64T Linux

User input:
--------------------------------------------------------------
$molecule
0  1
O -3.94934 -3.66094 2.70899
C -3.26408 -4.56952 2.26188
C -3.36658 -6.02376 2.66595
C -2.05651 -6.75173 3.00891
C -0.80983 -5.89818 3.08186
O 0.26206 -6.67097 3.42723
C 1.50174 -5.95537 3.40793
C 1.51082 -4.89018 4.49946
O 0.37626 -5.06441 5.36276
C 0.65169 -5.55932 6.59497
C -0.5702 -6.10079 7.29815
C -0.38652 -7.48186 7.94405
C 1.04559 -7.9505 8.10581
O 1.4975 -9.0063 7.68675
O -2.55602 -4.33038 1.12373
O 1.85846 -7.19537 8.89629
O 1.73226 -5.39013 7.14235
C 3.1688 -7.50522 9.19689
C -0.99863 -5.28041 8.53544
C -2.48759 -5.5033 8.80326
C -2.47658 -6.94466 9.27756
C -0.96465 -7.19972 9.3414
O -0.41647 -5.93662 9.63468
H -1.41584 -6.06744 6.59299
H -0.93244 -8.27497 7.38687
H -0.7796 -4.19447 8.44006
H -2.75641 -4.84787 9.66285
H -3.17525 -5.28922 7.95679
H -2.93849 -6.98443 10.28873
H -2.97436 -7.67079 8.59846
H -0.72832 -8.01413 10.06147
O -0.73044 -4.70085 2.84054
C -2.43861 -3.09428 0.52251
C -4.16185 -6.24385 3.96605
C -4.70692 -7.67107 4.01294
C -3.43575 -8.45097 4.27284
C -2.4252 -7.30687 4.39355
O -3.17496 -6.26019 4.96424
H -3.88946 -6.52697 1.8215
H -1.83797 -7.56446 2.2801
H -1.96185 -2.37377 1.22103
H -4.99243 -5.51877 4.10755
H -5.36042 -7.75226 4.911
H -5.27909 -7.98011 3.11182
H -3.53628 -8.96971 5.25253
H -3.15539 -9.18233 3.48426
H -1.5362 -7.65527 4.9601
H -3.43913 -2.71844 0.21933
H -1.80352 -3.18889 -0.38198
H 3.58665 -6.71635 9.85523
H 3.77336 -7.55178 8.26593
H 3.21988 -8.47935 9.72848
H 2.50996 -4.83218 4.98688
H 1.37114 -3.89725 4.02221
H 1.78299 -5.56128 2.40587
H 2.26929 -6.70767 3.68845
$end

$opt
CONSTRAINT
tors           1           2           3           4    -131.785
tors           3           4           5           6    +178.449
tors           4           5           6           7    +175.078
tors           5           6           7           8     +66.431
tors           6           7           8           9      +9.581
tors           7           8           9          10    +107.136
tors           8           9          10          11    -162.956
tors           9          10          11          12    +133.079
tors          11          12          13          14    -125.321
ENDCONSTRAINT
$end

$rem
JOBTYPE                   OPT
METHOD                    B3LYP
DFT_D                     d3_op
BASIS                     STO-3G
GEOM_OPT_MAX_CYCLES       100
GEOM_OPT_TOL_GRADIENT     300
GEOM_OPT_TOL_DISPLACEMENT 1200
GEOM_OPT_TOL_ENERGY       100
SYMMETRY                  False
THRESH                    12
SCF_CONVERGENCE           8
MAX_SUB_FILE_NUM          128
MEM_STATIC                400
MEM_TOTAL                 4000
$end
--------------------------------------------------------------

   15   -1510.1487006741      7.45E-09 Convergence criterion met
 Total energy in the final basis set = -1510.14870067
   14   -1510.2189876344      2.00E-09 Convergence criterion met
 Total energy in the final basis set = -1510.21898763
   14   -1510.2552814513      2.03E-09 Convergence criterion met
 Total energy in the final basis set = -1510.25528145
   14   -1510.2697160451      5.31E-09 Convergence criterion met
 Total energy in the final basis set = -1510.26971605
   14   -1510.2760434740      4.47E-09 Convergence criterion met
 Total energy in the final basis set = -1510.27604347
   13   -1510.2781880462      4.16E-09 Convergence criterion met
 Total energy in the final basis set = -1510.27818805
   13   -1510.2797403307      2.40E-09 Convergence criterion met
 Total energy in the final basis set = -1510.27974033
   13   -1510.2803829138      2.98E-09 Convergence criterion met
   11   -1510.2813467741      5.95E-09 Convergence criterion met
 Total energy in the final basis set = -1510.28134677
   10   -1510.2813705854      8.08E-09 Convergence criterion met
 Total energy in the final basis set = -1510.28137059
   10   -1510.2813800549      5.65E-09 Convergence criterion met
 Total energy in the final basis set = -1510.28138005
    9   -1510.2813889735      7.50E-09 Convergence criterion met
 Total energy in the final basis set = -1510.28138897
   10   -1510.2813952935      7.15E-09 Convergence criterion met
 Total energy in the final basis set = -1510.28139529
    9   -1510.2813996075      6.88E-09 Convergence criterion met
 Total energy in the final basis set = -1510.28139961

             Standard Nuclear Orientation (Angstroms)
    I     Atom           X                Y                Z
 ----------------------------------------------------------------
    1      O      -4.4244776512    -0.4261887741     1.8264398279
    2      C      -4.2349792466    -0.1326571710     0.6271500569
    3      C      -3.4258689710    -0.9658415561    -0.4343843528
    4      C      -2.3818576587    -0.1397188971    -1.2766977240
    5      C      -2.0130443981     1.1879722348    -0.5182186333
    6      O      -1.0433503737     1.9028292362    -1.2756268316
    7      C      -0.7442749214     3.2222078053    -0.6649267025
    8      C      -0.0226704084     3.0615471951     0.7438201892
    9      O       0.3391380360     1.6411814047     0.9110494209
   10      C       1.7454722980     1.3852812654     0.7786043414
   11      C       1.8248209767    -0.1614165234     0.5450005857
   12      C       2.7587182872    -0.6397055541    -0.6404485328
   13      C       3.8282768110     0.4085297588    -1.1094534313
   14      O       3.9908245402     0.8304152382    -2.2766523267
   15      O      -4.9776395335     0.8716896524    -0.0889456561
   16      O       4.6842066230     0.7309607904    -0.0128044375
   17      O       2.6197982526     2.2768248144     0.7863248837
   18      C       5.6792242935     1.7447018112    -0.4285545373
   19      C       2.3303024037    -1.0885201437     1.7372802489
   20      C       1.6034013197    -2.4766220808     1.5171130209
   21      C       2.4018331620    -3.0292062275     0.2779003650
   22      C       3.4692002877    -1.8838127580     0.0542427790
   23      O       3.7436382692    -1.3827279324     1.4195246147
   24      H       0.7799737417    -0.4447400065     0.3371860854
   25      H       2.1691214147    -0.9339647264    -1.5265406092
   26      H       2.2385901110    -0.6515273967     2.7502664744
   27      H       1.7214778407    -3.1256259988     2.3992198541
   28      H       0.5296073820    -2.3403655990     1.2900339510
   29      H       2.9044453706    -3.9825318864     0.5056776615
   30      H       1.7585508193    -3.1715431479    -0.6057481196
   31      H       4.4083573764    -2.2040417716    -0.4370336864
   32      O      -2.4890600618     1.5741309499     0.5740033241
   33      C      -5.7806695270     1.6681515912     0.8627512345
   34      C      -2.4888039795    -2.0886507911     0.1912114547
   35      C      -2.3327276339    -3.2218406397    -0.8929445099
   36      C      -1.4711789895    -2.4695671457    -1.9751523263
   37      C      -1.1384720270    -1.1164446590    -1.2307071927
   38      O      -1.1279415345    -1.4866152105     0.2083352747
   39      H      -4.1710481220    -1.4274905341    -1.1080825359
   40      H      -2.7225545374     0.0893890926    -2.3022524295
   41      H      -5.1302747926     2.2703008071     1.5303232226
   42      H      -2.7833789729    -2.4145217323     1.2080992954
   43      H      -1.7861099457    -4.0817446327    -0.4732165401
   44      H      -3.3017438061    -3.5720423996    -1.2827498983
   45      H      -0.5459972400    -3.0177790144    -2.2145233388
   46      H      -2.0273087773    -2.2932807421    -2.9100973530
   47      H      -0.1854939468    -0.6405505356    -1.5288166719
   48      H      -6.4306243979     1.0254039708     1.4912022564
   49      H      -6.4060847053     2.3437063343     0.2502843586
   50      H       6.3505187299     1.8835486619     0.4385244169
   51      H       5.1898949913     2.7092345375    -0.6744251969
   52      H       6.2660908894     1.4086703980    -1.3078040327
   53      H       0.8910429495     3.6923462419     0.7928766096
   54      H      -0.7162952787     3.3320114893     1.5647458962
   55      H      -1.6729505953     3.8210855948    -0.5502339759
   56      H      -0.0744355420     3.7191844185    -1.3938842338
 ----------------------------------------------------------------

    9   -1510.2813997960      4.81E-09 Convergence criterion met
 Total energy in the final basis set = -1510.28139980
 Final energy is   -1510.28139979604
 **  OPTIMIZATION CONVERGED  **

                    Orbital Energies (a.u.)
 --------------------------------------------------------------

 Alpha MOs
 -- Occupied --
-18.946 -18.928 -18.926 -18.918 -18.898 -18.889 -18.883 -18.879
-18.862 -18.862 -10.111 -10.099 -10.093 -10.089 -10.080 -10.071
-10.069 -10.064 -10.055 -10.055 -10.053 -10.052 -10.046 -10.037
-10.032 -10.028 -10.026 -10.025 -10.013 -10.004  -1.026  -1.009
 -1.000  -0.998  -0.979  -0.963  -0.948  -0.936  -0.925  -0.924
 -0.770  -0.758  -0.732  -0.719  -0.712  -0.706  -0.694  -0.656
 -0.650  -0.624  -0.598  -0.577  -0.553  -0.544  -0.540  -0.531
 -0.512  -0.506  -0.481  -0.477  -0.465  -0.462  -0.457  -0.437
 -0.435  -0.428  -0.423  -0.413  -0.408  -0.404  -0.403  -0.401
 -0.394  -0.383  -0.371  -0.368  -0.361  -0.356  -0.348  -0.346
 -0.342  -0.338  -0.337  -0.330  -0.329  -0.326  -0.321  -0.315
 -0.312  -0.307  -0.304  -0.298  -0.292  -0.281  -0.278  -0.276
 -0.271  -0.260  -0.247  -0.245  -0.243  -0.238  -0.225  -0.189
 -0.174  -0.169  -0.166  -0.161  -0.156  -0.152  -0.143  -0.141
 -0.136

          Ground-State Mulliken Net Atomic Charges

     Atom                 Charge (a.u.)
  ----------------------------------------
      1 O                    -0.219694
      2 C                     0.217547
      3 C                    -0.080989
      4 C                    -0.074868
      5 C                     0.224944
      6 O                    -0.168559
      7 C                    -0.048919
      8 C                    -0.054574
      9 O                    -0.175658
     10 C                     0.210080
     11 C                    -0.087014
     12 C                    -0.079947
     13 C                     0.206083
     14 O                    -0.220605
     15 O                    -0.179543
     16 O                    -0.157856
     17 O                    -0.208953
     18 C                    -0.125610
     19 C                     0.027277
     20 C                    -0.149576
     21 C                    -0.144973
     22 C                     0.026692
     23 O                    -0.184630
     24 H                     0.099920
     25 H                     0.079390
     26 H                     0.083570
     27 H                     0.072751
     28 H                     0.090595
     29 H                     0.075436
     30 H                     0.069507
     31 H                     0.081185
     32 O                    -0.203521
     33 C                    -0.128780
     34 C                     0.024145
     35 C                    -0.142152
     36 C                    -0.144975
     37 C                     0.023194
     38 O                    -0.194196
     39 H                     0.084120
     40 H                     0.089427
     41 H                     0.088668
     42 H                     0.093757
     43 H                     0.078733
     44 H                     0.075656
     45 H                     0.077321
     46 H                     0.076155
     47 H                     0.086682
     48 H                     0.087855
     49 H                     0.085373
     50 H                     0.090718
     51 H                     0.089496
     52 H                     0.086377
     53 H                     0.096870
     54 H                     0.094317
     55 H                     0.089383
     56 H                     0.092368
  ----------------------------------------
  Sum of atomic charges =     0.000000

                    Cartesian Multipole Moments
 -----------------------------------------------------------------
    Charge (ESU x 10^10)
                 0.0000
    Dipole Moment (Debye)
         X      -2.0857      Y      -0.1147      Z      -2.1855
       Tot       3.0232
    Quadrupole Moments (Debye-Ang)
        XX    -161.6883     XY      -2.1991     YY    -145.8825
        XZ       5.3298     YZ       4.5557     ZZ    -166.3956

 Total job time:  57.91s(wall), 2758.15s(cpu)
        *  Thank you very much for using Q-Chem.  Have a nice day.  *
