 Q-Chem 5.0, Q-Chem, Inc., Pleasanton, CA (2017)
 Q-Chem 5.0.1 for Intel X86 EM64T Linux

User input:
--------------------------------------------------------------
$molecule
0  1
O -4.8590801807 -0.0686101715 1.5148672522
C -4.50044229 0.0411783457 0.3233776461
C -3.5591173371 -0.9280543915 -0.4815800516
C -2.3023896234 -0.2469079261 -1.1468855304
C -1.9871970406 1.1314922943 -0.4533145455
O -0.6735671875 1.5572712928 -0.804204461
C -0.4543795735 2.9867697702 -0.4692420994
C 0.382975749 3.1431991277 0.8770106319
O 0.7229583896 1.8084894209 1.3982895699
C 2.0599439655 1.3932482874 1.0546682622
C 1.9470485982 -0.1235223194 0.6750702859
C 2.6892670705 -0.5316204777 -0.6638840928
C 3.7503766765 0.5152763605 -1.1582940047
O 3.6967986086 1.1777288656 -2.2187007966
O -5.1149552976 0.9251821771 -0.6310067356
O 4.8573642971 0.5277795974 -0.2559234675
O 3.0296581055 2.1758710705 0.9713538625
C 5.8358332581 1.5571022537 -0.6728223071
C 2.5034865738 -1.2142214142 1.6914507187
C 1.6615250609 -2.5264671894 1.4168116644
C 2.2764675367 -2.9822537226 0.0407014027
C 3.386679266 -1.8806613793 -0.1907754499
O 3.8472299055 -1.5542736987 1.1777995451
H 0.862041914 -0.2768089833 0.5645598831
H 1.9705970097 -0.6930510313 -1.4866771572
H 2.5566914158 -0.8908155446 2.7488495092
H 1.8452702849 -3.2736343901 2.2050687122
H 0.5762638687 -2.3248626556 1.3537532107
H 2.7380588035 -3.9798729421 0.1129550233
H 1.5334917542 -2.9994135121 -0.7726019223
H 4.2404332511 -2.1973906317 -0.8204145957
O -2.7504056972 1.7780058543 0.3004386919
C -6.0246818464 1.857451746 0.0683109875
C -2.8578690921 -2.0653632437 0.3861390711
C -2.6102755716 -3.2862556234 -0.5795956043
C -1.5047057026 -2.6840944416 -1.5242314692
C -1.1891634274 -1.3105962723 -0.8074106159
O -1.4736279967 -1.572706792 0.6261934621
H -4.1870301659 -1.3880496095 -1.2661269772
H -2.4300653937 -0.0836172664 -2.2330656767
H -5.4600775013 2.5473715723 0.7288197403
H -3.3644619999 -2.2882512675 1.345481562
H -2.2257062072 -4.1509278842 -0.0150937875
H -3.5193156929 -3.5904764906 -1.1222941578
H -0.604817785 -3.3181192404 -1.5554920971
H -1.8643391989 -2.5326955713 -2.5546649958
H -0.1598089139 -0.9386357303 -0.9527518147
H -6.7742547416 1.3167447286 0.6816147089
H -6.5375827958 2.4384288774 -0.7202510736
H 6.699610873 1.4488938823 0.0083197495
H 5.4092907984 2.5758251983 -0.5702962814
H 6.164029995 1.411333205 -1.7222472967
H 1.301620291 3.7427674357 0.6991533918
H -0.2368703427 3.6478675477 1.6462099787
H -1.4298444273 3.5051221054 -0.3674405111
H 0.1124058548 3.409882212 -1.3235417148
$end

$rem
JOBTYPE                   OPT
METHOD                    B3LYP
DFT_D                     d3_op
BASIS                     STO-3G
GEOM_OPT_MAX_CYCLES       100
GEOM_OPT_TOL_GRADIENT     300
GEOM_OPT_TOL_DISPLACEMENT 1200
GEOM_OPT_TOL_ENERGY       100
SYMMETRY                  False
THRESH                    12
SCF_CONVERGENCE           8
MAX_SUB_FILE_NUM          128
MEM_STATIC                400
MEM_TOTAL                 4000
$end
--------------------------------------------------------------

   16   -1510.2706862177      6.06E-09 Convergence criterion met
 Total energy in the final basis set = -1510.27068622
   14   -1510.2763067854      2.95E-09 Convergence criterion met
 Total energy in the final basis set = -1510.27630679
   14   -1510.2796617443      2.65E-09 Convergence criterion met
 Total energy in the final basis set = -1510.27966174
   14   -1510.2843512044      2.43E-09 Convergence criterion met
 Total energy in the final basis set = -1510.28435120
   13   -1510.2876599887      8.70E-09 Convergence criterion met
 Total energy in the final basis set = -1510.28765999
   13   -1510.2898317535      6.95E-09 Convergence criterion met
 Total energy in the final basis set = -1510.28983175
   13   -1510.2911975618      4.78E-09 Convergence criterion met
 Total energy in the final basis set = -1510.29119756
   13   -1510.2926152481      3.99E-09 Convergence criterion met
   11   -1510.3054920092      3.41E-09 Convergence criterion met
 Total energy in the final basis set = -1510.30549201
   10   -1510.3055027497      9.63E-09 Convergence criterion met
 Total energy in the final basis set = -1510.30550275
   12   -1510.3055077948      2.97E-09 Convergence criterion met
 Total energy in the final basis set = -1510.30550779
   11   -1510.3055014938      3.43E-09 Convergence criterion met
 Total energy in the final basis set = -1510.30550149
    9   -1510.3055159440      7.48E-09 Convergence criterion met
 Total energy in the final basis set = -1510.30551594
    9   -1510.3055101384      6.37E-09 Convergence criterion met
 Total energy in the final basis set = -1510.30551014

             Standard Nuclear Orientation (Angstroms)
    I     Atom           X                Y                Z
 ----------------------------------------------------------------
    1      O      -1.9175884898    -0.7514655749     1.3123327722
    2      C      -2.8401883230    -0.5808508750     0.4787619993
    3      C      -2.7826497635    -0.8134442739    -1.0774681443
    4      C      -1.8291235475     0.2190596621    -1.8103371246
    5      C      -1.6174845818     1.4973407108    -0.9292287794
    6      O      -0.6770743539     2.3921818448    -1.5276586096
    7      C      -0.6523291632     3.6743960651    -0.7729599539
    8      C       0.3985686663     3.6346032654     0.4036672785
    9      O       0.2652076564     2.3476014241     1.1224491802
   10      C       1.2752901151     1.4409549664     0.6567021744
   11      C       0.9406798953    -0.0041428760     1.1169198281
   12      C       1.7344920599    -1.0896302551     0.2788159423
   13      C       2.6171704975    -0.4724894773    -0.8627451344
   14      O       2.2188704799    -0.1386279584    -2.0105065146
   15      O      -4.1902662527    -0.2817683328     0.8404750822
   16      O       3.9893960778    -0.4396827282    -0.4778529562
   17      O       2.2591435233     1.8014978077    -0.0327543506
   18      C       4.7933632720     0.2034588472    -1.5413373735
   19      C       1.4605483124    -0.3253876914     2.5850740812
   20      C       0.7446808449    -1.6550982036     3.0500437283
   21      C       1.5425243147    -2.7308560929     2.2232923183
   22      C       2.5524610927    -1.8155418896     1.4220999102
   23      O       2.8687203754    -0.7289397897     2.3798411979
   24      H      -0.1589185702    -0.1810811569     1.0548650056
   25      H       0.9875433148    -1.7524196861    -0.2055801604
   26      H       1.3942389137     0.5215988912     3.2953248588
   27      H       0.8651890262    -1.8039569516     4.1349584745
   28      H      -0.3291482265    -1.6388766363     2.8008682109
   29      H       2.0877164461    -3.4257597469     2.8820301005
   30      H       0.8944003008    -3.3131839600     1.5491562310
   31      H       3.4807597836    -2.3136924292     1.0837665605
   32      O      -2.2746332709     1.7615727013     0.1064273572
   33      C      -4.2741878564    -0.0244124118     2.2964410365
   34      C      -2.0280173756    -2.1704814014    -1.3830915990
   35      C      -2.0947133539    -2.4720787428    -2.9329745573
   36      C      -0.9898986977    -1.4946731715    -3.4862017052
   37      C      -0.5820466992    -0.7109347528    -2.1775144910
   38      O      -0.6202661210    -1.7854134637    -1.1574397597
   39      H      -3.8117353928    -0.7859926351    -1.4755217684
   40      H      -2.3012049523     0.5712321120    -2.7466503500
   41      H      -3.6577536730     0.8522576257     2.5821361548
   42      H      -2.3132651775    -3.0127929294    -0.7232279258
   43      H      -1.8464323388    -3.5261003060    -3.1341552931
   44      H      -3.0937091586    -2.2600597288    -3.3466867585
   45      H      -0.1231579133    -2.0526077778    -3.8753103705
   46      H      -1.3666072135    -0.8304130621    -4.2800655926
   47      H       0.4505149269    -0.2618174505    -2.1818513263
   48      H      -3.9391513104    -0.9014974052     2.8869528137
   49      H      -5.3388216969     0.1831063514     2.5096820134
   50      H       5.8418069870     0.1715592494    -1.1923792142
   51      H       4.4808892408     1.2568916957    -1.6920907755
   52      H       4.7027117234    -0.3355237934    -2.5065752144
   53      H       1.4319744981     3.7133071131     0.0032644498
   54      H       0.1933574759     4.4557315536     1.1195789501
   55      H      -1.6624311540     3.8822802164    -0.3626314840
   56      H      -0.3699676125     4.4570423240    -1.5059268136
 ----------------------------------------------------------------

    8   -1510.3055103124      6.92E-09 Convergence criterion met
 Total energy in the final basis set = -1510.30551031
 Final energy is   -1510.30551031242
 **  OPTIMIZATION CONVERGED  **

                    Orbital Energies (a.u.)
 --------------------------------------------------------------

 Alpha MOs
 -- Occupied --
-18.945 -18.932 -18.931 -18.925 -18.887 -18.885 -18.875 -18.869
-18.868 -18.857 -10.107 -10.100 -10.094 -10.089 -10.076 -10.069
-10.061 -10.060 -10.052 -10.042 -10.040 -10.038 -10.037 -10.035
-10.018 -10.012 -10.009 -10.006 -10.002  -9.999  -1.024  -1.009
 -1.005  -0.997  -0.970  -0.952  -0.945  -0.934  -0.931  -0.921
 -0.762  -0.745  -0.722  -0.715  -0.702  -0.697  -0.685  -0.660
 -0.648  -0.615  -0.591  -0.569  -0.543  -0.535  -0.530  -0.520
 -0.508  -0.499  -0.486  -0.474  -0.459  -0.453  -0.448  -0.433
 -0.430  -0.422  -0.414  -0.413  -0.409  -0.405  -0.399  -0.399
 -0.392  -0.379  -0.368  -0.365  -0.359  -0.355  -0.351  -0.347
 -0.343  -0.340  -0.327  -0.322  -0.318  -0.315  -0.312  -0.308
 -0.300  -0.297  -0.294  -0.288  -0.285  -0.278  -0.273  -0.265
 -0.264  -0.255  -0.249  -0.245  -0.236  -0.227  -0.212  -0.195
 -0.174  -0.168  -0.163  -0.160  -0.154  -0.148  -0.143  -0.138
 -0.126

          Ground-State Mulliken Net Atomic Charges

     Atom                 Charge (a.u.)
  ----------------------------------------
      1 O                    -0.226230
      2 C                     0.222829
      3 C                    -0.079907
      4 C                    -0.081623
      5 C                     0.212265
      6 O                    -0.165356
      7 C                    -0.051627
      8 C                    -0.055875
      9 O                    -0.170747
     10 C                     0.209617
     11 C                    -0.094470
     12 C                    -0.095899
     13 C                     0.220925
     14 O                    -0.230290
     15 O                    -0.167430
     16 O                    -0.163391
     17 O                    -0.212941
     18 C                    -0.126177
     19 C                     0.025583
     20 C                    -0.146534
     21 C                    -0.143493
     22 C                     0.023970
     23 O                    -0.193046
     24 H                     0.113876
     25 H                     0.110359
     26 H                     0.078694
     27 H                     0.070988
     28 H                     0.086794
     29 H                     0.072031
     30 H                     0.073707
     31 H                     0.083580
     32 O                    -0.207570
     33 C                    -0.127735
     34 C                     0.026898
     35 C                    -0.145545
     36 C                    -0.142984
     37 C                     0.005452
     38 O                    -0.197157
     39 H                     0.085850
     40 H                     0.085742
     41 H                     0.094465
     42 H                     0.081431
     43 H                     0.076697
     44 H                     0.072394
     45 H                     0.077950
     46 H                     0.071667
     47 H                     0.120573
     48 H                     0.087542
     49 H                     0.088871
     50 H                     0.088365
     51 H                     0.093579
     52 H                     0.086430
     53 H                     0.102040
     54 H                     0.088600
     55 H                     0.095161
     56 H                     0.091104
  ----------------------------------------
  Sum of atomic charges =    -0.000000

                    Cartesian Multipole Moments
 -----------------------------------------------------------------
    Charge (ESU x 10^10)
                -0.0000
    Dipole Moment (Debye)
         X      -2.5827      Y       0.5851      Z      -1.2977
       Tot       2.9491
    Quadrupole Moments (Debye-Ang)
        XX    -157.3651     XY       1.1721     YY    -146.4340
        XZ      -3.2737     YZ       0.7771     ZZ    -157.0517

 Total job time:  190.81s(wall), 9101.74s(cpu)
        *  Thank you very much for using Q-Chem.  Have a nice day.  *
