 Q-Chem 5.0, Q-Chem, Inc., Pleasanton, CA (2017)
 Q-Chem 5.0.1 for Intel X86 EM64T Linux

User input:
--------------------------------------------------------------
$molecule
0  1
O -3.94934 -3.66094 2.70899
C -3.26408 -4.56952 2.26188
C -3.36658 -6.02376 2.66595
C -2.08297 -6.70604 3.16665
C -0.88126 -5.81147 3.37579
O 0.05483 -6.46054 4.12936
C 1.33876 -5.82817 4.09975
C 1.55615 -5.01997 5.37477
O 0.41548 -5.15093 6.23768
C 0.5401 -6.06169 7.23474
C -0.71537 -6.87264 7.45115
C -0.49438 -8.38732 7.57445
C 0.93431 -8.82876 7.82078
O 1.61187 -9.4973 7.05363
O -2.48276 -4.31421 1.17718
O 1.50038 -8.46356 9.00504
O 1.5266 -6.0989 7.95575
C 2.78222 -8.79223 9.39467
C -1.41015 -6.60454 8.80817
C -2.89515 -6.95499 8.69707
C -2.82067 -8.46636 8.58149
C -1.32263 -8.68474 8.83394
O -0.95527 -7.61618 9.67309
H -1.44573 -6.55478 6.69301
H -0.83669 -8.92826 6.66849
H -1.28463 -5.56014 9.16852
H -3.35306 -6.69531 9.67881
H -3.46524 -6.44715 7.88974
H -3.44322 -8.91095 9.38892
H -3.11792 -8.88065 7.59365
H -1.12696 -9.70624 9.22856
O -0.78172 -4.629 3.07723
C -2.33092 -3.06966 0.60199
C -4.29531 -6.25098 3.88075
C -4.86322 -7.66541 3.83534
C -3.62309 -8.46966 4.14782
C -2.627 -7.34006 4.44834
O -3.42228 -6.3133 4.98339
H -3.78576 -6.55052 1.77879
H -1.73745 -7.50348 2.47168
H -1.90371 -2.35721 1.33973
H -5.12835 -5.51892 3.95724
H -5.57205 -7.75631 4.68985
H -5.3851 -7.94446 2.89481
H -3.82108 -9.07967 5.05716
H -3.26226 -9.12322 3.32422
H -1.81651 -7.76178 5.05436
H -3.31111 -2.69285 0.23937
H -1.63781 -3.14982 -0.26032
H 2.97738 -8.3645 10.39931
H 3.51944 -8.37209 8.67752
H 2.89493 -9.89617 9.44721
H 2.53769 -5.24194 5.85229
H 1.59642 -3.94792 5.08785
H 1.57885 -5.25406 3.17446
H 2.07525 -6.65956 4.10845
$end

$opt
CONSTRAINT
tors           1           2           3           4    -124.811
tors           3           4           5           6    +164.514
tors           4           5           6           7    +165.534
tors           5           6           7           8    +101.464
tors           6           7           8           9      +0.933
tors           7           8           9          10     +98.491
tors           8           9          10          11    -139.024
tors           9          10          11          12    +133.079
tors          11          12          13          14    -115.524
ENDCONSTRAINT
$end

$rem
JOBTYPE                   OPT
METHOD                    B3LYP
DFT_D                     d3_op
BASIS                     STO-3G
GEOM_OPT_MAX_CYCLES       100
GEOM_OPT_TOL_GRADIENT     300
GEOM_OPT_TOL_DISPLACEMENT 1200
GEOM_OPT_TOL_ENERGY       100
SYMMETRY                  False
THRESH                    12
SCF_CONVERGENCE           8
MAX_SUB_FILE_NUM          128
MEM_STATIC                400
MEM_TOTAL                 4000
$end
--------------------------------------------------------------

   15   -1510.1350663869      6.44E-09 Convergence criterion met
 Total energy in the final basis set = -1510.13506639
   14   -1510.2057335770      5.82E-09 Convergence criterion met
 Total energy in the final basis set = -1510.20573358
   14   -1510.2426825018      8.16E-09 Convergence criterion met
 Total energy in the final basis set = -1510.24268250
   14   -1510.2572519583      7.20E-09 Convergence criterion met
 Total energy in the final basis set = -1510.25725196
   14   -1510.2650312990      8.73E-09 Convergence criterion met
 Total energy in the final basis set = -1510.26503130
   13   -1510.2671996357      8.05E-09 Convergence criterion met
 Total energy in the final basis set = -1510.26719964
   13   -1510.2692143485      3.19E-09 Convergence criterion met
 Total energy in the final basis set = -1510.26921435
   13   -1510.2699013807      2.33E-09 Convergence criterion met
   11   -1510.2706561373      8.88E-09 Convergence criterion met
 Total energy in the final basis set = -1510.27065614
   10   -1510.2706689592      8.91E-09 Convergence criterion met
 Total energy in the final basis set = -1510.27066896
   10   -1510.2706755028      6.44E-09 Convergence criterion met
 Total energy in the final basis set = -1510.27067550
    9   -1510.2706793385      6.42E-09 Convergence criterion met
 Total energy in the final basis set = -1510.27067934
    9   -1510.2706828522      6.18E-09 Convergence criterion met
 Total energy in the final basis set = -1510.27068285
    9   -1510.2706841050      4.47E-09 Convergence criterion met
 Total energy in the final basis set = -1510.27068410

             Standard Nuclear Orientation (Angstroms)
    I     Atom           X                Y                Z
 ----------------------------------------------------------------
    1      O      -4.8590801807    -0.0686101715     1.5148672522
    2      C      -4.5004422900     0.0411783457     0.3233776461
    3      C      -3.5591173371    -0.9280543915    -0.4815800516
    4      C      -2.3023896234    -0.2469079261    -1.1468855304
    5      C      -1.9871970406     1.1314922943    -0.4533145455
    6      O      -0.6735671875     1.5572712928    -0.8042044610
    7      C      -0.4543795735     2.9867697702    -0.4692420994
    8      C       0.3829757490     3.1431991277     0.8770106319
    9      O       0.7229583896     1.8084894209     1.3982895699
   10      C       2.0599439655     1.3932482874     1.0546682622
   11      C       1.9470485982    -0.1235223194     0.6750702859
   12      C       2.6892670705    -0.5316204777    -0.6638840928
   13      C       3.7503766765     0.5152763605    -1.1582940047
   14      O       3.6967986086     1.1777288656    -2.2187007966
   15      O      -5.1149552976     0.9251821771    -0.6310067356
   16      O       4.8573642971     0.5277795974    -0.2559234675
   17      O       3.0296581055     2.1758710705     0.9713538625
   18      C       5.8358332581     1.5571022537    -0.6728223071
   19      C       2.5034865738    -1.2142214142     1.6914507187
   20      C       1.6615250609    -2.5264671894     1.4168116644
   21      C       2.2764675367    -2.9822537226     0.0407014027
   22      C       3.3866792660    -1.8806613793    -0.1907754499
   23      O       3.8472299055    -1.5542736987     1.1777995451
   24      H       0.8620419140    -0.2768089833     0.5645598831
   25      H       1.9705970097    -0.6930510313    -1.4866771572
   26      H       2.5566914158    -0.8908155446     2.7488495092
   27      H       1.8452702849    -3.2736343901     2.2050687122
   28      H       0.5762638687    -2.3248626556     1.3537532107
   29      H       2.7380588035    -3.9798729421     0.1129550233
   30      H       1.5334917542    -2.9994135121    -0.7726019223
   31      H       4.2404332511    -2.1973906317    -0.8204145957
   32      O      -2.7504056972     1.7780058543     0.3004386919
   33      C      -6.0246818464     1.8574517460     0.0683109875
   34      C      -2.8578690921    -2.0653632437     0.3861390711
   35      C      -2.6102755716    -3.2862556234    -0.5795956043
   36      C      -1.5047057026    -2.6840944416    -1.5242314692
   37      C      -1.1891634274    -1.3105962723    -0.8074106159
   38      O      -1.4736279967    -1.5727067920     0.6261934621
   39      H      -4.1870301659    -1.3880496095    -1.2661269772
   40      H      -2.4300653937    -0.0836172664    -2.2330656767
   41      H      -5.4600775013     2.5473715723     0.7288197403
   42      H      -3.3644619999    -2.2882512675     1.3454815620
   43      H      -2.2257062072    -4.1509278842    -0.0150937875
   44      H      -3.5193156929    -3.5904764906    -1.1222941578
   45      H      -0.6048177850    -3.3181192404    -1.5554920971
   46      H      -1.8643391989    -2.5326955713    -2.5546649958
   47      H      -0.1598089139    -0.9386357303    -0.9527518147
   48      H      -6.7742547416     1.3167447286     0.6816147089
   49      H      -6.5375827958     2.4384288774    -0.7202510736
   50      H       6.6996108730     1.4488938823     0.0083197495
   51      H       5.4092907984     2.5758251983    -0.5702962814
   52      H       6.1640299950     1.4113332050    -1.7222472967
   53      H       1.3016202910     3.7427674357     0.6991533918
   54      H      -0.2368703427     3.6478675477     1.6462099787
   55      H      -1.4298444273     3.5051221054    -0.3674405111
   56      H       0.1124058548     3.4098822120    -1.3235417148
 ----------------------------------------------------------------

    9   -1510.2706849468      3.59E-09 Convergence criterion met
 Total energy in the final basis set = -1510.27068495
 Final energy is   -1510.27068494675
 **  OPTIMIZATION CONVERGED  **

                    Orbital Energies (a.u.)
 --------------------------------------------------------------

 Alpha MOs
 -- Occupied --
-18.946 -18.927 -18.920 -18.919 -18.894 -18.892 -18.888 -18.886
-18.864 -18.863 -10.113 -10.103 -10.093 -10.091 -10.078 -10.074
-10.067 -10.062 -10.058 -10.056 -10.055 -10.054 -10.047 -10.036
-10.035 -10.030 -10.027 -10.025 -10.017 -10.010  -1.026  -1.010
 -1.001  -0.998  -0.976  -0.966  -0.950  -0.936  -0.927  -0.925
 -0.769  -0.761  -0.732  -0.719  -0.714  -0.706  -0.696  -0.656
 -0.652  -0.623  -0.598  -0.579  -0.553  -0.544  -0.543  -0.534
 -0.513  -0.508  -0.486  -0.480  -0.465  -0.461  -0.459  -0.438
 -0.434  -0.428  -0.427  -0.413  -0.407  -0.405  -0.402  -0.402
 -0.398  -0.382  -0.379  -0.368  -0.363  -0.358  -0.350  -0.345
 -0.340  -0.339  -0.336  -0.332  -0.330  -0.328  -0.322  -0.317
 -0.314  -0.309  -0.304  -0.301  -0.295  -0.279  -0.279  -0.277
 -0.274  -0.259  -0.246  -0.246  -0.242  -0.239  -0.230  -0.189
 -0.170  -0.169  -0.168  -0.162  -0.156  -0.153  -0.144  -0.143
 -0.139

          Ground-State Mulliken Net Atomic Charges

     Atom                 Charge (a.u.)
  ----------------------------------------
      1 O                    -0.218497
      2 C                     0.216553
      3 C                    -0.081741
      4 C                    -0.074432
      5 C                     0.221685
      6 O                    -0.170501
      7 C                    -0.052558
      8 C                    -0.050358
      9 O                    -0.181168
     10 C                     0.214450
     11 C                    -0.083490
     12 C                    -0.080031
     13 C                     0.207591
     14 O                    -0.220397
     15 O                    -0.177579
     16 O                    -0.159230
     17 O                    -0.201553
     18 C                    -0.126269
     19 C                     0.026680
     20 C                    -0.147986
     21 C                    -0.145476
     22 C                     0.026979
     23 O                    -0.183588
     24 H                     0.095350
     25 H                     0.080719
     26 H                     0.084782
     27 H                     0.075035
     28 H                     0.087860
     29 H                     0.076446
     30 H                     0.068846
     31 H                     0.082787
     32 O                    -0.203790
     33 C                    -0.128491
     34 C                     0.022947
     35 C                    -0.141952
     36 C                    -0.145268
     37 C                     0.021271
     38 O                    -0.193567
     39 H                     0.084238
     40 H                     0.088665
     41 H                     0.089757
     42 H                     0.092663
     43 H                     0.078781
     44 H                     0.075068
     45 H                     0.076584
     46 H                     0.075143
     47 H                     0.085967
     48 H                     0.087511
     49 H                     0.085554
     50 H                     0.090479
     51 H                     0.091039
     52 H                     0.086624
     53 H                     0.093475
     54 H                     0.090104
     55 H                     0.096209
     56 H                     0.090082
  ----------------------------------------
  Sum of atomic charges =     0.000000

                    Cartesian Multipole Moments
 -----------------------------------------------------------------
    Charge (ESU x 10^10)
                 0.0000
    Dipole Moment (Debye)
         X      -1.4419      Y      -0.4143      Z      -2.5272
       Tot       2.9390
    Quadrupole Moments (Debye-Ang)
        XX    -163.8617     XY      -0.5507     YY    -147.1527
        XZ       5.2741     YZ       3.4112     ZZ    -165.4091

 Total job time:  57.65s(wall), 2745.33s(cpu)
        *  Thank you very much for using Q-Chem.  Have a nice day.  *
