 Q-Chem 5.0, Q-Chem, Inc., Pleasanton, CA (2017)
 Q-Chem 5.0.1 for Intel X86 EM64T Linux

User input:
--------------------------------------------------------------
$molecule
0  1
O -2.2652810068 -1.825008394 1.4544147287
C -2.9574727493 -1.0677766564 0.7347688646
C -2.8632946912 -0.9120865903 -0.8269983677
C -2.4242016982 0.5190781535 -1.3579745338
C -2.0981156662 1.579686585 -0.2385865893
O -1.2854751887 2.6000595949 -0.8316652578
C -1.0247094024 3.694456029 0.1329575719
C 0.2357587786 3.3894319902 1.0356634332
O 0.2253347823 1.9340221891 1.2898593114
C 1.5130590675 1.3272671723 1.1238461788
C 1.2540351015 -0.1938028832 0.8894324229
C 2.0667962776 -0.8083678589 -0.326674414
C 3.0883754953 0.2001302281 -0.9532613004
O 2.8211221855 1.0982259033 -1.7834052461
O -4.1534610591 -0.4222761383 1.1746450324
O 4.399860966 -0.0443801534 -0.4367512423
O 2.5869731247 1.9658029532 1.0709504301
C 5.3368764119 0.982809328 -0.9434967955
C 1.6823219864 -1.166280083 2.0710029325
C 0.851680128 -2.4979082212 1.8827150857
C 1.594099263 -3.1331683343 0.6472671792
C 2.7271596984 -2.0625966515 0.375768657
O 3.0658207094 -1.5619951251 1.7296867824
H 0.1743644666 -0.3006101386 0.6789290293
H 1.324570452 -1.0882585727 -1.1008993991
H 1.6430450892 -0.7193380895 3.0833531299
H 0.9454910444 -3.1356178593 2.7761142085
H -0.2205580414 -2.3001976228 1.6908239691
H 2.0379132196 -4.1093442436 0.8996149174
H 0.9323554986 -3.2608749966 -0.224330671
H 3.6333120396 -2.448812754 -0.1286979072
O -2.4849312745 1.5951466814 0.9485910487
C -4.2856623525 -0.5442170398 2.6438733744
C -1.7401177838 -1.8341184049 -1.4495896155
C -2.0220883871 -2.0067182792 -2.9922104579
C -1.607763836 -0.5877650308 -3.5374810359
C -1.1422835561 0.1316226892 -2.2115382976
O -0.5433205346 -0.9669102611 -1.4220957769
H -3.8595770972 -1.1680148451 -1.2315227134
H -3.2098821638 0.954355579 -2.0030812112
H -3.500700599 0.043738474 3.161674566
H -1.5533115842 -2.7659512921 -0.8808020722
H -1.3845924917 -2.801147036 -3.4119321306
H -3.0759831416 -2.2531758531 -3.1977696288
H -0.7696820461 -0.6585107907 -4.2489207231
H -2.4422024288 -0.0597351117 -4.0260689612
H -0.415709578 0.957499415 -2.3391388887
H -4.2170511602 -1.6012715805 2.9725344417
H -5.2809916276 -0.1354020555 2.8968339382
H 6.3288705598 0.7215827206 -0.5314623068
H 5.0453258934 1.9954318188 -0.5969943901
H 5.3831523973 0.9874746046 -2.0519384126
H 1.1843678202 3.6718643345 0.5304396298
H 0.1589214837 3.9551010218 1.9897097985
H -1.9143462922 3.839847782 0.7813434814
H -0.8482792405 4.6060657258 -0.4729195537
$end

$rem
JOBTYPE                   OPT
METHOD                    B3LYP
DFT_D                     d3_op
BASIS                     STO-3G
GEOM_OPT_MAX_CYCLES       100
GEOM_OPT_TOL_GRADIENT     300
GEOM_OPT_TOL_DISPLACEMENT 1200
GEOM_OPT_TOL_ENERGY       100
SYMMETRY                  False
THRESH                    12
SCF_CONVERGENCE           8
MAX_SUB_FILE_NUM          128
MEM_STATIC                400
MEM_TOTAL                 4000
$end
--------------------------------------------------------------

   16   -1510.2896496535      5.99E-09 Convergence criterion met
 Total energy in the final basis set = -1510.28964965
   14   -1510.2837672769      3.27E-09 Convergence criterion met
 Total energy in the final basis set = -1510.28376728
   14   -1510.2873588535      4.64E-09 Convergence criterion met
 Total energy in the final basis set = -1510.28735885
   14   -1510.2938258924      4.96E-09 Convergence criterion met
 Total energy in the final basis set = -1510.29382589
   14   -1510.2949815511      1.70E-09 Convergence criterion met
 Total energy in the final basis set = -1510.29498155
   13   -1510.2966647621      5.05E-09 Convergence criterion met
 Total energy in the final basis set = -1510.29666476
   13   -1510.2978268512      5.40E-09 Convergence criterion met
 Total energy in the final basis set = -1510.29782685
   13   -1510.2989234370      2.92E-09 Convergence criterion met
   11   -1510.3053311224      5.61E-09 Convergence criterion met
 Total energy in the final basis set = -1510.30533112
   10   -1510.3053406565      9.08E-09 Convergence criterion met
 Total energy in the final basis set = -1510.30534066
   12   -1510.3053592692      4.52E-09 Convergence criterion met
 Total energy in the final basis set = -1510.30535927
   12   -1510.3053569743      2.82E-09 Convergence criterion met
 Total energy in the final basis set = -1510.30535697
    9   -1510.3053689557      5.89E-09 Convergence criterion met
 Total energy in the final basis set = -1510.30536896
    9   -1510.3053716285      5.28E-09 Convergence criterion met
 Total energy in the final basis set = -1510.30537163

             Standard Nuclear Orientation (Angstroms)
    I     Atom           X                Y                Z
 ----------------------------------------------------------------
    1      O      -1.8667958030    -1.1274582416     1.1717253402
    2      C      -2.8353772264    -0.7568731856     0.4647905348
    3      C      -2.8533172688    -0.5376902660    -1.0945202466
    4      C      -1.9578549430     0.6912122864    -1.5404170149
    5      C      -1.7231598700     1.6729986490    -0.3424597743
    6      O      -0.8369721407     2.7326067187    -0.7094703774
    7      C      -0.7848969213     3.7446515125     0.3798867425
    8      C       0.3434584983     3.4062704145     1.4295218867
    9      O       0.2682242526     1.9659849961     1.7636455768
   10      C       1.2685859552     1.2552138662     1.0198487017
   11      C       0.9747051477    -0.2698294923     1.0636698147
   12      C       1.7443078166    -1.0526347295    -0.0784713331
   13      C       2.5570338625    -0.1127654364    -1.0376956858
   14      O       2.0887003018     0.5241831143    -2.0185533566
   15      O      -4.1691557285    -0.6169122471     0.9598156789
   16      O       3.9490196203    -0.1597523394    -0.7336598739
   17      O       2.2156966458     1.8214716807     0.4232638758
   18      C       4.6862151417     0.7769662934    -1.6112317070
   19      C       1.5643980407    -0.9803801591     2.3582316946
   20      C       0.8890030050    -2.4063578883     2.4480523118
   21      C       1.6789440954    -3.1834807867     1.3303568063
   22      C       2.6275639161    -2.0473610303     0.7776292988
   23      O       2.9686962049    -1.2674097766     1.9920355464
   24      H      -0.1238282090    -0.4491681186     0.9971885805
   25      H       0.9842684496    -1.5714537045    -0.6991539161
   26      H       1.5156113500    -0.3735416043     3.2832892805
   27      H       1.0464593977    -2.8521782473     3.4428940965
   28      H      -0.1923080408    -2.3467873337     2.2409890564
   29      H       2.2740219860    -4.0075239665     1.7555255862
   30      H       1.0185591362    -3.5900837769     0.5478011244
   31      H       3.5483585645    -2.3989719489     0.2746179195
   32      O      -2.3222948434     1.6094045848     0.7579743312
   33      C      -4.1766634328    -0.7886713077     2.4307238468
   34      C      -2.0833892256    -1.7284948436    -1.7991407652
   35      C      -2.2125952298    -1.5872300367    -3.3682590343
   36      C      -1.1602700202    -0.4514836671    -3.6633211774
   37      C      -0.7106263082    -0.0548260821    -2.2034342931
   38      O      -0.6758625695    -1.3726514905    -1.5279425033
   39      H      -3.9005110163    -0.4354972321    -1.4280034452
   40      H      -2.4792860165     1.2783864892    -2.3193484946
   41      H      -3.5674663903    -0.0055771267     2.9263791591
   42      H      -2.3181720742    -2.7310429744    -1.3916864110
   43      H      -1.9429416134    -2.5327452451    -3.8647309054
   44      H      -3.2349028423    -1.3092142882    -3.6713298832
   45      H      -0.2990102364    -0.8436831190    -4.2276560562
   46      H      -1.5896242738     0.3962779069    -4.2204381868
   47      H       0.3100440844     0.4131097217    -2.1233731529
   48      H      -3.7855677012    -1.7832002836     2.7277722554
   49      H      -5.2323830087    -0.6944023639     2.7445510748
   50      H       5.7567708320     0.6424659605    -1.3708189226
   51      H       4.3866549078     1.8257881516    -1.4101725522
   52      H       4.5115508560     0.5571066872    -2.6842237235
   53      H       1.3473762066     3.6199215497     1.0039043444
   54      H       0.1818824359     3.9890753615     2.3588682216
   55      H      -1.7685666638     3.7879723239     0.8920992717
   56      H      -0.5668246265     4.7148356619    -0.1106456513
 ----------------------------------------------------------------

    9   -1510.3053725336      3.15E-09 Convergence criterion met
 Total energy in the final basis set = -1510.30537253
 Final energy is   -1510.30537253364
 **  OPTIMIZATION CONVERGED  **

                    Orbital Energies (a.u.)
 --------------------------------------------------------------

 Alpha MOs
 -- Occupied --
-18.945 -18.932 -18.931 -18.925 -18.888 -18.885 -18.875 -18.869
-18.867 -18.856 -10.107 -10.100 -10.094 -10.089 -10.076 -10.069
-10.062 -10.060 -10.052 -10.042 -10.040 -10.039 -10.037 -10.036
-10.018 -10.012 -10.009 -10.006 -10.002  -9.998  -1.024  -1.009
 -1.005  -0.997  -0.970  -0.952  -0.945  -0.934  -0.930  -0.921
 -0.762  -0.745  -0.722  -0.715  -0.702  -0.697  -0.685  -0.660
 -0.648  -0.615  -0.591  -0.569  -0.543  -0.535  -0.530  -0.520
 -0.508  -0.499  -0.486  -0.474  -0.459  -0.453  -0.448  -0.433
 -0.430  -0.422  -0.414  -0.413  -0.409  -0.405  -0.399  -0.399
 -0.392  -0.379  -0.368  -0.365  -0.359  -0.355  -0.351  -0.347
 -0.344  -0.340  -0.327  -0.322  -0.318  -0.315  -0.312  -0.308
 -0.300  -0.296  -0.294  -0.288  -0.285  -0.278  -0.273  -0.265
 -0.264  -0.255  -0.249  -0.244  -0.236  -0.228  -0.212  -0.195
 -0.174  -0.168  -0.163  -0.160  -0.154  -0.148  -0.143  -0.138
 -0.126

          Ground-State Mulliken Net Atomic Charges

     Atom                 Charge (a.u.)
  ----------------------------------------
      1 O                    -0.226311
      2 C                     0.222551
      3 C                    -0.079909
      4 C                    -0.081627
      5 C                     0.212448
      6 O                    -0.165594
      7 C                    -0.051641
      8 C                    -0.056044
      9 O                    -0.170892
     10 C                     0.209714
     11 C                    -0.093847
     12 C                    -0.096070
     13 C                     0.220908
     14 O                    -0.230606
     15 O                    -0.167536
     16 O                    -0.163467
     17 O                    -0.212803
     18 C                    -0.126323
     19 C                     0.025489
     20 C                    -0.146871
     21 C                    -0.143449
     22 C                     0.023932
     23 O                    -0.193170
     24 H                     0.113419
     25 H                     0.110539
     26 H                     0.078758
     27 H                     0.070853
     28 H                     0.087279
     29 H                     0.072153
     30 H                     0.073548
     31 H                     0.083698
     32 O                    -0.207424
     33 C                    -0.127715
     34 C                     0.026915
     35 C                    -0.145524
     36 C                    -0.143040
     37 C                     0.005855
     38 O                    -0.197081
     39 H                     0.085881
     40 H                     0.085867
     41 H                     0.094404
     42 H                     0.081511
     43 H                     0.076734
     44 H                     0.072458
     45 H                     0.077984
     46 H                     0.071693
     47 H                     0.120230
     48 H                     0.087649
     49 H                     0.088797
     50 H                     0.088289
     51 H                     0.093176
     52 H                     0.087098
     53 H                     0.102192
     54 H                     0.088453
     55 H                     0.095426
     56 H                     0.091040
  ----------------------------------------
  Sum of atomic charges =    -0.000000

                    Cartesian Multipole Moments
 -----------------------------------------------------------------
    Charge (ESU x 10^10)
                -0.0000
    Dipole Moment (Debye)
         X      -2.6421      Y       0.8318      Z      -1.0054
       Tot       2.9468
    Quadrupole Moments (Debye-Ang)
        XX    -157.6559     XY       1.8187     YY    -147.5531
        XZ      -2.9882     YZ       3.4018     ZZ    -155.5948

 Total job time:  119.24s(wall), 5689.43s(cpu)
        *  Thank you very much for using Q-Chem.  Have a nice day.  *
