 Q-Chem 5.0, Q-Chem, Inc., Pleasanton, CA (2017)
 Q-Chem 5.0.1 for Intel X86 EM64T Linux

User input:
--------------------------------------------------------------
$molecule
0  1
O -3.94934 -3.66094 2.70899
C -3.26408 -4.56952 2.26188
C -3.36658 -6.02376 2.66595
C -2.13981 -6.65179 3.34747
C -1.01323 -5.70948 3.70937
O -0.22899 -6.27314 4.67512
C 0.92063 -5.48386 4.99863
C 0.56714 -4.453 6.06564
O -0.77101 -3.9739 5.85901
C -1.54135 -3.8972 6.97249
C -3.01987 -3.8827 6.6652
C -3.86774 -4.83736 7.51844
C -3.19661 -5.3849 8.76202
O -2.42314 -6.33117 8.79174
O -2.40749 -4.29526 1.24087
O -3.53127 -4.82263 9.95813
O -1.08408 -3.69695 8.09178
C -3.02366 -5.21444 11.17945
C -3.68441 -2.52748 6.98057
C -4.93915 -2.36303 6.12554
C -5.83962 -3.40803 6.74965
C -4.97102 -3.83444 7.94198
O -4.22974 -2.68391 8.26309
H -3.13785 -4.04863 5.5734
H -4.34457 -5.6958 7.0214
H -3.00455 -1.65856 6.84052
H -5.34921 -1.35328 6.35596
H -4.80027 -2.45436 5.02761
H -6.77545 -2.90799 7.08399
H -6.07868 -4.27807 6.09996
H -5.61785 -4.23746 8.75262
O -0.84714 -4.57857 3.27051
C -2.21682 -3.03994 0.70186
C -4.4692 -6.31126 3.68853
C -4.89442 -7.77752 3.61394
C -3.69125 -8.44908 4.24018
C -2.84284 -7.22449 4.5995
O -3.79681 -6.24994 4.90725
H -3.6252 -6.55921 1.72472
H -1.67966 -7.48363 2.76959
H -1.84338 -2.34176 1.48132
H -5.35594 -5.64927 3.58035
H -5.76741 -7.91246 4.29204
H -5.16107 -8.13123 2.59478
H -4.02344 -8.95976 5.17186
H -3.15158 -9.16944 3.58833
H -2.14776 -7.49406 5.42284
H -3.16968 -2.65603 0.27885
H -1.46473 -3.10362 -0.11096
H -3.46844 -4.58456 11.97683
H -1.9204 -5.08418 11.1939
H -3.2801 -6.27701 11.37782
H 0.64772 -4.98571 7.04236
H 1.30856 -3.62593 6.06264
H 1.3217 -4.97155 4.09305
H 1.75536 -6.12601 5.35187
$end

$opt
CONSTRAINT
tors           1           2           3           4    -116.544
tors           3           4           5           6    +159.528
tors           4           5           6           7    +175.481
tors           5           6           7           8     +86.486
tors           6           7           8           9     -35.974
tors           7           8           9          10    +134.770
tors           8           9          10          11    -159.160
tors           9          10          11          12    +133.079
tors          11          12          13          14     -81.575
ENDCONSTRAINT
$end

$rem
JOBTYPE                   OPT
METHOD                    B3LYP
DFT_D                     d3_op
BASIS                     STO-3G
GEOM_OPT_MAX_CYCLES       100
GEOM_OPT_TOL_GRADIENT     300
GEOM_OPT_TOL_DISPLACEMENT 1200
GEOM_OPT_TOL_ENERGY       100
SYMMETRY                  False
THRESH                    12
SCF_CONVERGENCE           8
MAX_SUB_FILE_NUM          128
MEM_STATIC                400
MEM_TOTAL                 4000
$end
--------------------------------------------------------------

   15   -1510.1528087645      4.58E-09 Convergence criterion met
 Total energy in the final basis set = -1510.15280876
   13   -1510.2235177069      7.45E-09 Convergence criterion met
 Total energy in the final basis set = -1510.22351771
   14   -1510.2592454123      5.04E-09 Convergence criterion met
 Total energy in the final basis set = -1510.25924541
   14   -1510.2655127864      5.35E-09 Convergence criterion met
 Total energy in the final basis set = -1510.26551279
   14   -1510.2789410099      4.32E-09 Convergence criterion met
 Total energy in the final basis set = -1510.27894101
   13   -1510.2832559008      6.96E-09 Convergence criterion met
 Total energy in the final basis set = -1510.28325590
   13   -1510.2866939149      4.28E-09 Convergence criterion met
 Total energy in the final basis set = -1510.28669391
   13   -1510.2883340482      4.64E-09 Convergence criterion met
   11   -1510.2896399770      5.82E-09 Convergence criterion met
 Total energy in the final basis set = -1510.28963998
    9   -1510.2896431907      7.93E-09 Convergence criterion met
 Total energy in the final basis set = -1510.28964319
    9   -1510.2896460138      5.79E-09 Convergence criterion met
 Total energy in the final basis set = -1510.28964601
    9   -1510.2896476930      4.43E-09 Convergence criterion met
 Total energy in the final basis set = -1510.28964769
    9   -1510.2896497853      4.80E-09 Convergence criterion met
 Total energy in the final basis set = -1510.28964979
    9   -1510.2896510926      4.94E-09 Convergence criterion met
 Total energy in the final basis set = -1510.28965109

             Standard Nuclear Orientation (Angstroms)
    I     Atom           X                Y                Z
 ----------------------------------------------------------------
    1      O      -2.2652810068    -1.8250083940     1.4544147287
    2      C      -2.9574727493    -1.0677766564     0.7347688646
    3      C      -2.8632946912    -0.9120865903    -0.8269983677
    4      C      -2.4242016982     0.5190781535    -1.3579745338
    5      C      -2.0981156662     1.5796865850    -0.2385865893
    6      O      -1.2854751887     2.6000595949    -0.8316652578
    7      C      -1.0247094024     3.6944560290     0.1329575719
    8      C       0.2357587786     3.3894319902     1.0356634332
    9      O       0.2253347823     1.9340221891     1.2898593114
   10      C       1.5130590675     1.3272671723     1.1238461788
   11      C       1.2540351015    -0.1938028832     0.8894324229
   12      C       2.0667962776    -0.8083678589    -0.3266744140
   13      C       3.0883754953     0.2001302281    -0.9532613004
   14      O       2.8211221855     1.0982259033    -1.7834052461
   15      O      -4.1534610591    -0.4222761383     1.1746450324
   16      O       4.3998609660    -0.0443801534    -0.4367512423
   17      O       2.5869731247     1.9658029532     1.0709504301
   18      C       5.3368764119     0.9828093280    -0.9434967955
   19      C       1.6823219864    -1.1662800830     2.0710029325
   20      C       0.8516801280    -2.4979082212     1.8827150857
   21      C       1.5940992630    -3.1331683343     0.6472671792
   22      C       2.7271596984    -2.0625966515     0.3757686570
   23      O       3.0658207094    -1.5619951251     1.7296867824
   24      H       0.1743644666    -0.3006101386     0.6789290293
   25      H       1.3245704520    -1.0882585727    -1.1008993991
   26      H       1.6430450892    -0.7193380895     3.0833531299
   27      H       0.9454910444    -3.1356178593     2.7761142085
   28      H      -0.2205580414    -2.3001976228     1.6908239691
   29      H       2.0379132196    -4.1093442436     0.8996149174
   30      H       0.9323554986    -3.2608749966    -0.2243306710
   31      H       3.6333120396    -2.4488127540    -0.1286979072
   32      O      -2.4849312745     1.5951466814     0.9485910487
   33      C      -4.2856623525    -0.5442170398     2.6438733744
   34      C      -1.7401177838    -1.8341184049    -1.4495896155
   35      C      -2.0220883871    -2.0067182792    -2.9922104579
   36      C      -1.6077638360    -0.5877650308    -3.5374810359
   37      C      -1.1422835561     0.1316226892    -2.2115382976
   38      O      -0.5433205346    -0.9669102611    -1.4220957769
   39      H      -3.8595770972    -1.1680148451    -1.2315227134
   40      H      -3.2098821638     0.9543555790    -2.0030812112
   41      H      -3.5007005990     0.0437384740     3.1616745660
   42      H      -1.5533115842    -2.7659512921    -0.8808020722
   43      H      -1.3845924917    -2.8011470360    -3.4119321306
   44      H      -3.0759831416    -2.2531758531    -3.1977696288
   45      H      -0.7696820461    -0.6585107907    -4.2489207231
   46      H      -2.4422024288    -0.0597351117    -4.0260689612
   47      H      -0.4157095780     0.9574994150    -2.3391388887
   48      H      -4.2170511602    -1.6012715805     2.9725344417
   49      H      -5.2809916276    -0.1354020555     2.8968339382
   50      H       6.3288705598     0.7215827206    -0.5314623068
   51      H       5.0453258934     1.9954318188    -0.5969943901
   52      H       5.3831523973     0.9874746046    -2.0519384126
   53      H       1.1843678202     3.6718643345     0.5304396298
   54      H       0.1589214837     3.9551010218     1.9897097985
   55      H      -1.9143462922     3.8398477820     0.7813434814
   56      H      -0.8482792405     4.6060657258    -0.4729195537
 ----------------------------------------------------------------

    9   -1510.2896516765      5.25E-09 Convergence criterion met
 Total energy in the final basis set = -1510.28965168
 Final energy is   -1510.28965167646
 **  OPTIMIZATION CONVERGED  **

                    Orbital Energies (a.u.)
 --------------------------------------------------------------

 Alpha MOs
 -- Occupied --
-18.938 -18.935 -18.923 -18.917 -18.902 -18.883 -18.878 -18.871
-18.869 -18.849 -10.107 -10.104 -10.092 -10.079 -10.077 -10.070
-10.069 -10.067 -10.061 -10.048 -10.046 -10.043 -10.042 -10.040
-10.027 -10.026 -10.016 -10.008 -10.001  -9.994  -1.021  -1.011
 -1.002  -0.991  -0.984  -0.951  -0.944  -0.936  -0.930  -0.916
 -0.770  -0.746  -0.730  -0.720  -0.707  -0.699  -0.685  -0.662
 -0.644  -0.618  -0.595  -0.569  -0.552  -0.545  -0.531  -0.520
 -0.514  -0.499  -0.485  -0.474  -0.462  -0.459  -0.450  -0.439
 -0.428  -0.422  -0.414  -0.412  -0.408  -0.407  -0.398  -0.396
 -0.389  -0.382  -0.374  -0.365  -0.356  -0.350  -0.350  -0.345
 -0.344  -0.339  -0.334  -0.330  -0.326  -0.318  -0.315  -0.312
 -0.305  -0.300  -0.293  -0.289  -0.287  -0.281  -0.279  -0.266
 -0.263  -0.256  -0.251  -0.243  -0.239  -0.233  -0.213  -0.184
 -0.180  -0.168  -0.161  -0.158  -0.158  -0.151  -0.147  -0.133
 -0.125

          Ground-State Mulliken Net Atomic Charges

     Atom                 Charge (a.u.)
  ----------------------------------------
      1 O                    -0.216854
      2 C                     0.217168
      3 C                    -0.080506
      4 C                    -0.077109
      5 C                     0.216115
      6 O                    -0.172243
      7 C                    -0.048463
      8 C                    -0.050484
      9 O                    -0.177974
     10 C                     0.210463
     11 C                    -0.082165
     12 C                    -0.091930
     13 C                     0.207079
     14 O                    -0.228318
     15 O                    -0.163986
     16 O                    -0.165052
     17 O                    -0.212121
     18 C                    -0.127030
     19 C                     0.024624
     20 C                    -0.150932
     21 C                    -0.144487
     22 C                     0.024618
     23 O                    -0.189826
     24 H                     0.092975
     25 H                     0.105895
     26 H                     0.078641
     27 H                     0.070564
     28 H                     0.090520
     29 H                     0.071950
     30 H                     0.069801
     31 H                     0.082831
     32 O                    -0.205895
     33 C                    -0.126833
     34 C                     0.025044
     35 C                    -0.143833
     36 C                    -0.143951
     37 C                     0.025247
     38 O                    -0.192735
     39 H                     0.086730
     40 H                     0.087317
     41 H                     0.094307
     42 H                     0.090411
     43 H                     0.079476
     44 H                     0.075160
     45 H                     0.081334
     46 H                     0.075271
     47 H                     0.100851
     48 H                     0.089561
     49 H                     0.089855
     50 H                     0.087751
     51 H                     0.091673
     52 H                     0.084255
     53 H                     0.096093
     54 H                     0.085138
     55 H                     0.093319
     56 H                     0.090692
  ----------------------------------------
  Sum of atomic charges =    -0.000000

                    Cartesian Multipole Moments
 -----------------------------------------------------------------
    Charge (ESU x 10^10)
                -0.0000
    Dipole Moment (Debye)
         X      -3.7421      Y       0.5101      Z      -1.9097
       Tot       4.2320
    Quadrupole Moments (Debye-Ang)
        XX    -157.8925     XY       1.2142     YY    -150.4794
        XZ      -2.1104     YZ       5.2645     ZZ    -155.8566

 Total job time:  65.05s(wall), 3097.10s(cpu)
        *  Thank you very much for using Q-Chem.  Have a nice day.  *
