 Q-Chem 5.0, Q-Chem, Inc., Pleasanton, CA (2017)
 Q-Chem 5.0.1 for Intel X86 EM64T Linux

User input:
--------------------------------------------------------------
$molecule
0  1
O -3.94934 -3.66094 2.70899
C -3.26408 -4.56952 2.26188
C -3.36658 -6.02376 2.66595
C -2.04986 -6.78476 2.89172
C -0.78134 -5.96132 2.86184
O 0.29847 -6.76387 3.09711
C 1.54919 -6.10813 2.86268
C 2.05245 -5.46079 4.14868
O 0.96682 -4.80755 4.82513
C 0.8952 -5.02815 6.1613
C -0.52479 -5.11508 6.66799
C -0.82068 -6.32984 7.55967
C 0.39029 -7.06413 8.09918
O 1.0447 -7.89665 7.48826
O -2.60057 -4.34026 1.09487
O 0.73349 -6.83938 9.39916
O 1.88356 -5.04832 6.88413
C 1.79388 -7.43924 10.04611
C -0.90843 -3.9556 7.60807
C -2.42292 -3.75695 7.57332
C -2.8842 -5.01146 8.28595
C -1.53051 -5.59041 8.72053
O -0.71301 -4.46091 8.90287
H -1.18823 -5.04998 5.78484
H -1.49668 -7.08599 7.10908
H -0.38674 -3.00294 7.36943
H -2.64401 -2.8768 8.21918
H -2.87041 -3.59244 6.56924
H -3.49546 -4.70877 9.16483
H -3.44712 -5.73659 7.65937
H -1.6692 -6.24143 9.61191
O -0.7025 -4.74871 2.71111
C -2.50392 -3.10945 0.47912
C -4.06552 -6.25362 4.01745
C -4.62326 -7.67606 4.08512
C -3.34564 -8.47487 4.24828
C -2.31377 -7.34523 4.30018
O -3.0083 -6.2998 4.93772
H -3.9615 -6.50467 1.85686
H -1.91539 -7.59024 2.13491
H -1.99946 -2.38432 1.15297
H -4.87119 -5.51798 4.22989
H -5.21555 -7.7635 5.02405
H -5.25849 -7.96529 3.22041
H -3.37993 -8.99416 5.23216
H -3.13508 -9.20876 3.44061
H -1.38555 -7.69777 4.79912
H -3.51447 -2.73384 0.21096
H -1.90394 -3.21307 -0.44806
H 1.83794 -7.06998 11.09115
H 2.7468 -7.18314 9.53547
H 1.65929 -8.54188 10.0614
H 2.4763 -6.27777 4.77967
H 2.86888 -4.74522 3.91358
H 1.4676 -5.33307 2.06506
H 2.3002 -6.83127 2.48004
$end

$opt
CONSTRAINT
tors           1           2           3           4    -136.895
tors           3           4           5           6    +179.045
tors           4           5           6           7    +170.034
tors           5           6           7           8     +91.404
tors           6           7           8           9     -42.889
tors           7           8           9          10    +134.770
tors           8           9          10          11    -144.275
tors           9          10          11          12    +130.891
tors          11          12          13          14     -81.575
ENDCONSTRAINT
$end

$rem
JOBTYPE                   OPT
METHOD                    B3LYP
DFT_D                     d3_op
BASIS                     STO-3G
GEOM_OPT_MAX_CYCLES       100
GEOM_OPT_TOL_GRADIENT     300
GEOM_OPT_TOL_DISPLACEMENT 1200
GEOM_OPT_TOL_ENERGY       100
SYMMETRY                  False
THRESH                    12
SCF_CONVERGENCE           8
MAX_SUB_FILE_NUM          128
MEM_STATIC                400
MEM_TOTAL                 4000
$end
--------------------------------------------------------------

   15   -1510.1506913819      8.37E-09 Convergence criterion met
 Total energy in the final basis set = -1510.15069138
   14   -1510.2201710886      4.58E-09 Convergence criterion met
 Total energy in the final basis set = -1510.22017109
   14   -1510.2559445806      3.71E-09 Convergence criterion met
 Total energy in the final basis set = -1510.25594458
   14   -1510.2619628692      5.69E-09 Convergence criterion met
 Total energy in the final basis set = -1510.26196287
   14   -1510.2732451176      4.16E-09 Convergence criterion met
 Total energy in the final basis set = -1510.27324512
   13   -1510.2770015880      8.11E-09 Convergence criterion met
 Total energy in the final basis set = -1510.27700159
   13   -1510.2795737199      4.61E-09 Convergence criterion met
 Total energy in the final basis set = -1510.27957372
   13   -1510.2806730129      6.67E-09 Convergence criterion met
    9   -1510.2822244965      9.09E-09 Convergence criterion met
 Total energy in the final basis set = -1510.28222450
   10   -1510.2822186218      5.00E-09 Convergence criterion met
 Total energy in the final basis set = -1510.28221862
    9   -1510.2822123639      9.04E-09 Convergence criterion met
 Total energy in the final basis set = -1510.28221236
    9   -1510.2822152356      7.18E-09 Convergence criterion met
 Total energy in the final basis set = -1510.28221524
    9   -1510.2822181750      5.23E-09 Convergence criterion met
 Total energy in the final basis set = -1510.28221817
    9   -1510.2822203051      4.40E-09 Convergence criterion met
 Total energy in the final basis set = -1510.28222031

             Standard Nuclear Orientation (Angstroms)
    I     Atom           X                Y                Z
 ----------------------------------------------------------------
    1      O      -4.1453513554    -0.6719845188     1.7800281865
    2      C      -3.9971991021    -0.1705468590     0.6452465658
    3      C      -3.2873425881    -0.8357934998    -0.5908164668
    4      C      -2.3304802670     0.1130155222    -1.4075743212
    5      C      -1.8713148682     1.3254410827    -0.5183993479
    6      O      -0.9921060522     2.1448731489    -1.2853258404
    7      C      -0.7165898191     3.4222764427    -0.5859159486
    8      C       0.5668638600     3.3052153337     0.3227027925
    9      O       0.4961608423     2.0005082613     1.0205760099
   10      C       1.7580767456     1.3118066089     0.9831088107
   11      C       1.4983531455    -0.2258044946     0.8514945287
   12      C       2.3622225954    -0.8945788357    -0.3047814602
   13      C       3.3013590846     0.1276513805    -1.0395312570
   14      O       2.9612167718     0.9115117282    -1.9543986628
   15      O      -4.7420201506     0.9615390081     0.1607090532
   16      O       4.6305505825     0.0233311423    -0.5261058128
   17      O       2.8596137801     1.9021187372     0.9130521840
   18      C       5.4843533259     1.0714080008    -1.1290396576
   19      C       1.9830212773    -1.0713759088     2.1076720757
   20      C       1.2813448096    -2.4849211359     2.0200849140
   21      C       2.1098572851    -3.1584185458     0.8643846186
   22      C       3.1379857984    -2.0102114667     0.5127135591
   23      O       3.4038829197    -1.3637009688     1.8175614657
   24      H       0.4193782614    -0.3981728411     0.6617838573
   25      H       1.6941496987    -1.3444693115    -1.0596541812
   26      H       1.8828700049    -0.5528257346     3.0808936119
   27      H       1.3854819354    -3.0328321976     2.9701797519
   28      H       0.2129504686    -2.3930400509     1.7680807466
   29      H       2.6397297319    -4.0587770541     1.2138470428
   30      H       1.4822155765    -3.4271603382    -0.0003357804
   31      H       4.0839413210    -2.3453199571     0.0465040614
   32      O      -2.2202455098     1.5541916231     0.6618924548
   33      C      -5.4750324579     1.5894376806     1.2804073375
   34      C      -2.3101146818    -2.0331551283    -0.2343475302
   35      C      -2.2594210294    -2.9828290020    -1.4906722635
   36      C      -1.4710140179    -2.0772619669    -2.5112300772
   37      C      -1.0831582919    -0.8427047203    -1.6055630055
   38      O      -0.9538938872    -1.4273765535    -0.2464691676
   39      H      -4.0992443707    -1.1969162303    -1.2492963614
   40      H      -2.7643718032     0.4747336954    -2.3562517006
   41      H      -4.7765709744     2.0169408447     2.0289697639
   42      H      -2.5149718661    -2.5151440358     0.7416629624
   43      H      -1.6992227193    -3.9024191799    -1.2558774903
   44      H      -3.2630142899    -3.2602486058    -1.8502408141
   45      H      -0.5658684985    -2.5795821366    -2.8874757861
   46      H      -2.0882503492    -1.7736831670    -3.3720492238
   47      H      -0.1552301249    -0.3129206256    -1.8959888610
   48      H      -6.1402353535     0.8646798483     1.7930832715
   49      H      -6.0809211256     2.4005024285     0.8360551405
   50      H       6.5067922234     0.8875922584    -0.7512852069
   51      H       5.1497377071     2.0822877887    -0.8180913352
   52      H       5.4785757685     1.0196867483    -2.2370606288
   53      H       1.4940967643     3.3612578619    -0.2861472310
   54      H       0.5787072115     4.1442676729     1.0536865880
   55      H      -1.5901950953     3.7062392056     0.0376303081
   56      H      -0.5499153562     4.1840143254    -1.3744117267
 ----------------------------------------------------------------

    9   -1510.2822215392      2.82E-09 Convergence criterion met
 Total energy in the final basis set = -1510.28222154
 Final energy is   -1510.28222153921
 **  OPTIMIZATION CONVERGED  **

                    Orbital Energies (a.u.)
 --------------------------------------------------------------

 Alpha MOs
 -- Occupied --
-18.943 -18.926 -18.921 -18.920 -18.900 -18.888 -18.877 -18.875
-18.864 -18.858 -10.108 -10.094 -10.094 -10.089 -10.079 -10.072
-10.068 -10.066 -10.056 -10.054 -10.049 -10.048 -10.045 -10.038
-10.028 -10.027 -10.027 -10.018 -10.009 -10.007  -1.022  -1.006
 -1.000  -0.998  -0.981  -0.959  -0.946  -0.931  -0.926  -0.925
 -0.770  -0.752  -0.732  -0.719  -0.710  -0.706  -0.692  -0.656
 -0.650  -0.618  -0.595  -0.575  -0.551  -0.544  -0.537  -0.527
 -0.512  -0.504  -0.488  -0.476  -0.464  -0.461  -0.454  -0.439
 -0.429  -0.424  -0.419  -0.413  -0.408  -0.403  -0.402  -0.401
 -0.393  -0.384  -0.372  -0.367  -0.359  -0.356  -0.347  -0.345
 -0.344  -0.339  -0.336  -0.332  -0.329  -0.321  -0.317  -0.312
 -0.312  -0.304  -0.298  -0.294  -0.292  -0.280  -0.276  -0.275
 -0.268  -0.255  -0.248  -0.246  -0.241  -0.237  -0.221  -0.187
 -0.169  -0.167  -0.165  -0.160  -0.157  -0.150  -0.145  -0.141
 -0.132

          Ground-State Mulliken Net Atomic Charges

     Atom                 Charge (a.u.)
  ----------------------------------------
      1 O                    -0.219261
      2 C                     0.217266
      3 C                    -0.081062
      4 C                    -0.075657
      5 C                     0.222539
      6 O                    -0.170208
      7 C                    -0.047227
      8 C                    -0.048259
      9 O                    -0.178549
     10 C                     0.210147
     11 C                    -0.090427
     12 C                    -0.080144
     13 C                     0.207897
     14 O                    -0.227040
     15 O                    -0.178338
     16 O                    -0.162897
     17 O                    -0.208592
     18 C                    -0.126726
     19 C                     0.025768
     20 C                    -0.144113
     21 C                    -0.143924
     22 C                     0.025932
     23 O                    -0.187862
     24 H                     0.107818
     25 H                     0.080921
     26 H                     0.081244
     27 H                     0.074273
     28 H                     0.081200
     29 H                     0.074296
     30 H                     0.072024
     31 H                     0.085529
     32 O                    -0.199491
     33 C                    -0.128520
     34 C                     0.024071
     35 C                    -0.141859
     36 C                    -0.144895
     37 C                     0.022938
     38 O                    -0.195948
     39 H                     0.084300
     40 H                     0.090125
     41 H                     0.090195
     42 H                     0.092942
     43 H                     0.078301
     44 H                     0.075873
     45 H                     0.078596
     46 H                     0.076476
     47 H                     0.092211
     48 H                     0.087320
     49 H                     0.085788
     50 H                     0.089469
     51 H                     0.092366
     52 H                     0.086331
     53 H                     0.094597
     54 H                     0.085009
     55 H                     0.095175
     56 H                     0.092059
  ----------------------------------------
  Sum of atomic charges =    -0.000000

                    Cartesian Multipole Moments
 -----------------------------------------------------------------
    Charge (ESU x 10^10)
                -0.0000
    Dipole Moment (Debye)
         X      -2.1417      Y       0.0561      Z      -2.8464
       Tot       3.5625
    Quadrupole Moments (Debye-Ang)
        XX    -159.5500     XY      -2.0098     YY    -146.1158
        XZ       0.4268     YZ       3.9991     ZZ    -163.0088

 Total job time:  73.59s(wall), 3459.00s(cpu)
        *  Thank you very much for using Q-Chem.  Have a nice day.  *
