 Q-Chem 5.0, Q-Chem, Inc., Pleasanton, CA (2017)
 Q-Chem 5.0.1 for Intel X86 EM64T Linux

User input:
--------------------------------------------------------------
$molecule
0  1
O -4.1453513554 -0.6719845188 1.7800281865
C -3.9971991021 -0.170546859 0.6452465658
C -3.2873425881 -0.8357934998 -0.5908164668
C -2.330480267 0.1130155222 -1.4075743212
C -1.8713148682 1.3254410827 -0.5183993479
O -0.9921060522 2.1448731489 -1.2853258404
C -0.7165898191 3.4222764427 -0.5859159486
C 0.56686386 3.3052153337 0.3227027925
O 0.4961608423 2.0005082613 1.0205760099
C 1.7580767456 1.3118066089 0.9831088107
C 1.4983531455 -0.2258044946 0.8514945287
C 2.3622225954 -0.8945788357 -0.3047814602
C 3.3013590846 0.1276513805 -1.039531257
O 2.9612167718 0.9115117282 -1.9543986628
O -4.7420201506 0.9615390081 0.1607090532
O 4.6305505825 0.0233311423 -0.5261058128
O 2.8596137801 1.9021187372 0.913052184
C 5.4843533259 1.0714080008 -1.1290396576
C 1.9830212773 -1.0713759088 2.1076720757
C 1.2813448096 -2.4849211359 2.020084914
C 2.1098572851 -3.1584185458 0.8643846186
C 3.1379857984 -2.0102114667 0.5127135591
O 3.4038829197 -1.3637009688 1.8175614657
H 0.4193782614 -0.3981728411 0.6617838573
H 1.6941496987 -1.3444693115 -1.0596541812
H 1.8828700049 -0.5528257346 3.0808936119
H 1.3854819354 -3.0328321976 2.9701797519
H 0.2129504686 -2.3930400509 1.7680807466
H 2.6397297319 -4.0587770541 1.2138470428
H 1.4822155765 -3.4271603382 -0.0003357804
H 4.083941321 -2.3453199571 0.0465040614
O -2.2202455098 1.5541916231 0.6618924548
C -5.4750324579 1.5894376806 1.2804073375
C -2.3101146818 -2.0331551283 -0.2343475302
C -2.2594210294 -2.982829002 -1.4906722635
C -1.4710140179 -2.0772619669 -2.5112300772
C -1.0831582919 -0.8427047203 -1.6055630055
O -0.9538938872 -1.4273765535 -0.2464691676
H -4.0992443707 -1.1969162303 -1.2492963614
H -2.7643718032 0.4747336954 -2.3562517006
H -4.7765709744 2.0169408447 2.0289697639
H -2.5149718661 -2.5151440358 0.7416629624
H -1.6992227193 -3.9024191799 -1.2558774903
H -3.2630142899 -3.2602486058 -1.8502408141
H -0.5658684985 -2.5795821366 -2.8874757861
H -2.0882503492 -1.773683167 -3.3720492238
H -0.1552301249 -0.3129206256 -1.895988861
H -6.1402353535 0.8646798483 1.7930832715
H -6.0809211256 2.4005024285 0.8360551405
H 6.5067922234 0.8875922584 -0.7512852069
H 5.1497377071 2.0822877887 -0.8180913352
H 5.4785757685 1.0196867483 -2.2370606288
H 1.4940967643 3.3612578619 -0.286147231
H 0.5787072115 4.1442676729 1.053686588
H -1.5901950953 3.7062392056 0.0376303081
H -0.5499153562 4.1840143254 -1.3744117267
$end

$rem
JOBTYPE                   OPT
METHOD                    B3LYP
DFT_D                     d3_op
BASIS                     STO-3G
GEOM_OPT_MAX_CYCLES       100
GEOM_OPT_TOL_GRADIENT     300
GEOM_OPT_TOL_DISPLACEMENT 1200
GEOM_OPT_TOL_ENERGY       100
SYMMETRY                  False
THRESH                    12
SCF_CONVERGENCE           8
MAX_SUB_FILE_NUM          128
MEM_STATIC                400
MEM_TOTAL                 4000
$end
--------------------------------------------------------------

   16   -1510.2821488788      7.61E-09 Convergence criterion met
 Total energy in the final basis set = -1510.28214888
   14   -1510.2869910452      3.73E-09 Convergence criterion met
 Total energy in the final basis set = -1510.28699105
   14   -1510.2894789627      2.31E-09 Convergence criterion met
 Total energy in the final basis set = -1510.28947896
   14   -1510.2942680656      5.32E-09 Convergence criterion met
 Total energy in the final basis set = -1510.29426807
   14   -1510.2705676429      7.93E-09 Convergence criterion met
 Total energy in the final basis set = -1510.27056764
   14   -1510.2857951671      6.92E-09 Convergence criterion met
 Total energy in the final basis set = -1510.28579517
   15   -1510.2883771153      7.18E-09 Convergence criterion met
 Total energy in the final basis set = -1510.28837712
   13   -1510.2910034067      9.73E-09 Convergence criterion met
   11   -1510.3056954997      4.07E-09 Convergence criterion met
 Total energy in the final basis set = -1510.30569550
   11   -1510.3056996978      4.00E-09 Convergence criterion met
 Total energy in the final basis set = -1510.30569970
    9   -1510.3056992255      7.85E-09 Convergence criterion met
 Total energy in the final basis set = -1510.30569923
    9   -1510.3057008569      4.71E-09 Convergence criterion met
 Total energy in the final basis set = -1510.30570086
    9   -1510.3057012545      3.69E-09 Convergence criterion met
 Total energy in the final basis set = -1510.30570125
    9   -1510.3057017955      3.47E-09 Convergence criterion met
 Total energy in the final basis set = -1510.30570180

             Standard Nuclear Orientation (Angstroms)
    I     Atom           X                Y                Z
 ----------------------------------------------------------------
    1      O      -1.8407853998    -0.8345295602     1.3462176323
    2      C      -2.7998056784    -0.6423729170     0.5598054234
    3      C      -2.8002107564    -0.8008010971    -1.0066014719
    4      C      -1.8986132172     0.2865835260    -1.7251788994
    5      C      -1.6736280638     1.5247327960    -0.7914547971
    6      O      -0.7681197279     2.4616210973    -1.3793049369
    7      C      -0.7364142570     3.7078403700    -0.5666383651
    8      C       0.3517031269     3.6305498111     0.5738917977
    9      O       0.2684213333     2.3056452363     1.2284869048
   10      C       1.2840059474     1.4480186727     0.6874029094
   11      C       0.9970051569    -0.0258921301     1.0845012360
   12      C       1.7711562958    -1.0489227641     0.1546966364
   13      C       2.5947458296    -0.3543868935    -0.9859157572
   14      O       2.1441873466     0.0343242348    -2.0963869105
   15      O      -4.1385091290    -0.3842240534     0.9888739644
   16      O       3.9808106784    -0.3158303154    -0.6547339203
   17      O       2.2355193672     1.8667843380    -0.0142808969
   18      C       4.7302578691     0.3984392947    -1.7126019777
   19      C       1.5869562994    -0.4141981691     2.5090363164
   20      C       0.9119057927    -1.7787712839     2.9318321085
   21      C       1.6874327324    -2.7953668162     2.0142608464
   22      C       2.6485303028    -1.8217214735     1.2212471687
   23      O       2.9903143671    -0.7822514372     2.2217552244
   24      H      -0.1009593590    -0.2208725704     1.0601995998
   25      H       1.0140208591    -1.6969037246    -0.3340933703
   26      H       1.5393761185     0.3923985489     3.2664086163
   27      H       1.0815334739    -1.9835296699     4.0009215496
   28      H      -0.1718489285    -1.7679300116     2.7300478841
   29      H       2.2702116772    -3.5165282463     2.6094658329
   30      H       1.0174158677    -3.3488716323     1.3375603955
   31      H       3.5684834081    -2.2855265450     0.8173806577
   32      O      -2.2959963290     1.7291188051     0.2785806035
   33      C      -4.1651759014    -0.1877015773     2.4564427295
   34      C      -2.0294632082    -2.1243995831    -1.4056045498
   35      C      -2.1510871172    -2.3572571834    -2.9638627858
   36      C      -1.0943847024    -1.3264844081    -3.5146056637
   37      C      -0.6497244584    -0.5953621826    -2.1875324125
   38      O      -0.6219166423    -1.7179914230    -1.2196341381
   39      H      -3.8445420886    -0.7779460198    -1.3634887508
   40      H      -2.4164062027     0.6731908106    -2.6229199787
   41      H      -3.5607552462     0.6946477939     2.7503400654
   42      H      -2.2691107754    -3.0026363613    -0.7750381695
   43      H      -1.8840601857    -3.3940666764    -3.2226663643
   44      H      -3.1709280425    -2.1550938300    -3.3290078030
   45      H      -0.2319770181    -1.8422672559    -3.9666463117
   46      H      -1.5211353621    -0.6349040593    -4.2583043166
   47      H       0.3716083056    -0.1221854435    -2.2112192294
   48      H      -3.7799994144    -1.0772790354     2.9953512412
   49      H      -5.2245405211    -0.0196761065     2.7237782447
   50      H       5.7896562287     0.3847378875    -1.3971561258
   51      H       4.3812429637     1.4468310069    -1.8072712261
   52      H       4.6264858280    -0.1012272921    -2.6975425674
   53      H       1.3701839800     3.7528615736     0.1471132819
   54      H       0.1522263648     4.4088407331     1.3376653206
   55      H      -1.7357809928     3.8819761189    -0.1162842840
   56      H      -0.4880305230     4.5272665538    -1.2711215138
 ----------------------------------------------------------------

    9   -1510.3057020974      6.86E-09 Convergence criterion met
 Total energy in the final basis set = -1510.30570210
 Final energy is   -1510.30570209745
 **  OPTIMIZATION CONVERGED  **

                    Orbital Energies (a.u.)
 --------------------------------------------------------------

 Alpha MOs
 -- Occupied --
-18.945 -18.932 -18.931 -18.925 -18.888 -18.885 -18.875 -18.869
-18.868 -18.857 -10.107 -10.100 -10.093 -10.089 -10.076 -10.069
-10.062 -10.060 -10.052 -10.043 -10.040 -10.038 -10.037 -10.036
-10.018 -10.012 -10.009 -10.006 -10.002  -9.999  -1.024  -1.009
 -1.005  -0.997  -0.970  -0.952  -0.945  -0.933  -0.931  -0.921
 -0.762  -0.745  -0.722  -0.715  -0.702  -0.697  -0.685  -0.660
 -0.648  -0.615  -0.591  -0.569  -0.544  -0.535  -0.530  -0.520
 -0.508  -0.499  -0.486  -0.474  -0.459  -0.453  -0.448  -0.433
 -0.430  -0.422  -0.414  -0.413  -0.409  -0.405  -0.399  -0.398
 -0.392  -0.379  -0.368  -0.365  -0.359  -0.355  -0.351  -0.347
 -0.343  -0.340  -0.327  -0.322  -0.318  -0.315  -0.312  -0.308
 -0.300  -0.297  -0.294  -0.288  -0.285  -0.278  -0.274  -0.265
 -0.264  -0.255  -0.249  -0.244  -0.236  -0.227  -0.212  -0.195
 -0.174  -0.168  -0.163  -0.159  -0.154  -0.148  -0.143  -0.138
 -0.126

          Ground-State Mulliken Net Atomic Charges

     Atom                 Charge (a.u.)
  ----------------------------------------
      1 O                    -0.226183
      2 C                     0.222778
      3 C                    -0.079904
      4 C                    -0.081514
      5 C                     0.212373
      6 O                    -0.165290
      7 C                    -0.051608
      8 C                    -0.055958
      9 O                    -0.170778
     10 C                     0.209531
     11 C                    -0.094478
     12 C                    -0.096293
     13 C                     0.220801
     14 O                    -0.230232
     15 O                    -0.167354
     16 O                    -0.163301
     17 O                    -0.213125
     18 C                    -0.126144
     19 C                     0.025598
     20 C                    -0.146419
     21 C                    -0.143566
     22 C                     0.024007
     23 O                    -0.192952
     24 H                     0.113807
     25 H                     0.110759
     26 H                     0.078655
     27 H                     0.070992
     28 H                     0.086535
     29 H                     0.072079
     30 H                     0.073769
     31 H                     0.083526
     32 O                    -0.207667
     33 C                    -0.127762
     34 C                     0.026981
     35 C                    -0.145508
     36 C                    -0.142939
     37 C                     0.005446
     38 O                    -0.197050
     39 H                     0.085884
     40 H                     0.085795
     41 H                     0.094465
     42 H                     0.081487
     43 H                     0.076726
     44 H                     0.072399
     45 H                     0.077966
     46 H                     0.071638
     47 H                     0.120572
     48 H                     0.087750
     49 H                     0.088867
     50 H                     0.088427
     51 H                     0.093766
     52 H                     0.086055
     53 H                     0.102024
     54 H                     0.088503
     55 H                     0.094965
     56 H                     0.091096
  ----------------------------------------
  Sum of atomic charges =    -0.000000

                    Cartesian Multipole Moments
 -----------------------------------------------------------------
    Charge (ESU x 10^10)
                -0.0000
    Dipole Moment (Debye)
         X      -2.6512      Y       0.5850      Z      -1.1718
       Tot       2.9570
    Quadrupole Moments (Debye-Ang)
        XX    -157.8042     XY       1.1272     YY    -146.4992
        XZ      -3.2084     YZ       1.2114     ZZ    -156.6148

 Total job time:  139.90s(wall), 6676.27s(cpu)
        *  Thank you very much for using Q-Chem.  Have a nice day.  *
