 Q-Chem 5.0, Q-Chem, Inc., Pleasanton, CA (2017)
 Q-Chem 5.0.1 for Intel X86 EM64T Linux

User input:
--------------------------------------------------------------
$molecule
0  1
O -4.1784729485 -0.1906024537 1.9967840954
C -4.2229281446 -0.0163586594 0.7604633483
C -3.4998513769 -0.8711836513 -0.3444198797
C -2.5814362845 -0.0540215576 -1.3348547354
C -2.192295574 1.3495292244 -0.7280578502
O -1.0282422059 1.8317641477 -1.3933034408
C -0.622842616 3.1646653841 -0.8850237324
C 0.5119500488 3.0811727569 0.2188236399
O 0.4691905318 1.7392344258 0.8391863636
C 1.7905761489 1.1714949932 0.9683383883
C 1.7225775067 -0.3064685165 0.4680355558
C 2.8362571677 -0.6769196467 -0.6008508282
C 3.8847392261 0.4773464954 -0.8026325581
O 3.7409870102 1.4833530247 -1.5333165717
O -5.1830792434 0.8193520194 0.0927731155
O 5.0488791427 0.2148347311 -0.0189500045
O 2.8034653379 1.8329449673 1.2843510412
C 5.9839185854 1.3590622742 -0.1110853587
C 2.0009596773 -1.4137411087 1.5811282675
C 1.3411879814 -2.7425695923 1.0417565034
C 2.3748510301 -3.1477752159 -0.0744742794
C 3.4445672563 -1.9873863374 0.0521654749
O 3.4542687333 -1.6691395873 1.4970490325
H 0.7041334194 -0.4542695404 0.0770045233
H 2.3696116921 -0.8807177274 -1.5818355968
H 1.7149594869 -1.1202898546 2.6097104613
H 1.2800173656 -3.5040201328 1.8351101805
H 0.3308641751 -2.5276884619 0.642595884
H 2.8410251915 -4.1234875709 0.1355369286
H 1.9245156954 -3.1819645377 -1.0798763954
H 4.464055988 -2.2400762038 -0.2968031767
O -2.7548631178 1.9385718977 0.2223827899
C -5.8942216423 1.6517873926 1.0866391504
C -2.4785481763 -1.9520728815 0.2066677838
C -2.4081755438 -3.1159612261 -0.8550397902
C -1.680260035 -2.3824538552 -2.0443506367
C -1.3129958098 -0.9941735771 -1.3848194946
O -1.1429905158 -1.3178467644 0.0549351759
H -4.301151292 -1.3706745741 -0.9193921019
H -3.0506769788 0.0883567969 -2.3256829892
H -5.2101437107 2.3959616794 1.5438562114
H -2.6488786683 -2.2514883224 1.2592488068
H -1.7990299145 -3.9490302957 -0.4687600008
H -3.4032582341 -3.4996599181 -1.1308177991
H -0.7673701198 -2.9162769829 -2.3524920878
H -2.328887613 -2.2571327996 -2.9261687239
H -0.4075305654 -0.5002200103 -1.7860090213
H -6.3381399695 1.0352775816 1.8946969156
H -6.6950734825 2.1769568555 0.5342324292
H 6.8739762627 1.0737164427 0.479021119
H 5.5320039207 2.2769814661 0.3172795965
H 6.280120225 1.5642271249 -1.1602122583
H 1.5090412436 3.2661149388 -0.2334392087
H 0.3290582872 3.8716724297 0.9804402388
H -1.5140761686 3.6730723382 -0.4610875348
H -0.2486776099 3.7317778828 -1.7612854626
$end

$rem
JOBTYPE                   OPT
METHOD                    B3LYP
DFT_D                     d3_op
BASIS                     STO-3G
GEOM_OPT_MAX_CYCLES       100
GEOM_OPT_TOL_GRADIENT     300
GEOM_OPT_TOL_DISPLACEMENT 1200
GEOM_OPT_TOL_ENERGY       100
SYMMETRY                  False
THRESH                    12
SCF_CONVERGENCE           8
MAX_SUB_FILE_NUM          128
MEM_STATIC                400
MEM_TOTAL                 4000
$end
--------------------------------------------------------------

   16   -1510.2750952250      5.64E-09 Convergence criterion met
 Total energy in the final basis set = -1510.27509523
   14   -1510.2805910559      4.17E-09 Convergence criterion met
 Total energy in the final basis set = -1510.28059106
   14   -1510.2775558380      3.25E-09 Convergence criterion met
 Total energy in the final basis set = -1510.27755584
   14   -1510.2875015156      1.66E-09 Convergence criterion met
 Total energy in the final basis set = -1510.28750152
   13   -1510.2906128562      8.64E-09 Convergence criterion met
 Total energy in the final basis set = -1510.29061286
   14   -1510.2931755747      3.46E-09 Convergence criterion met
 Total energy in the final basis set = -1510.29317557
   14   -1510.2953525874      4.12E-09 Convergence criterion met
 Total energy in the final basis set = -1510.29535259
   14   -1510.2937628734      5.06E-09 Convergence criterion met
   12   -1510.3056352333      3.63E-09 Convergence criterion met
 Total energy in the final basis set = -1510.30563523
   11   -1510.3056454901      7.83E-09 Convergence criterion met
 Total energy in the final basis set = -1510.30564549
   11   -1510.3056489325      3.81E-09 Convergence criterion met
 Total energy in the final basis set = -1510.30564893
    9   -1510.3056494983      8.99E-09 Convergence criterion met
 Total energy in the final basis set = -1510.30564950
    9   -1510.3056486888      3.81E-09 Convergence criterion met
 Total energy in the final basis set = -1510.30564869
    9   -1510.3056445027      6.05E-09 Convergence criterion met
 Total energy in the final basis set = -1510.30564450

             Standard Nuclear Orientation (Angstroms)
    I     Atom           X                Y                Z
 ----------------------------------------------------------------
    1      O      -1.8842152234    -0.8521951404     1.2851937537
    2      C      -2.8184972306    -0.6424992385     0.4738492166
    3      C      -2.7795979561    -0.7935527555    -1.0928957686
    4      C      -1.8415674704     0.2824339065    -1.7808642953
    5      C      -1.6258278869     1.5135753684    -0.8358651576
    6      O      -0.6930459603     2.4417218445    -1.3945653718
    7      C      -0.6707855533     3.6851348108    -0.5773269287
    8      C       0.3805988831     3.5918877920     0.5964920773
    9      O       0.2684909114     2.2638419433     1.2400965507
   10      C       1.2777974318     1.3951671842     0.7052217508
   11      C       0.9695175433    -0.0764780420     1.0951276959
   12      C       1.7610473326    -1.1053120721     0.1865783819
   13      C       2.6186569795    -0.4168473994    -0.9332633945
   14      O       2.2015223279    -0.0307538659    -2.0576487190
   15      O      -4.1646228304    -0.3668957128     0.8675892242
   16      O       3.9951502767    -0.3838736478    -0.5636904384
   17      O       2.2439730922     1.8045740128     0.0182365169
   18      C       4.7766536093     0.3258738276    -1.6011681033
   19      C       1.5235945465    -0.4634935535     2.5342368202
   20      C       0.8345348744    -1.8242441508     2.9464949262
   21      C       1.6264416709    -2.8465214944     2.0493259661
   22      C       2.6092406163    -1.8791169154     1.2756819243
   23      O       2.9319447106    -0.8379102833     2.2808311543
   24      H      -0.1290268253    -0.2643897285     1.0446535271
   25      H       1.0140668392    -1.7512592047    -0.3198158517
   26      H       1.4615807077     0.3458060503     3.2876405099
   27      H       0.9807965618    -2.0259565820     4.0196300357
   28      H      -0.2447380686    -1.8107582870     2.7223479217
   29      H       2.1928864545    -3.5679093698     2.6598310479
   30      H       0.9699550012    -3.4001987510     1.3595560141
   31      H       3.5364034207    -2.3477580060     0.8946869207
   32      O      -2.2736763318     1.7218038304     0.2182078157
   33      C      -4.2295174793    -0.1792257345     2.3351009487
   34      C      -2.0194719533    -2.1274865832    -1.4774510814
   35      C      -2.1020161049    -2.3497529346    -3.0400524666
   36      C      -1.0125497805    -1.3345396884    -3.5547344918
   37      C      -0.5938809854    -0.6174198365    -2.2118577887
   38      O      -0.6113589229    -1.7446712348    -1.2494915382
   39      H      -3.8136281280    -0.7526040062    -1.4769465961
   40      H      -2.3270105299     0.6814496766    -2.6913059444
   41      H      -3.6079495060     0.6821602004     2.6541432921
   42      H      -2.2908313196    -3.0048980384    -0.8587366953
   43      H      -1.8462770763    -3.3896218285    -3.2979651982
   44      H      -3.1076600129    -2.1271505842    -3.4316545759
   45      H      -0.1463053116    -1.8631106318    -3.9840287966
   46      H      -1.4053268418    -0.6321704834    -4.3070630933
   47      H       0.4353896824    -0.1610128963    -2.2063430169
   48      H      -3.8884268812    -1.0838547155     2.8787166723
   49      H      -5.2909986641     0.0189373554     2.5716690502
   50      H       5.8280363629     0.3011540923    -1.2605431008
   51      H       4.4399713975     1.3778678092    -1.7008957940
   52      H       4.6913142268    -0.1699487723    -2.5897584629
   53      H       1.4121275005     3.7119512569     0.2019411606
   54      H       0.1617214109     4.3653118496     1.3597897556
   55      H      -1.6812687925     3.8706943411    -0.1574250426
   56      H      -0.3909671849     4.5029993759    -1.2717865090
 ----------------------------------------------------------------

    9   -1510.3056450769      5.50E-09 Convergence criterion met
 Total energy in the final basis set = -1510.30564508
 Final energy is   -1510.30564507687
 **  OPTIMIZATION CONVERGED  **

                    Orbital Energies (a.u.)
 --------------------------------------------------------------

 Alpha MOs
 -- Occupied --
-18.945 -18.932 -18.931 -18.925 -18.887 -18.885 -18.875 -18.869
-18.867 -18.857 -10.107 -10.100 -10.094 -10.089 -10.076 -10.069
-10.061 -10.060 -10.052 -10.043 -10.041 -10.038 -10.037 -10.035
-10.018 -10.012 -10.009 -10.007 -10.002  -9.999  -1.024  -1.009
 -1.005  -0.997  -0.970  -0.952  -0.945  -0.934  -0.930  -0.921
 -0.762  -0.745  -0.722  -0.715  -0.702  -0.697  -0.686  -0.660
 -0.648  -0.615  -0.591  -0.569  -0.543  -0.535  -0.530  -0.520
 -0.508  -0.499  -0.486  -0.474  -0.458  -0.453  -0.448  -0.433
 -0.430  -0.422  -0.414  -0.413  -0.409  -0.405  -0.399  -0.398
 -0.392  -0.379  -0.368  -0.364  -0.359  -0.355  -0.351  -0.347
 -0.343  -0.340  -0.327  -0.322  -0.317  -0.315  -0.311  -0.308
 -0.299  -0.297  -0.294  -0.288  -0.285  -0.278  -0.273  -0.265
 -0.264  -0.255  -0.248  -0.245  -0.236  -0.227  -0.212  -0.195
 -0.174  -0.168  -0.163  -0.159  -0.154  -0.148  -0.142  -0.138
 -0.126

          Ground-State Mulliken Net Atomic Charges

     Atom                 Charge (a.u.)
  ----------------------------------------
      1 O                    -0.226234
      2 C                     0.222719
      3 C                    -0.079911
      4 C                    -0.081588
      5 C                     0.212184
      6 O                    -0.165260
      7 C                    -0.051633
      8 C                    -0.055703
      9 O                    -0.170550
     10 C                     0.209586
     11 C                    -0.094472
     12 C                    -0.095723
     13 C                     0.221114
     14 O                    -0.230050
     15 O                    -0.167423
     16 O                    -0.163394
     17 O                    -0.212997
     18 C                    -0.126158
     19 C                     0.025547
     20 C                    -0.146211
     21 C                    -0.143567
     22 C                     0.024010
     23 O                    -0.192964
     24 H                     0.114082
     25 H                     0.110254
     26 H                     0.078760
     27 H                     0.071136
     28 H                     0.086282
     29 H                     0.072157
     30 H                     0.073835
     31 H                     0.083624
     32 O                    -0.207663
     33 C                    -0.127734
     34 C                     0.026868
     35 C                    -0.145554
     36 C                    -0.142934
     37 C                     0.005092
     38 O                    -0.197272
     39 H                     0.085843
     40 H                     0.085725
     41 H                     0.094552
     42 H                     0.081352
     43 H                     0.076618
     44 H                     0.072305
     45 H                     0.077872
     46 H                     0.071525
     47 H                     0.120705
     48 H                     0.087451
     49 H                     0.088849
     50 H                     0.088396
     51 H                     0.093724
     52 H                     0.086253
     53 H                     0.101803
     54 H                     0.088739
     55 H                     0.094893
     56 H                     0.091144
  ----------------------------------------
  Sum of atomic charges =    -0.000000

                    Cartesian Multipole Moments
 -----------------------------------------------------------------
    Charge (ESU x 10^10)
                -0.0000
    Dipole Moment (Debye)
         X      -2.5749      Y       0.6425      Z      -1.1971
       Tot       2.9114
    Quadrupole Moments (Debye-Ang)
        XX    -157.5491     XY       1.2764     YY    -146.5328
        XZ      -3.1385     YZ       1.2903     ZZ    -156.8065

 Total job time:  151.03s(wall), 7204.39s(cpu)
        *  Thank you very much for using Q-Chem.  Have a nice day.  *
