 Q-Chem 5.0, Q-Chem, Inc., Pleasanton, CA (2017)
 Q-Chem 5.0.1 for Intel X86 EM64T Linux

User input:
--------------------------------------------------------------
$molecule
0  1
O -3.94934 -3.66094 2.70899
C -3.26408 -4.56952 2.26188
C -3.36658 -6.02376 2.66595
C -2.0814 -6.70803 3.15985
C -0.87738 -5.81525 3.36318
O 0.01346 -6.4216 4.20233
C 1.19532 -5.64521 4.42522
C 1.06623 -4.8516 5.72123
O -0.32056 -4.67167 6.04885
C -0.64813 -4.90126 7.34466
C -1.88581 -5.75316 7.49661
C -1.73036 -6.95926 8.43438
C -0.51585 -6.93944 9.34063
O 0.61296 -7.28291 9.02067
O -2.479 -4.30991 1.17998
O -0.70655 -6.59351 10.64591
O -0.0264 -4.4111 8.27833
C 0.28827 -6.54833 11.60051
C -3.03018 -4.98355 8.20502
C -4.39046 -5.56678 7.84542
C -4.28734 -6.93268 8.48729
C -2.99592 -6.74349 9.2998
O -2.9348 -5.36146 9.5536
H -2.19997 -6.02222 6.51789
H -1.75797 -7.94463 7.91985
H -3.02065 -3.88864 8.00945
H -5.13113 -4.96181 8.41816
H -4.71366 -5.55448 6.79036
H -5.18394 -7.08638 9.12721
H -4.17083 -7.7797 7.77623
H -3.01043 -7.40574 10.19364
O -0.79102 -4.63859 3.03819
C -2.32861 -3.06405 0.60705
C -4.37288 -6.35787 3.7587
C -4.82934 -7.81206 3.63347
C -3.57698 -8.54059 4.07881
C -2.66846 -7.35516 4.42782
O -3.58097 -6.39096 4.89686
H -3.71696 -6.51527 1.72963
H -1.72997 -7.51215 2.47554
H -1.90635 -2.35133 1.34738
H -5.24745 -5.67233 3.78097
H -5.62793 -7.9837 4.39038
H -5.20916 -8.09286 2.62755
H -3.8174 -9.10933 5.00512
H -3.12677 -9.22286 3.32594
H -1.88426 -7.70362 5.13254
H -3.30854 -2.68966 0.24124
H -1.63199 -3.14098 -0.25271
H -0.15162 -6.23446 12.56921
H 1.06695 -5.81271 11.30578
H 0.74652 -7.55275 11.72421
H 1.56542 -5.45702 6.51529
H 1.60968 -3.88513 5.64927
H 1.394 -4.92409 3.59913
H 2.10469 -6.28308 4.42535
$end

$opt
CONSTRAINT
tors           1           2           3           4    -125.115
tors           3           4           5           6    +159.528
tors           4           5           6           7    +178.939
tors           5           6           7           8     +96.674
tors           6           7           8           9     -23.211
tors           7           8           9          10    +134.770
tors           8           9          10          11    -133.853
tors           9          10          11          12    +129.194
tors          11          12          13          14     -82.280
ENDCONSTRAINT
$end

$rem
JOBTYPE                   OPT
METHOD                    B3LYP
DFT_D                     d3_op
BASIS                     STO-3G
GEOM_OPT_MAX_CYCLES       100
GEOM_OPT_TOL_GRADIENT     300
GEOM_OPT_TOL_DISPLACEMENT 1200
GEOM_OPT_TOL_ENERGY       100
SYMMETRY                  False
THRESH                    12
SCF_CONVERGENCE           8
MAX_SUB_FILE_NUM          128
MEM_STATIC                400
MEM_TOTAL                 4000
$end
--------------------------------------------------------------

   15   -1510.1306973386      6.71E-09 Convergence criterion met
 Total energy in the final basis set = -1510.13069734
   13   -1510.2034738935      6.98E-09 Convergence criterion met
 Total energy in the final basis set = -1510.20347389
   13   -1510.2427361223      9.38E-09 Convergence criterion met
 Total energy in the final basis set = -1510.24273612
   14   -1510.2548179463      4.26E-09 Convergence criterion met
 Total energy in the final basis set = -1510.25481795
   14   -1510.2654764480      2.66E-09 Convergence criterion met
 Total energy in the final basis set = -1510.26547645
   14   -1510.2656941024      3.10E-09 Convergence criterion met
 Total energy in the final basis set = -1510.26569410
   14   -1510.2698352644      1.69E-09 Convergence criterion met
 Total energy in the final basis set = -1510.26983526
   13   -1510.2713000424      3.66E-09 Convergence criterion met
   10   -1510.2750172661      8.65E-09 Convergence criterion met
 Total energy in the final basis set = -1510.27501727
   10   -1510.2750328988      7.61E-09 Convergence criterion met
 Total energy in the final basis set = -1510.27503290
   10   -1510.2750379400      4.79E-09 Convergence criterion met
 Total energy in the final basis set = -1510.27503794
    9   -1510.2750489926      7.83E-09 Convergence criterion met
 Total energy in the final basis set = -1510.27504899
    9   -1510.2750507798      5.29E-09 Convergence criterion met
 Total energy in the final basis set = -1510.27505078
    9   -1510.2750518557      3.67E-09 Convergence criterion met
 Total energy in the final basis set = -1510.27505186

             Standard Nuclear Orientation (Angstroms)
    I     Atom           X                Y                Z
 ----------------------------------------------------------------
    1      O      -4.1784729485    -0.1906024537     1.9967840954
    2      C      -4.2229281446    -0.0163586594     0.7604633483
    3      C      -3.4998513769    -0.8711836513    -0.3444198797
    4      C      -2.5814362845    -0.0540215576    -1.3348547354
    5      C      -2.1922955740     1.3495292244    -0.7280578502
    6      O      -1.0282422059     1.8317641477    -1.3933034408
    7      C      -0.6228426160     3.1646653841    -0.8850237324
    8      C       0.5119500488     3.0811727569     0.2188236399
    9      O       0.4691905318     1.7392344258     0.8391863636
   10      C       1.7905761489     1.1714949932     0.9683383883
   11      C       1.7225775067    -0.3064685165     0.4680355558
   12      C       2.8362571677    -0.6769196467    -0.6008508282
   13      C       3.8847392261     0.4773464954    -0.8026325581
   14      O       3.7409870102     1.4833530247    -1.5333165717
   15      O      -5.1830792434     0.8193520194     0.0927731155
   16      O       5.0488791427     0.2148347311    -0.0189500045
   17      O       2.8034653379     1.8329449673     1.2843510412
   18      C       5.9839185854     1.3590622742    -0.1110853587
   19      C       2.0009596773    -1.4137411087     1.5811282675
   20      C       1.3411879814    -2.7425695923     1.0417565034
   21      C       2.3748510301    -3.1477752159    -0.0744742794
   22      C       3.4445672563    -1.9873863374     0.0521654749
   23      O       3.4542687333    -1.6691395873     1.4970490325
   24      H       0.7041334194    -0.4542695404     0.0770045233
   25      H       2.3696116921    -0.8807177274    -1.5818355968
   26      H       1.7149594869    -1.1202898546     2.6097104613
   27      H       1.2800173656    -3.5040201328     1.8351101805
   28      H       0.3308641751    -2.5276884619     0.6425958840
   29      H       2.8410251915    -4.1234875709     0.1355369286
   30      H       1.9245156954    -3.1819645377    -1.0798763954
   31      H       4.4640559880    -2.2400762038    -0.2968031767
   32      O      -2.7548631178     1.9385718977     0.2223827899
   33      C      -5.8942216423     1.6517873926     1.0866391504
   34      C      -2.4785481763    -1.9520728815     0.2066677838
   35      C      -2.4081755438    -3.1159612261    -0.8550397902
   36      C      -1.6802600350    -2.3824538552    -2.0443506367
   37      C      -1.3129958098    -0.9941735771    -1.3848194946
   38      O      -1.1429905158    -1.3178467644     0.0549351759
   39      H      -4.3011512920    -1.3706745741    -0.9193921019
   40      H      -3.0506769788     0.0883567969    -2.3256829892
   41      H      -5.2101437107     2.3959616794     1.5438562114
   42      H      -2.6488786683    -2.2514883224     1.2592488068
   43      H      -1.7990299145    -3.9490302957    -0.4687600008
   44      H      -3.4032582341    -3.4996599181    -1.1308177991
   45      H      -0.7673701198    -2.9162769829    -2.3524920878
   46      H      -2.3288876130    -2.2571327996    -2.9261687239
   47      H      -0.4075305654    -0.5002200103    -1.7860090213
   48      H      -6.3381399695     1.0352775816     1.8946969156
   49      H      -6.6950734825     2.1769568555     0.5342324292
   50      H       6.8739762627     1.0737164427     0.4790211190
   51      H       5.5320039207     2.2769814661     0.3172795965
   52      H       6.2801202250     1.5642271249    -1.1602122583
   53      H       1.5090412436     3.2661149388    -0.2334392087
   54      H       0.3290582872     3.8716724297     0.9804402388
   55      H      -1.5140761686     3.6730723382    -0.4610875348
   56      H      -0.2486776099     3.7317778828    -1.7612854626
 ----------------------------------------------------------------

    9   -1510.2750525867      2.13E-09 Convergence criterion met
 Total energy in the final basis set = -1510.27505259
 Final energy is   -1510.27505258671
 **  OPTIMIZATION CONVERGED  **

                    Orbital Energies (a.u.)
 --------------------------------------------------------------

 Alpha MOs
 -- Occupied --
-18.945 -18.927 -18.921 -18.914 -18.904 -18.889 -18.882 -18.877
-18.865 -18.860 -10.111 -10.097 -10.095 -10.091 -10.077 -10.072
-10.070 -10.067 -10.055 -10.055 -10.051 -10.048 -10.046 -10.039
-10.031 -10.030 -10.028 -10.021 -10.010  -9.998  -1.023  -1.006
 -1.000  -0.999  -0.983  -0.960  -0.948  -0.931  -0.927  -0.926
 -0.772  -0.754  -0.733  -0.719  -0.710  -0.705  -0.692  -0.656
 -0.651  -0.619  -0.596  -0.575  -0.554  -0.546  -0.537  -0.528
 -0.512  -0.504  -0.487  -0.477  -0.465  -0.462  -0.456  -0.440
 -0.433  -0.427  -0.418  -0.410  -0.408  -0.403  -0.403  -0.399
 -0.395  -0.383  -0.374  -0.368  -0.360  -0.356  -0.350  -0.347
 -0.343  -0.340  -0.336  -0.332  -0.331  -0.321  -0.319  -0.316
 -0.311  -0.307  -0.299  -0.295  -0.291  -0.281  -0.278  -0.277
 -0.268  -0.256  -0.247  -0.247  -0.243  -0.237  -0.222  -0.187
 -0.170  -0.168  -0.163  -0.161  -0.159  -0.153  -0.145  -0.142
 -0.133

          Ground-State Mulliken Net Atomic Charges

     Atom                 Charge (a.u.)
  ----------------------------------------
      1 O                    -0.217006
      2 C                     0.216985
      3 C                    -0.081107
      4 C                    -0.073883
      5 C                     0.222460
      6 O                    -0.169370
      7 C                    -0.050034
      8 C                    -0.048085
      9 O                    -0.183623
     10 C                     0.214427
     11 C                    -0.088647
     12 C                    -0.079690
     13 C                     0.209045
     14 O                    -0.225359
     15 O                    -0.175567
     16 O                    -0.162259
     17 O                    -0.201261
     18 C                    -0.126827
     19 C                     0.026462
     20 C                    -0.154737
     21 C                    -0.145604
     22 C                     0.026449
     23 O                    -0.187732
     24 H                     0.101918
     25 H                     0.079152
     26 H                     0.081501
     27 H                     0.069979
     28 H                     0.090363
     29 H                     0.074146
     30 H                     0.066766
     31 H                     0.085023
     32 O                    -0.204389
     33 C                    -0.128349
     34 C                     0.024725
     35 C                    -0.142446
     36 C                    -0.145446
     37 C                     0.023498
     38 O                    -0.191203
     39 H                     0.085014
     40 H                     0.088782
     41 H                     0.090991
     42 H                     0.095017
     43 H                     0.079707
     44 H                     0.076317
     45 H                     0.078398
     46 H                     0.076294
     47 H                     0.091455
     48 H                     0.088102
     49 H                     0.086047
     50 H                     0.090088
     51 H                     0.093534
     52 H                     0.086216
     53 H                     0.091959
     54 H                     0.084881
     55 H                     0.096121
     56 H                     0.090804
  ----------------------------------------
  Sum of atomic charges =     0.000000

                    Cartesian Multipole Moments
 -----------------------------------------------------------------
    Charge (ESU x 10^10)
                -0.0000
    Dipole Moment (Debye)
         X      -2.0692      Y      -0.5672      Z      -3.3898
       Tot       4.0118
    Quadrupole Moments (Debye-Ang)
        XX    -157.1994     XY       1.0123     YY    -148.7525
        XZ       0.8846     YZ       3.3640     ZZ    -164.1154

 Total job time:  63.25s(wall), 3011.17s(cpu)
        *  Thank you very much for using Q-Chem.  Have a nice day.  *
