 Q-Chem 5.0, Q-Chem, Inc., Pleasanton, CA (2017)
 Q-Chem 5.0.1 for Intel X86 EM64T Linux

User input:
--------------------------------------------------------------
$molecule
0  1
O 2.8028739891 -0.0498469264 2.5297149196
C 3.3450361429 -0.0334612536 1.4037972487
C 3.145663585 1.0300269765 0.2632866895
C 2.5779712168 0.4610242637 -1.1068923609
C 2.0504244209 -1.0191836243 -1.0269388099
O 1.150273836 -1.2714538361 -2.1232962305
C 0.7648943088 -2.7038807406 -2.1039847515
C -0.501221646 -3.0734682786 -1.2391858969
O -0.5516860558 -2.2649402629 -0.0011948422
C -1.9105924443 -1.8281173926 0.2199298541
C -1.9004120083 -0.6063232275 1.1826559789
C -1.7742772564 0.7601948132 0.3721203126
C -2.0462950956 0.5637246133 -1.1638534125
O -1.2131770265 0.2555694664 -2.0524670023
O 4.4680423544 -0.847280577 1.0356122708
O -3.4338558526 0.7368242877 -1.4487024142
O -2.8959986044 -2.315976552 -0.3773897722
C -3.6978033657 0.4683297383 -2.8812571619
C -3.2266983261 -0.3566698645 2.0171476942
C -2.8203340149 0.5261060684 3.2616128737
C -2.5198736292 1.9019535089 2.557410534
C -2.9317137199 1.5870568125 1.0614991569
O -4.0180959996 0.583818523 1.194641085
H -1.027856287 -0.7166186927 1.8518731916
H -0.7519948933 1.1965475308 0.4658194071
H -3.8148690361 -1.2674346495 2.2420696795
H -3.6660105364 0.6104918136 3.9628694171
H -1.9493764084 0.1208210009 3.8007239677
H -3.1405870145 2.7130593871 2.969653043
H -1.4598806127 2.1924683651 2.6354590982
H -3.2837452247 2.4588985644 0.4779541949
O 2.3149257147 -1.8677452501 -0.1473010163
C 4.6852229588 -1.8960881083 2.0554186813
C 2.1165761211 2.1722731392 0.6057500998
C 2.4241827325 3.4072076065 -0.329535148
C 1.8998166278 2.875043153 -1.7191265393
C 1.3480865852 1.4502753902 -1.3252267905
O 0.8519119246 1.6581779481 0.0546381564
H 4.1469608009 1.4620043096 0.0788040239
H 3.3186653516 0.5369976649 -1.9231844455
H 3.8571154739 -2.6344928992 2.0474098105
H 2.0161448864 2.3888138033 1.6871992002
H 1.8562258932 4.2909508979 0.002461735
H 3.4960391728 3.6609489611 -0.3469530126
H 1.0899639552 3.5092663934 -2.1132417783
H 2.6984032172 2.8120373088 -2.4754683102
H 0.5102026534 1.0205148874 -1.9250523242
H 4.7685216231 -1.4660157932 3.0744159937
H 5.630768622 -2.4002443097 1.7835101377
H -4.7737138048 0.6709122262 -3.0337041284
H -3.4795127657 -0.5879726123 -3.1400421255
H -3.0953791867 1.1258181649 -3.5408844081
H -1.4409743743 -2.9106121176 -1.8089006882
H -0.4404780247 -4.1545331998 -0.9843279514
H 1.626098679 -3.3048758848 -1.7443457427
H 0.5501369639 -2.9692246746 -3.1595079984
$end

$rem
JOBTYPE                   OPT
METHOD                    B3LYP
DFT_D                     d3_op
BASIS                     STO-3G
GEOM_OPT_MAX_CYCLES       100
GEOM_OPT_TOL_GRADIENT     300
GEOM_OPT_TOL_DISPLACEMENT 1200
GEOM_OPT_TOL_ENERGY       100
SYMMETRY                  False
THRESH                    12
SCF_CONVERGENCE           8
MAX_SUB_FILE_NUM          128
MEM_STATIC                400
MEM_TOTAL                 4000
$end
--------------------------------------------------------------

   16   -1510.2865431878      7.92E-09 Convergence criterion met
 Total energy in the final basis set = -1510.28654319
   14   -1510.2796103752      5.31E-09 Convergence criterion met
 Total energy in the final basis set = -1510.27961038
   13   -1510.2887621738      8.71E-09 Convergence criterion met
 Total energy in the final basis set = -1510.28876217
   16   -1509.6592661640      5.20E-09 Convergence criterion met
 Total energy in the final basis set = -1509.65926616
   16   -1510.2839725014      5.54E-09 Convergence criterion met
 Total energy in the final basis set = -1510.28397250
   14   -1510.2882435150      7.66E-09 Convergence criterion met
 Total energy in the final basis set = -1510.28824351
   14   -1510.2896910164      7.58E-09 Convergence criterion met
 Total energy in the final basis set = -1510.28969102
   13   -1510.2903089661      8.34E-09 Convergence criterion met
   11   -1510.3093679803      5.35E-09 Convergence criterion met
 Total energy in the final basis set = -1510.30936798
   11   -1510.3093749449      6.32E-09 Convergence criterion met
 Total energy in the final basis set = -1510.30937494
   11   -1510.3093748395      6.14E-09 Convergence criterion met
 Total energy in the final basis set = -1510.30937484
   10   -1510.3093788404      7.18E-09 Convergence criterion met
 Total energy in the final basis set = -1510.30937884
    9   -1510.3093793193      4.24E-09 Convergence criterion met
 Total energy in the final basis set = -1510.30937932
    9   -1510.3093787099      3.34E-09 Convergence criterion met
 Total energy in the final basis set = -1510.30937871

             Standard Nuclear Orientation (Angstroms)
    I     Atom           X                Y                Z
 ----------------------------------------------------------------
    1      O      -1.4912591134    -1.2229254101     1.6807507681
    2      C      -2.5064154522    -0.7907807745     1.0842158474
    3      C      -2.8638419682    -0.9583542659    -0.4438699380
    4      C      -2.1999334723     0.1449337629    -1.3672782387
    5      C      -1.6604284566     1.3564697043    -0.5405569644
    6      O      -1.3365214125     2.4355012232    -1.4197275118
    7      C      -0.7422411173     3.5528306060    -0.6404072608
    8      C       0.8032145075     3.3021286198    -0.4436752583
    9      O       1.0035833838     1.8541455652    -0.2512751474
   10      C       1.2647920777     1.5109481955     1.1220790231
   11      C       1.1965283947    -0.0429513062     1.2353705810
   12      C       1.6370162820    -0.8493587409    -0.0574528703
   13      C       2.1726091339     0.0235883674    -1.2394211029
   14      O       1.6551142073     0.1513177786    -2.3802453915
   15      O      -3.6297750085    -0.1974131146     1.7426157449
   16      O       3.4296363326     0.6057207551    -0.8786372204
   17      O       1.4534560082     2.3567578171     2.0204241187
   18      C       3.9406218655     1.4537611124    -1.9796260584
   19      C       2.1796285944    -0.6357801144     2.3255489171
   20      C       1.6447078025    -2.0710554992     2.7101310633
   21      C       2.0516780586    -2.8935806484     1.4310650384
   22      C       2.7623287449    -1.7806324937     0.5613657980
   23      O       3.4215897298    -0.9174932866     1.5684663448
   24      H       0.1416539712    -0.3171527257     1.4724363935
   25      H       0.7628160967    -1.4229539362    -0.4389488697
   26      H       2.3843983913     0.0465546685     3.1735871888
   27      H       2.1518317774    -2.4475282503     3.6127681125
   28      H       0.5557831737    -2.0688147860     2.8791918449
   29      H       2.7567414684    -3.7038362627     1.6762691093
   30      H       1.1797590799    -3.3223429246     0.9119088651
   31      H       3.5043510052    -2.1582808536    -0.1685487064
   32      O      -1.6006303580     1.4253301892     0.7109759085
   33      C      -3.3096949469     0.0252081003     3.1709451092
   34      C      -2.1830140978    -2.2665765735    -1.0163631353
   35      C      -2.7005854735    -2.5287954698    -2.4871409627
   36      C      -1.8658045743    -1.4703000190    -3.3066174137
   37      C      -1.1028821945    -0.7189500381    -2.1497373092
   38      O      -0.7864262945    -1.8282238936    -1.2220784085
   39      H      -3.9629950762    -0.9639330864    -0.5470166856
   40      H      -2.9338786995     0.5463484851    -2.0893212820
   41      H      -2.4694901277     0.7408060523     3.2826290782
   42      H      -2.2200827843    -3.1384827545    -0.3350792698
   43      H      -2.4687944009    -3.5592384061    -2.8000405545
   44      H      -3.7877193193    -2.3702891041    -2.5734998713
   45      H      -1.1457381375    -1.9646449162    -3.9782573013
   46      H      -2.4998102754    -0.7950557826    -3.9028091634
   47      H      -0.1390853248    -0.2076957395    -2.4128769113
   48      H      -3.0400551962    -0.9216457575     3.6816868059
   49      H      -4.2227059086     0.4484166101     3.6283258380
   50      H       3.9536213913     2.5112601079    -1.6485854972
   51      H       3.2805740163     1.3412983348    -2.8638267904
   52      H       4.9723587297     1.1350914523    -2.2236110334
   53      H       1.3649751218     3.5935912329    -1.3539932341
   54      H       1.1816746841     3.8574722520     0.4419603409
   55      H      -1.2409296993     3.6251002418     0.3491370619
   56      H      -0.9202172073     4.4759061743    -1.2268444832
 ----------------------------------------------------------------

    9   -1510.3093786969      3.58E-09 Convergence criterion met
 Total energy in the final basis set = -1510.30937870
 Final energy is   -1510.30937869688
 **  OPTIMIZATION CONVERGED  **

                    Orbital Energies (a.u.)
 --------------------------------------------------------------

 Alpha MOs
 -- Occupied --
-18.946 -18.931 -18.931 -18.923 -18.895 -18.885 -18.876 -18.868
-18.866 -18.862 -10.110 -10.100 -10.097 -10.092 -10.078 -10.074
-10.064 -10.060 -10.049 -10.045 -10.041 -10.040 -10.040 -10.038
-10.021 -10.017 -10.011 -10.004 -10.001  -9.999  -1.027  -1.010
 -1.005  -0.998  -0.975  -0.951  -0.947  -0.935  -0.931  -0.924
 -0.765  -0.746  -0.724  -0.717  -0.704  -0.697  -0.686  -0.660
 -0.649  -0.619  -0.592  -0.574  -0.546  -0.539  -0.529  -0.520
 -0.511  -0.499  -0.486  -0.470  -0.468  -0.455  -0.450  -0.438
 -0.431  -0.422  -0.416  -0.413  -0.409  -0.406  -0.404  -0.399
 -0.391  -0.381  -0.374  -0.365  -0.362  -0.355  -0.350  -0.346
 -0.341  -0.337  -0.334  -0.328  -0.323  -0.314  -0.312  -0.308
 -0.304  -0.302  -0.298  -0.290  -0.286  -0.281  -0.274  -0.269
 -0.262  -0.258  -0.250  -0.237  -0.234  -0.229  -0.213  -0.193
 -0.174  -0.169  -0.164  -0.161  -0.155  -0.151  -0.147  -0.143
 -0.125

          Ground-State Mulliken Net Atomic Charges

     Atom                 Charge (a.u.)
  ----------------------------------------
      1 O                    -0.228329
      2 C                     0.222264
      3 C                    -0.081177
      4 C                    -0.081398
      5 C                     0.219021
      6 O                    -0.164540
      7 C                    -0.052181
      8 C                    -0.052719
      9 O                    -0.179233
     10 C                     0.218962
     11 C                    -0.091574
     12 C                    -0.099270
     13 C                     0.222530
     14 O                    -0.231486
     15 O                    -0.169907
     16 O                    -0.167064
     17 O                    -0.212507
     18 C                    -0.136291
     19 C                     0.023434
     20 C                    -0.145225
     21 C                    -0.143432
     22 C                     0.025009
     23 O                    -0.191855
     24 H                     0.111823
     25 H                     0.115248
     26 H                     0.083176
     27 H                     0.071436
     28 H                     0.083122
     29 H                     0.071921
     30 H                     0.076150
     31 H                     0.077513
     32 O                    -0.216911
     33 C                    -0.128286
     34 C                     0.028092
     35 C                    -0.144768
     36 C                    -0.142856
     37 C                     0.010752
     38 O                    -0.192838
     39 H                     0.085923
     40 H                     0.087020
     41 H                     0.094061
     42 H                     0.084622
     43 H                     0.077926
     44 H                     0.073062
     45 H                     0.079286
     46 H                     0.072969
     47 H                     0.119080
     48 H                     0.088020
     49 H                     0.088614
     50 H                     0.080187
     51 H                     0.099966
     52 H                     0.084766
     53 H                     0.087695
     54 H                     0.102127
     55 H                     0.096794
     56 H                     0.091277
  ----------------------------------------
  Sum of atomic charges =    -0.000000

                    Cartesian Multipole Moments
 -----------------------------------------------------------------
    Charge (ESU x 10^10)
                -0.0000
    Dipole Moment (Debye)
         X      -2.9481      Y       0.6744      Z      -1.6725
       Tot       3.4559
    Quadrupole Moments (Debye-Ang)
        XX    -158.1163     XY       3.1359     YY    -148.6380
        XZ      -5.2949     YZ      -3.3522     ZZ    -158.9742

 Total job time:  186.14s(wall), 8889.16s(cpu)
        *  Thank you very much for using Q-Chem.  Have a nice day.  *
