 Q-Chem 5.0, Q-Chem, Inc., Pleasanton, CA (2017)
 Q-Chem 5.0.1 for Intel X86 EM64T Linux

User input:
--------------------------------------------------------------
$molecule
0  1
O -3.94934 -3.66094 2.70899
C -3.26408 -4.56952 2.26188
C -3.36658 -6.02376 2.66595
C -2.11402 -6.67325 3.27678
C -0.95489 -5.74971 3.5794
O -0.12753 -6.32934 4.4986
C 1.05826 -5.56731 4.74853
C 0.81192 -4.56476 5.87117
O -0.52013 -4.03679 5.77227
C -1.18983 -3.92033 6.94576
C -2.68605 -3.82824 6.76269
C -3.42102 -5.17656 6.75144
C -2.63369 -6.36266 7.27104
O -1.89825 -7.07347 6.60139
O -2.43174 -4.29091 1.2212
O -2.7734 -6.68717 8.58786
O -0.6823 -4.09488 8.04814
C -2.10343 -7.71557 9.21727
C -3.39352 -3.07145 7.89834
C -4.72989 -2.52673 7.39561
C -5.52891 -3.80657 7.297
C -4.49952 -4.81787 7.81944
O -3.7831 -4.08576 8.78402
H -2.84443 -3.27421 5.80816
H -3.9986 -5.30424 5.84311
H -2.77618 -2.25102 8.32562
H -5.16746 -1.89285 8.19959
H -4.66288 -1.93722 6.45572
H -6.37838 -3.7411 8.01355
H -5.91114 -4.05846 6.28446
H -5.03779 -5.71752 8.19349
O -0.62512 -4.80034 2.88119
C -2.24188 -3.03272 0.68844
C -4.44938 -6.65874 3.577
C -4.84447 -8.01821 3.00439
C -3.54825 -8.79635 3.23523
C -2.75036 -7.79298 4.10302
O -3.77742 -7.10601 4.7371
H -3.56116 -6.46517 1.65925
H -1.61825 -7.20883 2.43446
H -1.84401 -2.34547 1.46563
H -5.33365 -6.00623 3.74052
H -5.63303 -8.42108 3.68138
H -5.22972 -8.03397 1.96241
H -3.80021 -9.72194 3.79868
H -2.9883 -9.05933 2.31247
H -2.00596 -8.35153 4.70293
H -3.19979 -2.63617 0.28974
H -1.50758 -3.09646 -0.14057
H -2.40599 -7.74738 10.28394
H -1.00668 -7.54545 9.16209
H -2.35807 -8.68689 8.74232
H 0.94729 -5.15112 6.80848
H 1.57929 -3.76183 5.85216
H 1.4192 -5.03242 3.84154
H 1.90327 -6.23716 5.01607
$end

$opt
CONSTRAINT
tors           1           2           3           4    -119.823
tors           3           4           5           6    +159.528
tors           4           5           6           7    +174.736
tors           5           6           7           8     +88.871
tors           6           7           8           9     -37.304
tors           7           8           9          10    +137.583
tors           8           9          10          11    -160.150
tors           9          10          11          12     +89.340
tors          11          12          13          14     -87.952
ENDCONSTRAINT
$end

$rem
JOBTYPE                   OPT
METHOD                    B3LYP
DFT_D                     d3_op
BASIS                     STO-3G
GEOM_OPT_MAX_CYCLES       100
GEOM_OPT_TOL_GRADIENT     300
GEOM_OPT_TOL_DISPLACEMENT 1200
GEOM_OPT_TOL_ENERGY       100
SYMMETRY                  False
THRESH                    12
SCF_CONVERGENCE           8
MAX_SUB_FILE_NUM          128
MEM_STATIC                400
MEM_TOTAL                 4000
$end
--------------------------------------------------------------

   15   -1510.1082539527      7.23E-09 Convergence criterion met
 Total energy in the final basis set = -1510.10825395
   14   -1510.1789073998      7.21E-09 Convergence criterion met
 Total energy in the final basis set = -1510.17890740
   15   -1510.2218712064      1.72E-09 Convergence criterion met
 Total energy in the final basis set = -1510.22187121
   14   -1510.2490341390      7.54E-09 Convergence criterion met
 Total energy in the final basis set = -1510.24903414
   14   -1510.2633899453      6.44E-09 Convergence criterion met
 Total energy in the final basis set = -1510.26338995
   13   -1510.2723359939      7.81E-09 Convergence criterion met
 Total energy in the final basis set = -1510.27233599
   13   -1510.2782853817      4.17E-09 Convergence criterion met
 Total energy in the final basis set = -1510.27828538
   13   -1510.2822772884      4.32E-09 Convergence criterion met
   11   -1510.2867665321      6.93E-09 Convergence criterion met
 Total energy in the final basis set = -1510.28676653
   11   -1510.2867722625      3.78E-09 Convergence criterion met
 Total energy in the final basis set = -1510.28677226
   11   -1510.2867766698      4.23E-09 Convergence criterion met
 Total energy in the final basis set = -1510.28677667
   11   -1510.2867792183      3.82E-09 Convergence criterion met
 Total energy in the final basis set = -1510.28677922
   11   -1510.2867748273      4.34E-09 Convergence criterion met
 Total energy in the final basis set = -1510.28677483
    9   -1510.2867735030      9.37E-09 Convergence criterion met
 Total energy in the final basis set = -1510.28677350

             Standard Nuclear Orientation (Angstroms)
    I     Atom           X                Y                Z
 ----------------------------------------------------------------
    1      O       2.8028739891    -0.0498469264     2.5297149196
    2      C       3.3450361429    -0.0334612536     1.4037972487
    3      C       3.1456635850     1.0300269765     0.2632866895
    4      C       2.5779712168     0.4610242637    -1.1068923609
    5      C       2.0504244209    -1.0191836243    -1.0269388099
    6      O       1.1502738360    -1.2714538361    -2.1232962305
    7      C       0.7648943088    -2.7038807406    -2.1039847515
    8      C      -0.5012216460    -3.0734682786    -1.2391858969
    9      O      -0.5516860558    -2.2649402629    -0.0011948422
   10      C      -1.9105924443    -1.8281173926     0.2199298541
   11      C      -1.9004120083    -0.6063232275     1.1826559789
   12      C      -1.7742772564     0.7601948132     0.3721203126
   13      C      -2.0462950956     0.5637246133    -1.1638534125
   14      O      -1.2131770265     0.2555694664    -2.0524670023
   15      O       4.4680423544    -0.8472805770     1.0356122708
   16      O      -3.4338558526     0.7368242877    -1.4487024142
   17      O      -2.8959986044    -2.3159765520    -0.3773897722
   18      C      -3.6978033657     0.4683297383    -2.8812571619
   19      C      -3.2266983261    -0.3566698645     2.0171476942
   20      C      -2.8203340149     0.5261060684     3.2616128737
   21      C      -2.5198736292     1.9019535089     2.5574105340
   22      C      -2.9317137199     1.5870568125     1.0614991569
   23      O      -4.0180959996     0.5838185230     1.1946410850
   24      H      -1.0278562870    -0.7166186927     1.8518731916
   25      H      -0.7519948933     1.1965475308     0.4658194071
   26      H      -3.8148690361    -1.2674346495     2.2420696795
   27      H      -3.6660105364     0.6104918136     3.9628694171
   28      H      -1.9493764084     0.1208210009     3.8007239677
   29      H      -3.1405870145     2.7130593871     2.9696530430
   30      H      -1.4598806127     2.1924683651     2.6354590982
   31      H      -3.2837452247     2.4588985644     0.4779541949
   32      O       2.3149257147    -1.8677452501    -0.1473010163
   33      C       4.6852229588    -1.8960881083     2.0554186813
   34      C       2.1165761211     2.1722731392     0.6057500998
   35      C       2.4241827325     3.4072076065    -0.3295351480
   36      C       1.8998166278     2.8750431530    -1.7191265393
   37      C       1.3480865852     1.4502753902    -1.3252267905
   38      O       0.8519119246     1.6581779481     0.0546381564
   39      H       4.1469608009     1.4620043096     0.0788040239
   40      H       3.3186653516     0.5369976649    -1.9231844455
   41      H       3.8571154739    -2.6344928992     2.0474098105
   42      H       2.0161448864     2.3888138033     1.6871992002
   43      H       1.8562258932     4.2909508979     0.0024617350
   44      H       3.4960391728     3.6609489611    -0.3469530126
   45      H       1.0899639552     3.5092663934    -2.1132417783
   46      H       2.6984032172     2.8120373088    -2.4754683102
   47      H       0.5102026534     1.0205148874    -1.9250523242
   48      H       4.7685216231    -1.4660157932     3.0744159937
   49      H       5.6307686220    -2.4002443097     1.7835101377
   50      H      -4.7737138048     0.6709122262    -3.0337041284
   51      H      -3.4795127657    -0.5879726123    -3.1400421255
   52      H      -3.0953791867     1.1258181649    -3.5408844081
   53      H      -1.4409743743    -2.9106121176    -1.8089006882
   54      H      -0.4404780247    -4.1545331998    -0.9843279514
   55      H       1.6260986790    -3.3048758848    -1.7443457427
   56      H       0.5501369639    -2.9692246746    -3.1595079984
 ----------------------------------------------------------------

    9   -1510.2867734453      5.68E-09 Convergence criterion met
 Total energy in the final basis set = -1510.28677345
 Final energy is   -1510.28677344530
 **  OPTIMIZATION CONVERGED  **

                    Orbital Energies (a.u.)
 --------------------------------------------------------------

 Alpha MOs
 -- Occupied --
-18.936 -18.933 -18.926 -18.921 -18.896 -18.879 -18.874 -18.871
-18.868 -18.865 -10.099 -10.093 -10.093 -10.092 -10.070 -10.064
-10.064 -10.059 -10.054 -10.049 -10.048 -10.046 -10.038 -10.035
-10.026 -10.022 -10.019 -10.010 -10.010 -10.009  -1.014  -1.008
 -1.003  -0.999  -0.978  -0.957  -0.937  -0.929  -0.929  -0.926
 -0.763  -0.751  -0.724  -0.715  -0.709  -0.700  -0.690  -0.655
 -0.654  -0.612  -0.593  -0.572  -0.546  -0.540  -0.535  -0.526
 -0.507  -0.501  -0.481  -0.475  -0.458  -0.454  -0.450  -0.434
 -0.429  -0.421  -0.420  -0.408  -0.408  -0.405  -0.401  -0.399
 -0.392  -0.378  -0.372  -0.365  -0.354  -0.353  -0.350  -0.348
 -0.341  -0.336  -0.330  -0.329  -0.327  -0.320  -0.317  -0.312
 -0.304  -0.300  -0.298  -0.294  -0.290  -0.277  -0.274  -0.270
 -0.267  -0.251  -0.247  -0.244  -0.242  -0.231  -0.214  -0.182
 -0.172  -0.169  -0.165  -0.155  -0.152  -0.149  -0.144  -0.142
 -0.130

          Ground-State Mulliken Net Atomic Charges

     Atom                 Charge (a.u.)
  ----------------------------------------
      1 O                    -0.218323
      2 C                     0.215833
      3 C                    -0.080674
      4 C                    -0.077334
      5 C                     0.214751
      6 O                    -0.161074
      7 C                    -0.049679
      8 C                    -0.052407
      9 O                    -0.170240
     10 C                     0.205768
     11 C                    -0.080870
     12 C                    -0.098779
     13 C                     0.205816
     14 O                    -0.223613
     15 O                    -0.171543
     16 O                    -0.158482
     17 O                    -0.213278
     18 C                    -0.126736
     19 C                     0.024759
     20 C                    -0.142352
     21 C                    -0.144953
     22 C                     0.024185
     23 O                    -0.187199
     24 H                     0.089059
     25 H                     0.123184
     26 H                     0.083668
     27 H                     0.075387
     28 H                     0.074109
     29 H                     0.074386
     30 H                     0.074660
     31 H                     0.081736
     32 O                    -0.206991
     33 C                    -0.127870
     34 C                     0.026996
     35 C                    -0.143207
     36 C                    -0.145535
     37 C                     0.013441
     38 O                    -0.198549
     39 H                     0.084012
     40 H                     0.086743
     41 H                     0.092194
     42 H                     0.089671
     43 H                     0.077176
     44 H                     0.073899
     45 H                     0.077289
     46 H                     0.073589
     47 H                     0.117361
     48 H                     0.087461
     49 H                     0.086405
     50 H                     0.092066
     51 H                     0.089521
     52 H                     0.086870
     53 H                     0.094951
     54 H                     0.082918
     55 H                     0.091560
     56 H                     0.088266
  ----------------------------------------
  Sum of atomic charges =    -0.000000

                    Cartesian Multipole Moments
 -----------------------------------------------------------------
    Charge (ESU x 10^10)
                -0.0000
    Dipole Moment (Debye)
         X       2.3769      Y       0.9805      Z      -1.4549
       Tot       2.9543
    Quadrupole Moments (Debye-Ang)
        XX    -162.5788     XY      -0.3959     YY    -149.3511
        XZ       0.1871     YZ       0.9885     ZZ    -153.6985

 Total job time:  73.47s(wall), 3502.99s(cpu)
        *  Thank you very much for using Q-Chem.  Have a nice day.  *
