 Q-Chem 5.0, Q-Chem, Inc., Pleasanton, CA (2017)
 Q-Chem 5.0.1 for Intel X86 EM64T Linux

User input:
--------------------------------------------------------------
$molecule
0  1
O -3.6057555143 -0.8073627818 1.8907243465
C -3.919307461 -0.4677283399 0.7299712674
C -3.2505245207 -0.9443931244 -0.6131650016
C -2.3493069071 0.139267113 -1.3287142348
C -2.1138326292 1.398911781 -0.427728794
O -1.0938335549 2.1911974138 -1.0273917255
C -0.9395341917 3.485488429 -0.3218843312
C 0.4009556144 3.4234253284 0.5049975131
O 0.4951406096 2.0218735113 0.9813504249
C 1.8045622767 1.4666893113 0.8048701799
C 1.6450428876 -0.0914546075 0.8234626996
C 2.3703222685 -0.8348978273 -0.3783588815
C 3.3147291572 0.0865236203 -1.2271333874
O 3.0694636618 0.5455803459 -2.3657102433
O -5.0883118154 0.2924137718 0.3883049802
O 4.5553347563 0.2600658782 -0.5407458145
O 2.8205334764 2.1561479218 0.5667086868
C 5.4223952216 1.1922467887 -1.295421603
C 2.2861142563 -0.8343325533 2.0774869966
C 1.5396169013 -2.2186325046 2.217047052
C 2.1281203038 -2.9962594038 0.9827688522
C 3.1724506605 -1.9463059167 0.4224704192
O 3.6393675658 -1.2236941459 1.6271754922
H 0.5601866157 -0.3118993471 0.7746085352
H 1.6285398065 -1.2814710335 -1.0611407961
H 2.3413566869 -0.2281344825 3.0023275133
H 1.8076402187 -2.7053078798 3.1685066383
H 0.4448213595 -2.1077452216 2.1648334368
H 2.6329519887 -3.9267115776 1.2868879538
H 1.3531031374 -3.2346436187 0.2367219176
H 4.0309974226 -2.379258255 -0.1260611194
O -2.7159019395 1.696404044 0.6289338073
C -5.7305301332 0.7984723407 1.6208272944
C -2.1845152444 -2.0995884753 -0.3728112365
C -1.9989250649 -2.8786231744 -1.7315938144
C -1.2117506543 -1.8115152251 -2.5803018412
C -0.9997280632 -0.6625091859 -1.5184261981
O -0.8910309873 -1.3842443745 -0.2282991246
H -4.0562351772 -1.279234866 -1.2903046318
H -2.7765779216 0.4691061501 -2.2932518259
H -5.0757697838 1.5273289473 2.1411962743
H -2.3796913933 -2.7211223156 0.5228331568
H -1.3998567307 -3.7901615539 -1.5745388149
H -2.9616407662 -3.1607824034 -2.1863112634
H -0.2412538767 -2.2002881631 -2.9276437927
H -1.7830197187 -1.4607772548 -3.4545812813
H -0.1200728662 -0.0126620954 -1.687395748
H -5.9722040438 -0.0243091346 2.3242482137
H -6.6620645122 1.3002363591 1.3002304127
H 6.398206406 1.189923711 -0.7762707404
H 5.0022141327 2.2188262936 -1.2880298779
H 5.5552541336 0.8689275255 -2.3481080248
H 1.288479187 3.6671069597 -0.1172278567
H 0.3639188952 4.1276334241 1.3644023021
H -1.8051973693 3.632615572 0.3578994915
H -0.9018498434 4.2887697167 -1.0860845912
$end

$rem
JOBTYPE                   OPT
METHOD                    B3LYP
DFT_D                     d3_op
BASIS                     STO-3G
GEOM_OPT_MAX_CYCLES       100
GEOM_OPT_TOL_GRADIENT     300
GEOM_OPT_TOL_DISPLACEMENT 1200
GEOM_OPT_TOL_ENERGY       100
SYMMETRY                  False
THRESH                    12
SCF_CONVERGENCE           8
MAX_SUB_FILE_NUM          128
MEM_STATIC                400
MEM_TOTAL                 4000
$end
--------------------------------------------------------------

   16   -1510.2869961016      7.03E-09 Convergence criterion met
 Total energy in the final basis set = -1510.28699610
   14   -1510.2875893232      3.24E-09 Convergence criterion met
 Total energy in the final basis set = -1510.28758932
   14   -1510.2896969197      4.97E-09 Convergence criterion met
 Total energy in the final basis set = -1510.28969692
   14   -1510.2929141581      2.71E-09 Convergence criterion met
 Total energy in the final basis set = -1510.29291416
   14   -1510.2957046018      2.38E-09 Convergence criterion met
 Total energy in the final basis set = -1510.29570460
   14   -1510.2913629585      4.26E-09 Convergence criterion met
 Total energy in the final basis set = -1510.29136296
   14   -1510.2949995239      2.68E-09 Convergence criterion met
 Total energy in the final basis set = -1510.29499952
   14   -1510.2957478926      2.98E-09 Convergence criterion met
   12   -1510.3056610265      5.33E-09 Convergence criterion met
 Total energy in the final basis set = -1510.30566103
   12   -1510.3056494468      4.02E-09 Convergence criterion met
 Total energy in the final basis set = -1510.30564945
   11   -1510.3056794100      9.71E-09 Convergence criterion met
 Total energy in the final basis set = -1510.30567941
   10   -1510.3056792724      6.70E-09 Convergence criterion met
 Total energy in the final basis set = -1510.30567927
   10   -1510.3056803506      4.30E-09 Convergence criterion met
 Total energy in the final basis set = -1510.30568035
    9   -1510.3056804976      8.81E-09 Convergence criterion met
 Total energy in the final basis set = -1510.30568050

             Standard Nuclear Orientation (Angstroms)
    I     Atom           X                Y                Z
 ----------------------------------------------------------------
    1      O      -1.8787182546    -0.8846864721     1.3084572588
    2      C      -2.8128230934    -0.7116617726     0.4883128462
    3      C      -2.7527678829    -0.8590273886    -1.0780252157
    4      C      -1.8513112428     0.2544837225    -1.7550270985
    5      C      -1.6903684072     1.4917858076    -0.8071331244
    6      O      -0.7867773114     2.4529279460    -1.3579050267
    7      C      -0.8134819486     3.6949495384    -0.5387192845
    8      C       0.2320132935     3.6351166614     0.6423642429
    9      O       0.1594829971     2.3021995415     1.2815986275
   10      C       1.2102245625     1.4732195112     0.7634998105
   11      C       0.9468308436    -0.0099746118     1.1418774374
   12      C       1.7881697190    -1.0075615786     0.2431658711
   13      C       2.6309975625    -0.2859175868    -0.8663323957
   14      O       2.2081453534     0.0952187116    -1.9902158136
   15      O      -4.1718999255    -0.4866704823     0.8691805089
   16      O       4.0033139678    -0.2114970083    -0.4874729240
   17      O       2.1741178943     1.9205115718     0.0972550378
   18      C       4.7685832732     0.5289960872    -1.5155650806
   19      C       1.4901797658    -0.3837745228     2.5882401704
   20      C       0.8446103136    -1.7713053633     2.9805909914
   21      C       1.6936000666    -2.7592941296     2.0978791133
   22      C       2.6498083807    -1.7517685991     1.3426258934
   23      O       2.9159803490    -0.7031927376     2.3568259261
   24      H      -0.1434974192    -0.2357289246     1.0734362975
   25      H       1.0714073560    -1.6799142865    -0.2722393447
   26      H       1.3846373013     0.4182254718     3.3445111792
   27      H       0.9741211808    -1.9721926904     4.0559914400
   28      H      -0.2290682722    -1.7967390140     2.7317233054
   29      H       2.2784674195    -3.4571171790     2.7184470588
   30      H       1.0737559027    -3.3398517539     1.3962102524
   31      H       3.6004728709    -2.1820884153     0.9745041371
   32      O      -2.3547262329     1.6759383953     0.2410388336
   33      C      -4.2570520971    -0.2964384106     2.3354147539
   34      C      -1.9372878860    -2.1613990121    -1.4581397075
   35      C      -1.9957661491    -2.3825194604    -3.0223042986
   36      C      -0.9426571970    -1.3229917239    -3.5238523044
   37      C      -0.5651804211    -0.5946205555    -2.1749322509
   38      O      -0.5475640128    -1.7246284925    -1.2154715645
   39      H      -3.7837122528    -0.8580438534    -1.4722690902
   40      H      -2.3432516089     0.6355060746    -2.6695621886
   41      H      -3.6736326148     0.5907589399     2.6556841866
   42      H      -2.1803628389    -3.0505468232    -0.8443563029
   43      H      -1.6964254948    -3.4107261833    -3.2799662363
   44      H      -3.0057609512    -2.1987510882    -3.4226738661
   45      H      -0.0524322830    -1.8148679557    -3.9476959053
   46      H      -1.3569490028    -0.6337859016    -4.2768195533
   47      H       0.4451576242    -0.0982347833    -2.1574302685
   48      H      -3.8840121128    -1.1843123637     2.8856160113
   49      H      -5.3277107290    -0.1406660675     2.5621759580
   50      H       5.8200754762     0.5250151059    -1.1744003416
   51      H       4.4071255115     1.5739015662    -1.6025078495
   52      H       4.6951748229     0.0435583933    -2.5101975190
   53      H       1.2621140784     3.7896315997     0.2560269430
   54      H      -0.0176729370     4.3996010581     1.4053062519
   55      H      -1.8327988280     3.8447757538    -0.1259089282
   56      H      -0.5568769719     4.5234220063    -1.2295205719
 ----------------------------------------------------------------

    9   -1510.3056809643      6.81E-09 Convergence criterion met
 Total energy in the final basis set = -1510.30568096
 Final energy is   -1510.30568096429
 **  OPTIMIZATION CONVERGED  **

                    Orbital Energies (a.u.)
 --------------------------------------------------------------

 Alpha MOs
 -- Occupied --
-18.945 -18.932 -18.931 -18.925 -18.887 -18.885 -18.875 -18.869
-18.868 -18.857 -10.107 -10.100 -10.093 -10.089 -10.076 -10.069
-10.061 -10.060 -10.052 -10.043 -10.040 -10.038 -10.037 -10.035
-10.018 -10.012 -10.009 -10.007 -10.002  -9.999  -1.024  -1.009
 -1.005  -0.997  -0.970  -0.952  -0.944  -0.933  -0.931  -0.921
 -0.762  -0.745  -0.722  -0.715  -0.702  -0.697  -0.686  -0.660
 -0.648  -0.615  -0.591  -0.569  -0.543  -0.535  -0.530  -0.520
 -0.508  -0.499  -0.486  -0.474  -0.459  -0.453  -0.448  -0.433
 -0.430  -0.422  -0.414  -0.413  -0.409  -0.405  -0.399  -0.399
 -0.392  -0.379  -0.368  -0.365  -0.359  -0.354  -0.351  -0.347
 -0.343  -0.340  -0.327  -0.322  -0.317  -0.315  -0.311  -0.308
 -0.300  -0.297  -0.294  -0.288  -0.285  -0.278  -0.273  -0.265
 -0.264  -0.255  -0.249  -0.245  -0.236  -0.228  -0.212  -0.195
 -0.174  -0.168  -0.163  -0.159  -0.154  -0.148  -0.143  -0.138
 -0.126

          Ground-State Mulliken Net Atomic Charges

     Atom                 Charge (a.u.)
  ----------------------------------------
      1 O                    -0.225954
      2 C                     0.222739
      3 C                    -0.079918
      4 C                    -0.081591
      5 C                     0.212273
      6 O                    -0.165399
      7 C                    -0.051629
      8 C                    -0.055831
      9 O                    -0.170749
     10 C                     0.209600
     11 C                    -0.094354
     12 C                    -0.095696
     13 C                     0.220994
     14 O                    -0.230024
     15 O                    -0.167323
     16 O                    -0.163369
     17 O                    -0.213077
     18 C                    -0.126196
     19 C                     0.025501
     20 C                    -0.146462
     21 C                    -0.143484
     22 C                     0.023926
     23 O                    -0.193013
     24 H                     0.113985
     25 H                     0.110154
     26 H                     0.078785
     27 H                     0.071053
     28 H                     0.086611
     29 H                     0.072127
     30 H                     0.073661
     31 H                     0.083724
     32 O                    -0.207791
     33 C                    -0.127749
     34 C                     0.026844
     35 C                    -0.145535
     36 C                    -0.142904
     37 C                     0.005284
     38 O                    -0.197185
     39 H                     0.085881
     40 H                     0.085770
     41 H                     0.094668
     42 H                     0.081355
     43 H                     0.076664
     44 H                     0.072325
     45 H                     0.077878
     46 H                     0.071553
     47 H                     0.120494
     48 H                     0.087564
     49 H                     0.088895
     50 H                     0.088398
     51 H                     0.093641
     52 H                     0.086462
     53 H                     0.101866
     54 H                     0.088598
     55 H                     0.094872
     56 H                     0.091088
  ----------------------------------------
  Sum of atomic charges =    -0.000000

                    Cartesian Multipole Moments
 -----------------------------------------------------------------
    Charge (ESU x 10^10)
                -0.0000
    Dipole Moment (Debye)
         X      -2.5933      Y       0.5283      Z      -1.2489
       Tot       2.9264
    Quadrupole Moments (Debye-Ang)
        XX    -157.4666     XY       0.7480     YY    -146.4690
        XZ      -3.3575     YZ       1.1977     ZZ    -156.9677

 Total job time:  116.17s(wall), 5544.19s(cpu)
        *  Thank you very much for using Q-Chem.  Have a nice day.  *
