 Q-Chem 5.0, Q-Chem, Inc., Pleasanton, CA (2017)
 Q-Chem 5.0.1 for Intel X86 EM64T Linux

User input:
--------------------------------------------------------------
$molecule
0  1
O -3.94934 -3.66094 2.70899
C -3.26408 -4.56952 2.26188
C -3.36658 -6.02376 2.66595
C -2.23991 -6.5896 3.54589
C -1.22934 -5.59387 4.07064
O -0.44989 -6.183 5.025
C 0.63764 -5.35634 5.45298
C 0.36555 -4.81225 6.85158
O -1.03503 -4.53306 7.00419
C -1.59228 -4.96251 8.16358
C -3.09316 -5.10589 8.07731
C -3.64672 -6.44125 8.59564
C -2.69467 -7.2704 9.43397
O -2.10895 -8.27493 9.0566
O -2.31663 -4.2795 1.33059
O -2.40465 -6.8017 10.67976
O -0.96048 -5.0663 9.20747
C -1.53613 -7.40967 11.56217
C -3.88543 -4.12296 8.96653
C -5.28249 -3.92236 8.37867
C -5.90194 -5.28155 8.64927
C -4.78989 -5.92735 9.4867
O -4.17901 -4.84001 10.14102
H -3.39097 -4.91168 7.0228
H -3.97518 -7.08704 7.7516
H -3.37571 -3.14432 9.10279
H -5.78986 -3.16611 9.02011
H -5.32547 -3.5856 7.32045
H -6.82763 -5.13205 9.24771
H -6.12224 -5.89038 7.74532
H -5.19757 -6.72802 10.14247
O -1.17561 -4.4059 3.77838
C -2.07497 -3.01497 0.83582
C -4.58425 -6.27538 3.5831
C -4.99058 -7.74746 3.53012
C -3.86402 -8.37607 4.31758
C -3.08285 -7.12512 4.72765
O -4.074 -6.14221 4.8826
H -3.51989 -6.60119 1.72687
H -1.66832 -7.40163 3.04439
H -1.77208 -2.33301 1.65895
H -5.46231 -5.6394 3.33504
H -5.93262 -7.8554 4.11437
H -5.14314 -8.15506 2.50767
H -4.29686 -8.86678 5.2181
H -3.23439 -9.09984 3.75632
H -2.48347 -7.35036 5.63607
H -2.98484 -2.61951 0.33574
H -1.25247 -3.06604 0.09332
H -1.49184 -6.81399 12.49681
H -0.51726 -7.46111 11.12221
H -1.89307 -8.43307 11.80595
H 0.68507 -5.61738 7.55418
H 0.99138 -3.91614 7.05186
H 0.81255 -4.47087 4.80216
H 1.59917 -5.91115 5.4152
$end

$opt
CONSTRAINT
tors           1           2           3           4    -106.863
tors           3           4           5           6    +168.647
tors           4           5           6           7    +172.731
tors           5           6           7           8    +106.804
tors           6           7           8           9     -35.974
tors           7           8           9          10    +134.770
tors           8           9          10          11    -159.160
tors           9          10          11          12    +130.991
tors          11          12          13          14    -104.599
ENDCONSTRAINT
$end

$rem
JOBTYPE                   OPT
METHOD                    B3LYP
DFT_D                     d3_op
BASIS                     STO-3G
GEOM_OPT_MAX_CYCLES       100
GEOM_OPT_TOL_GRADIENT     300
GEOM_OPT_TOL_DISPLACEMENT 1200
GEOM_OPT_TOL_ENERGY       100
SYMMETRY                  False
THRESH                    12
SCF_CONVERGENCE           8
MAX_SUB_FILE_NUM          128
MEM_STATIC                400
MEM_TOTAL                 4000
$end
--------------------------------------------------------------

   15   -1510.1555349763      6.91E-09 Convergence criterion met
 Total energy in the final basis set = -1510.15553498
   14   -1510.2251181450      5.17E-09 Convergence criterion met
 Total energy in the final basis set = -1510.22511814
   13   -1510.2623835500      8.23E-09 Convergence criterion met
 Total energy in the final basis set = -1510.26238355
   14   -1510.2779039295      2.95E-09 Convergence criterion met
 Total energy in the final basis set = -1510.27790393
   14   -1510.2787247310      3.84E-09 Convergence criterion met
 Total energy in the final basis set = -1510.27872473
   14   -1510.2841875454      1.86E-09 Convergence criterion met
 Total energy in the final basis set = -1510.28418755
   13   -1510.2856158962      4.27E-09 Convergence criterion met
 Total energy in the final basis set = -1510.28561590
   13   -1510.2866570678      4.13E-09 Convergence criterion met
   10   -1510.2869437167      4.91E-09 Convergence criterion met
 Total energy in the final basis set = -1510.28694372
   11   -1510.2869845303      5.26E-09 Convergence criterion met
 Total energy in the final basis set = -1510.28698453
   10   -1510.2870090276      7.08E-09 Convergence criterion met
 Total energy in the final basis set = -1510.28700903
   10   -1510.2870230371      6.40E-09 Convergence criterion met
 Total energy in the final basis set = -1510.28702304
   10   -1510.2870298479      7.02E-09 Convergence criterion met
 Total energy in the final basis set = -1510.28702985
    9   -1510.2870220666      8.88E-09 Convergence criterion met
 Total energy in the final basis set = -1510.28702207

             Standard Nuclear Orientation (Angstroms)
    I     Atom           X                Y                Z
 ----------------------------------------------------------------
    1      O      -3.6057555143    -0.8073627818     1.8907243465
    2      C      -3.9193074610    -0.4677283399     0.7299712674
    3      C      -3.2505245207    -0.9443931244    -0.6131650016
    4      C      -2.3493069071     0.1392671130    -1.3287142348
    5      C      -2.1138326292     1.3989117810    -0.4277287940
    6      O      -1.0938335549     2.1911974138    -1.0273917255
    7      C      -0.9395341917     3.4854884290    -0.3218843312
    8      C       0.4009556144     3.4234253284     0.5049975131
    9      O       0.4951406096     2.0218735113     0.9813504249
   10      C       1.8045622767     1.4666893113     0.8048701799
   11      C       1.6450428876    -0.0914546075     0.8234626996
   12      C       2.3703222685    -0.8348978273    -0.3783588815
   13      C       3.3147291572     0.0865236203    -1.2271333874
   14      O       3.0694636618     0.5455803459    -2.3657102433
   15      O      -5.0883118154     0.2924137718     0.3883049802
   16      O       4.5553347563     0.2600658782    -0.5407458145
   17      O       2.8205334764     2.1561479218     0.5667086868
   18      C       5.4223952216     1.1922467887    -1.2954216030
   19      C       2.2861142563    -0.8343325533     2.0774869966
   20      C       1.5396169013    -2.2186325046     2.2170470520
   21      C       2.1281203038    -2.9962594038     0.9827688522
   22      C       3.1724506605    -1.9463059167     0.4224704192
   23      O       3.6393675658    -1.2236941459     1.6271754922
   24      H       0.5601866157    -0.3118993471     0.7746085352
   25      H       1.6285398065    -1.2814710335    -1.0611407961
   26      H       2.3413566869    -0.2281344825     3.0023275133
   27      H       1.8076402187    -2.7053078798     3.1685066383
   28      H       0.4448213595    -2.1077452216     2.1648334368
   29      H       2.6329519887    -3.9267115776     1.2868879538
   30      H       1.3531031374    -3.2346436187     0.2367219176
   31      H       4.0309974226    -2.3792582550    -0.1260611194
   32      O      -2.7159019395     1.6964040440     0.6289338073
   33      C      -5.7305301332     0.7984723407     1.6208272944
   34      C      -2.1845152444    -2.0995884753    -0.3728112365
   35      C      -1.9989250649    -2.8786231744    -1.7315938144
   36      C      -1.2117506543    -1.8115152251    -2.5803018412
   37      C      -0.9997280632    -0.6625091859    -1.5184261981
   38      O      -0.8910309873    -1.3842443745    -0.2282991246
   39      H      -4.0562351772    -1.2792348660    -1.2903046318
   40      H      -2.7765779216     0.4691061501    -2.2932518259
   41      H      -5.0757697838     1.5273289473     2.1411962743
   42      H      -2.3796913933    -2.7211223156     0.5228331568
   43      H      -1.3998567307    -3.7901615539    -1.5745388149
   44      H      -2.9616407662    -3.1607824034    -2.1863112634
   45      H      -0.2412538767    -2.2002881631    -2.9276437927
   46      H      -1.7830197187    -1.4607772548    -3.4545812813
   47      H      -0.1200728662    -0.0126620954    -1.6873957480
   48      H      -5.9722040438    -0.0243091346     2.3242482137
   49      H      -6.6620645122     1.3002363591     1.3002304127
   50      H       6.3982064060     1.1899237110    -0.7762707404
   51      H       5.0022141327     2.2188262936    -1.2880298779
   52      H       5.5552541336     0.8689275255    -2.3481080248
   53      H       1.2884791870     3.6671069597    -0.1172278567
   54      H       0.3639188952     4.1276334241     1.3644023021
   55      H      -1.8051973693     3.6326155720     0.3578994915
   56      H      -0.9018498434     4.2887697167    -1.0860845912
 ----------------------------------------------------------------

    9   -1510.2870222977      7.87E-09 Convergence criterion met
 Total energy in the final basis set = -1510.28702230
 Final energy is   -1510.28702229773
 **  OPTIMIZATION CONVERGED  **

                    Orbital Energies (a.u.)
 --------------------------------------------------------------

 Alpha MOs
 -- Occupied --
-18.944 -18.927 -18.924 -18.921 -18.896 -18.890 -18.879 -18.874
-18.861 -18.859 -10.111 -10.096 -10.092 -10.087 -10.078 -10.073
-10.065 -10.063 -10.055 -10.052 -10.051 -10.050 -10.045 -10.036
-10.027 -10.026 -10.024 -10.022 -10.010 -10.008  -1.026  -1.007
 -0.999  -0.998  -0.978  -0.960  -0.949  -0.931  -0.926  -0.923
 -0.768  -0.754  -0.732  -0.719  -0.710  -0.705  -0.692  -0.656
 -0.649  -0.619  -0.596  -0.575  -0.550  -0.543  -0.538  -0.528
 -0.513  -0.505  -0.488  -0.478  -0.462  -0.461  -0.457  -0.437
 -0.429  -0.424  -0.420  -0.411  -0.407  -0.404  -0.401  -0.400
 -0.396  -0.382  -0.372  -0.366  -0.358  -0.357  -0.349  -0.343
 -0.340  -0.337  -0.335  -0.331  -0.330  -0.323  -0.317  -0.314
 -0.311  -0.305  -0.300  -0.296  -0.293  -0.279  -0.276  -0.271
 -0.270  -0.255  -0.247  -0.246  -0.242  -0.238  -0.223  -0.185
 -0.173  -0.167  -0.165  -0.164  -0.155  -0.151  -0.143  -0.139
 -0.134

          Ground-State Mulliken Net Atomic Charges

     Atom                 Charge (a.u.)
  ----------------------------------------
      1 O                    -0.218999
      2 C                     0.215774
      3 C                    -0.082146
      4 C                    -0.076246
      5 C                     0.222373
      6 O                    -0.170402
      7 C                    -0.050618
      8 C                    -0.050381
      9 O                    -0.176025
     10 C                     0.208224
     11 C                    -0.087639
     12 C                    -0.080509
     13 C                     0.206105
     14 O                    -0.224090
     15 O                    -0.175422
     16 O                    -0.159705
     17 O                    -0.212288
     18 C                    -0.126474
     19 C                     0.026352
     20 C                    -0.142587
     21 C                    -0.144622
     22 C                     0.026874
     23 O                    -0.185598
     24 H                     0.105007
     25 H                     0.083820
     26 H                     0.081805
     27 H                     0.074827
     28 H                     0.081468
     29 H                     0.074356
     30 H                     0.075085
     31 H                     0.082080
     32 O                    -0.205346
     33 C                    -0.128289
     34 C                     0.024617
     35 C                    -0.143318
     36 C                    -0.144665
     37 C                     0.022637
     38 O                    -0.195895
     39 H                     0.084860
     40 H                     0.088839
     41 H                     0.091451
     42 H                     0.090013
     43 H                     0.077599
     44 H                     0.075253
     45 H                     0.078935
     46 H                     0.076037
     47 H                     0.094445
     48 H                     0.087236
     49 H                     0.085996
     50 H                     0.089664
     51 H                     0.090647
     52 H                     0.086396
     53 H                     0.095835
     54 H                     0.086099
     55 H                     0.100652
     56 H                     0.089901
  ----------------------------------------
  Sum of atomic charges =     0.000000

                    Cartesian Multipole Moments
 -----------------------------------------------------------------
    Charge (ESU x 10^10)
                 0.0000
    Dipole Moment (Debye)
         X      -2.3364      Y       0.1598      Z      -2.0202
       Tot       3.0929
    Quadrupole Moments (Debye-Ang)
        XX    -160.2235     XY      -1.4996     YY    -145.9471
        XZ       0.8752     YZ       3.6209     ZZ    -162.5807

 Total job time:  54.97s(wall), 2619.27s(cpu)
        *  Thank you very much for using Q-Chem.  Have a nice day.  *
