 Q-Chem 5.0, Q-Chem, Inc., Pleasanton, CA (2017)
 Q-Chem 5.0.1 for Intel X86 EM64T Linux

User input:
--------------------------------------------------------------
$molecule
0  1
O -3.94934 -3.66094 2.70899
C -3.26408 -4.56952 2.26188
C -3.36658 -6.02376 2.66595
C -2.14494 -6.64791 3.36013
C -1.02464 -5.70223 3.73258
O -0.24853 -6.26304 4.70652
C 0.88357 -5.45987 5.05655
C 0.4242 -4.09845 5.56806
O -0.54727 -3.54032 4.66939
C -1.50521 -2.77471 5.24848
C -2.63608 -2.43528 4.3069
C -4.00026 -2.22934 4.98135
C -3.97213 -2.03847 6.4845
O -4.1738 -2.91358 7.31401
O -2.45708 -4.41059 1.17516
O -3.59939 -0.82461 6.99153
O -1.31481 -2.20624 6.31696
C -3.49992 -0.52218 8.3344
C -2.48153 -0.93376 3.80682
C -3.24303 -0.6553 2.5038
C -4.67361 -0.76601 2.96821
C -4.42783 -0.83375 4.4673
O -3.23515 -0.12117 4.65682
H -2.21102 -2.78694 3.36858
H -4.73712 -3.03666 4.79261
H -1.41934 -0.61762 3.69318
H -3.03613 0.41577 2.26966
H -3.03265 -1.19694 1.58665
H -5.21046 0.1599 2.66438
H -5.25006 -1.65027 2.63144
H -5.31549 -0.43952 5.01353
O -0.50581 -5.06848 2.8167
C -2.14091 -3.27805 0.47295
C -4.44952 -6.23925 3.746
C -4.92924 -7.6887 3.72654
C -3.72845 -8.38609 4.3205
C -2.83898 -7.18044 4.64165
O -3.74921 -6.15915 4.95952
H -3.66852 -6.58387 1.75201
H -1.69133 -7.47631 2.77131
H -1.51939 -2.60862 1.09946
H -5.32453 -5.5609 3.64129
H -5.7762 -7.76796 4.44549
H -5.25488 -8.06378 2.73248
H -4.04716 -8.89112 5.25981
H -3.22032 -9.11465 3.65238
H -2.13749 -7.46606 5.45385
H -3.0633 -2.80086 0.08138
H -1.51484 -3.56721 -0.39562
H -3.17926 0.53377 8.446
H -2.74607 -1.178 8.81992
H -4.4862 -0.65123 8.82906
H -0.03616 -4.29433 6.56514
H 1.28908 -3.41341 5.69857
H 1.53537 -5.3232 4.1643
H 1.49221 -5.97102 5.83215
$end

$opt
CONSTRAINT
tors           1           2           3           4    -115.949
tors           3           4           5           6    +159.528
tors           4           5           6           7    +176.454
tors           5           6           7           8     +59.803
tors           6           7           8           9     -48.282
tors           7           8           9          10    +147.189
tors           8           9          10          11    -169.076
tors           9          10          11          12    +150.446
tors          11          12          13          14     -97.503
ENDCONSTRAINT
$end

$rem
JOBTYPE                   OPT
METHOD                    B3LYP
DFT_D                     d3_op
BASIS                     STO-3G
GEOM_OPT_MAX_CYCLES       100
GEOM_OPT_TOL_GRADIENT     300
GEOM_OPT_TOL_DISPLACEMENT 1200
GEOM_OPT_TOL_ENERGY       100
SYMMETRY                  False
THRESH                    12
SCF_CONVERGENCE           8
MAX_SUB_FILE_NUM          128
MEM_STATIC                400
MEM_TOTAL                 4000
$end
--------------------------------------------------------------

   16   -1510.0509700500      3.03E-09 Convergence criterion met
 Total energy in the final basis set = -1510.05097005
   15   -1510.0958497107      9.50E-09 Convergence criterion met
 Total energy in the final basis set = -1510.09584971
   14   -1510.1589964239      5.38E-09 Convergence criterion met
 Total energy in the final basis set = -1510.15899642
    2   -1510.1589964238      1.90E-09 Convergence criterion met
 Total energy in the final basis set = -1510.15899642
   14   -1510.2021378204      5.09E-09 Convergence criterion met
 Total energy in the final basis set = -1510.20213782
   14   -1510.2297020806      2.77E-09 Convergence criterion met
 Total energy in the final basis set = -1510.22970208
   14   -1510.2467547173      1.83E-09 Convergence criterion met
 Total energy in the final basis set = -1510.24675472
   13   -1510.2569679523      7.43E-09 Convergence criterion met
   11   -1510.2820250092      6.44E-09 Convergence criterion met
 Total energy in the final basis set = -1510.28202501
   11   -1510.2820568050      4.52E-09 Convergence criterion met
 Total energy in the final basis set = -1510.28205681
   11   -1510.2820685171      2.06E-09 Convergence criterion met
 Total energy in the final basis set = -1510.28206852
   11   -1510.2820780163      1.24E-09 Convergence criterion met
 Total energy in the final basis set = -1510.28207802
   10   -1510.2820815466      9.50E-09 Convergence criterion met
 Total energy in the final basis set = -1510.28208155
    9   -1510.2820836202      8.40E-09 Convergence criterion met
 Total energy in the final basis set = -1510.28208362

             Standard Nuclear Orientation (Angstroms)
    I     Atom           X                Y                Z
 ----------------------------------------------------------------
    1      O      -0.6097491349    -2.1908283566    -0.0607857088
    2      C      -1.8125444543    -1.9829209800     0.2303771654
    3      C      -2.8729782491    -1.2047537770    -0.6365309646
    4      C      -3.4154075229     0.1210242778     0.0338136044
    5      C      -2.3937521974     0.5837812649     1.1364847119
    6      O      -2.5800020677     1.9657915609     1.4205763966
    7      C      -1.7161328505     2.4889789184     2.5144510385
    8      C      -0.1449194884     2.3923080587     2.3292194850
    9      O       0.2994020336     1.0553047004     1.8950881719
   10      C       1.4531510852     1.1409895190     1.0464879100
   11      C       1.6726818914    -0.2711521419     0.4209298670
   12      C       2.3514471816    -0.2304789036    -1.0117307791
   13      C       2.8365663925     1.2020400898    -1.4431319020
   14      O       2.2184541360     2.0040481435    -2.1772543050
   15      O      -2.5235475631    -2.6936355665     1.2539862205
   16      O       4.1569912226     1.4313029122    -0.9364113666
   17      O       2.0662244540     2.2062281522     0.8100531121
   18      C       4.5776298639     2.8130782483    -1.2534987635
   19      C       2.6792566415    -1.2158906146     1.2124757096
   20      C       2.3504280448    -2.6943737962     0.7612567174
   21      C       2.9706274606    -2.7059493551    -0.6844743742
   22      C       3.5541923048    -1.2404761627    -0.7868015362
   23      O       3.9951019048    -0.9422368527     0.5964118724
   24      H       0.6847130375    -0.7714804865     0.3483729247
   25      H       1.6417032665    -0.5880378651    -1.7787416924
   26      H       2.7150227766    -1.0472884102     2.3062467488
   27      H       2.8401867609    -3.4260245463     1.4231016944
   28      H       1.2614498328    -2.8726052109     0.7423207752
   29      H       3.7777895410    -3.4499836694    -0.7774120809
   30      H       2.2150007645    -2.9024051845    -1.4618127956
   31      H       4.3965586219    -1.1160635610    -1.4939123168
   32      O      -1.6592473831    -0.2048134581     1.7744269178
   33      C      -1.5666888817    -3.4366608556     2.1027596527
   34      C      -2.3152012336    -0.6472161104    -2.0131003266
   35      C      -3.5418820629    -0.5253227868    -2.9947556786
   36      C      -4.3204991942     0.6764833026    -2.3384442036
   37      C      -3.3191820357     1.1146576564    -1.1964491214
   38      O      -1.9782232432     0.7690010853    -1.7328327280
   39      H      -3.7085505746    -1.9064836416    -0.8110617468
   40      H      -4.4271410225     0.0193949046     0.4662569632
   41      H      -0.8882655752    -2.7424449058     2.6397820481
   42      H      -1.4294045364    -1.1885788213    -2.3985142750
   43      H      -3.1964594331    -0.2717632395    -4.0098819011
   44      H      -4.1387379756    -1.4500194698    -3.0419566358
   45      H      -4.4758413171     1.4997833985    -3.0531470604
   46      H      -5.2987785513     0.3736418124    -1.9311535303
   47      H      -3.3586717991     2.1834282362    -0.9105937419
   48      H      -0.9532363488    -4.1443617699     1.5080779879
   49      H      -2.1761144719    -3.9988255598     2.8339090030
   50      H       5.6149215755     2.9097260345    -0.8835557821
   51      H       3.9297567854     3.5533250450    -0.7407869554
   52      H       4.5496118419     3.0127817790    -2.3444441892
   53      H       0.2079796768     3.1459482473     1.5909445139
   54      H       0.3088353324     2.6496859772     3.3129433279
   55      H      -1.9920557828     1.9781626343     3.4639112089
   56      H      -1.9876496350     3.5607956131     2.5965678351
 ----------------------------------------------------------------

    9   -1510.2820839942      7.89E-09 Convergence criterion met
 Total energy in the final basis set = -1510.28208399
 Final energy is   -1510.28208399418
 **  OPTIMIZATION CONVERGED  **

                    Orbital Energies (a.u.)
 --------------------------------------------------------------

 Alpha MOs
 -- Occupied --
-18.951 -18.931 -18.927 -18.911 -18.897 -18.887 -18.873 -18.872
-18.866 -18.847 -10.113 -10.101 -10.093 -10.087 -10.077 -10.075
-10.061 -10.059 -10.059 -10.044 -10.044 -10.044 -10.043 -10.036
-10.022 -10.020 -10.018 -10.014 -10.003  -9.997  -1.027  -1.007
 -1.004  -0.987  -0.971  -0.954  -0.952  -0.933  -0.931  -0.912
 -0.765  -0.747  -0.730  -0.719  -0.705  -0.700  -0.688  -0.659
 -0.641  -0.621  -0.594  -0.572  -0.547  -0.539  -0.531  -0.522
 -0.512  -0.499  -0.487  -0.472  -0.460  -0.459  -0.448  -0.433
 -0.431  -0.428  -0.417  -0.410  -0.406  -0.405  -0.398  -0.395
 -0.391  -0.385  -0.371  -0.366  -0.358  -0.351  -0.347  -0.341
 -0.340  -0.336  -0.329  -0.327  -0.324  -0.317  -0.314  -0.310
 -0.307  -0.303  -0.296  -0.291  -0.287  -0.276  -0.275  -0.266
 -0.261  -0.257  -0.249  -0.247  -0.235  -0.230  -0.217  -0.193
 -0.172  -0.171  -0.162  -0.152  -0.150  -0.146  -0.142  -0.129
 -0.126

          Ground-State Mulliken Net Atomic Charges

     Atom                 Charge (a.u.)
  ----------------------------------------
      1 O                    -0.231130
      2 C                     0.223029
      3 C                    -0.082446
      4 C                    -0.075610
      5 C                     0.221671
      6 O                    -0.167788
      7 C                    -0.046366
      8 C                    -0.052013
      9 O                    -0.166391
     10 C                     0.210527
     11 C                    -0.088092
     12 C                    -0.079828
     13 C                     0.210470
     14 O                    -0.222467
     15 O                    -0.172678
     16 O                    -0.166562
     17 O                    -0.212041
     18 C                    -0.126856
     19 C                     0.025022
     20 C                    -0.149628
     21 C                    -0.144293
     22 C                     0.026282
     23 O                    -0.188775
     24 H                     0.106815
     25 H                     0.084407
     26 H                     0.078052
     27 H                     0.069356
     28 H                     0.089209
     29 H                     0.072546
     30 H                     0.073609
     31 H                     0.082392
     32 O                    -0.190840
     33 C                    -0.128522
     34 C                     0.022860
     35 C                    -0.142089
     36 C                    -0.145166
     37 C                     0.023063
     38 O                    -0.190151
     39 H                     0.084558
     40 H                     0.089095
     41 H                     0.092573
     42 H                     0.088343
     43 H                     0.079325
     44 H                     0.073253
     45 H                     0.079278
     46 H                     0.073107
     47 H                     0.089266
     48 H                     0.086636
     49 H                     0.087974
     50 H                     0.086017
     51 H                     0.090934
     52 H                     0.084271
     53 H                     0.096799
     54 H                     0.085005
     55 H                     0.087834
     56 H                     0.096157
  ----------------------------------------
  Sum of atomic charges =    -0.000000

                    Cartesian Multipole Moments
 -----------------------------------------------------------------
    Charge (ESU x 10^10)
                 0.0000
    Dipole Moment (Debye)
         X      -4.0146      Y      -0.5645      Z       1.3078
       Tot       4.2598
    Quadrupole Moments (Debye-Ang)
        XX    -156.1365     XY      -1.3157     YY    -152.3027
        XZ      -1.3192     YZ       7.1740     ZZ    -152.9324

 Total job time:  86.83s(wall), 4136.42s(cpu)
        *  Thank you very much for using Q-Chem.  Have a nice day.  *
