 Q-Chem 5.0, Q-Chem, Inc., Pleasanton, CA (2017)
 Q-Chem 5.0.1 for Intel X86 EM64T Linux

User input:
--------------------------------------------------------------
$molecule
0  1
O -0.6097491349 -2.1908283566 -0.0607857088
C -1.8125444543 -1.98292098 0.2303771654
C -2.8729782491 -1.204753777 -0.6365309646
C -3.4154075229 0.1210242778 0.0338136044
C -2.3937521974 0.5837812649 1.1364847119
O -2.5800020677 1.9657915609 1.4205763966
C -1.7161328505 2.4889789184 2.5144510385
C -0.1449194884 2.3923080587 2.329219485
O 0.2994020336 1.0553047004 1.8950881719
C 1.4531510852 1.140989519 1.04648791
C 1.6726818914 -0.2711521419 0.420929867
C 2.3514471816 -0.2304789036 -1.0117307791
C 2.8365663925 1.2020400898 -1.443131902
O 2.218454136 2.0040481435 -2.177254305
O -2.5235475631 -2.6936355665 1.2539862205
O 4.1569912226 1.4313029122 -0.9364113666
O 2.066224454 2.2062281522 0.8100531121
C 4.5776298639 2.8130782483 -1.2534987635
C 2.6792566415 -1.2158906146 1.2124757096
C 2.3504280448 -2.6943737962 0.7612567174
C 2.9706274606 -2.7059493551 -0.6844743742
C 3.5541923048 -1.2404761627 -0.7868015362
O 3.9951019048 -0.9422368527 0.5964118724
H 0.6847130375 -0.7714804865 0.3483729247
H 1.6417032665 -0.5880378651 -1.7787416924
H 2.7150227766 -1.0472884102 2.3062467488
H 2.8401867609 -3.4260245463 1.4231016944
H 1.2614498328 -2.8726052109 0.7423207752
H 3.777789541 -3.4499836694 -0.7774120809
H 2.2150007645 -2.9024051845 -1.4618127956
H 4.3965586219 -1.116063561 -1.4939123168
O -1.6592473831 -0.2048134581 1.7744269178
C -1.5666888817 -3.4366608556 2.1027596527
C -2.3152012336 -0.6472161104 -2.0131003266
C -3.5418820629 -0.5253227868 -2.9947556786
C -4.3204991942 0.6764833026 -2.3384442036
C -3.3191820357 1.1146576564 -1.1964491214
O -1.9782232432 0.7690010853 -1.732832728
H -3.7085505746 -1.9064836416 -0.8110617468
H -4.4271410225 0.0193949046 0.4662569632
H -0.8882655752 -2.7424449058 2.6397820481
H -1.4294045364 -1.1885788213 -2.398514275
H -3.1964594331 -0.2717632395 -4.0098819011
H -4.1387379756 -1.4500194698 -3.0419566358
H -4.4758413171 1.4997833985 -3.0531470604
H -5.2987785513 0.3736418124 -1.9311535303
H -3.3586717991 2.1834282362 -0.9105937419
H -0.9532363488 -4.1443617699 1.5080779879
H -2.1761144719 -3.9988255598 2.833909003
H 5.6149215755 2.9097260345 -0.8835557821
H 3.9297567854 3.553325045 -0.7407869554
H 4.5496118419 3.012781779 -2.3444441892
H 0.2079796768 3.1459482473 1.5909445139
H 0.3088353324 2.6496859772 3.3129433279
H -1.9920557828 1.9781626343 3.4639112089
H -1.987649635 3.5607956131 2.5965678351
$end

$rem
JOBTYPE                   OPT
METHOD                    B3LYP
DFT_D                     d3_op
BASIS                     STO-3G
GEOM_OPT_MAX_CYCLES       100
GEOM_OPT_TOL_GRADIENT     300
GEOM_OPT_TOL_DISPLACEMENT 1200
GEOM_OPT_TOL_ENERGY       100
SYMMETRY                  False
THRESH                    12
SCF_CONVERGENCE           8
MAX_SUB_FILE_NUM          128
MEM_STATIC                400
MEM_TOTAL                 4000
$end
--------------------------------------------------------------

   16   -1510.2821703818      5.77E-09 Convergence criterion met
 Total energy in the final basis set = -1510.28217038
   14   -1510.2858335301      4.14E-09 Convergence criterion met
 Total energy in the final basis set = -1510.28583353
   14   -1510.2862911533      6.47E-09 Convergence criterion met
 Total energy in the final basis set = -1510.28629115
   14   -1510.2922969660      3.07E-09 Convergence criterion met
 Total energy in the final basis set = -1510.29229697
   14   -1510.2917577549      3.99E-09 Convergence criterion met
 Total energy in the final basis set = -1510.29175775
   13   -1510.2948369965      3.51E-09 Convergence criterion met
 Total energy in the final basis set = -1510.29483700
   14   -1510.2981939475      3.64E-09 Convergence criterion met
 Total energy in the final basis set = -1510.29819395
   14   -1510.2971758260      6.86E-09 Convergence criterion met
   12   -1510.3053020626      2.66E-09 Convergence criterion met
 Total energy in the final basis set = -1510.30530206
   11   -1510.3053066379      4.73E-09 Convergence criterion met
 Total energy in the final basis set = -1510.30530664
   11   -1510.3053057515      5.52E-09 Convergence criterion met
 Total energy in the final basis set = -1510.30530575
   11   -1510.3053073025      4.97E-09 Convergence criterion met
 Total energy in the final basis set = -1510.30530730
   10   -1510.3053100304      5.38E-09 Convergence criterion met
 Total energy in the final basis set = -1510.30531003
   10   -1510.3053172577      9.33E-09 Convergence criterion met
 Total energy in the final basis set = -1510.30531726

             Standard Nuclear Orientation (Angstroms)
    I     Atom           X                Y                Z
 ----------------------------------------------------------------
    1      O      -1.1095062049    -2.2861211587     0.0827713821
    2      C      -2.3130236788    -1.9299945366     0.1186187484
    3      C      -2.9802610934    -0.7521851057    -0.6858248356
    4      C      -2.6150906515     0.6681036656    -0.0955765280
    5      C      -2.0637540228     0.5794761669     1.3644595631
    6      O      -1.7656970832     1.8929580812     1.8393961067
    7      C      -1.1699963138     1.8302649240     3.1980441173
    8      C       0.4012926523     1.7943763262     3.1102793212
    9      O       0.8474945646     0.5737094092     2.4004215144
   10      C       0.9861136677     0.8442882178     0.9985244770
   11      C       1.2296741444    -0.4853818512     0.2273172638
   12      C       1.8492585324    -0.2663657698    -1.2119013561
   13      C       2.1889319715     1.2280256566    -1.5447112763
   14      O       1.6237730741     1.9537199040    -2.3920387667
   15      O      -3.3362732632    -2.6572195205     0.7995430429
   16      O       3.3271252300     1.6363642773    -0.7699688303
   17      O       0.8614514252     1.9907169183     0.5035594346
   18      C       3.6063642472     3.0676212529    -1.0134689184
   19      C       2.3073668830    -1.4421057526     0.8890134634
   20      C       2.0756822681    -2.8839394487     0.2884989292
   21      C       2.6616118520    -2.7003076809    -1.1608804727
   22      C       3.1354566681    -1.1915570195    -1.1153388920
   23      O       3.5886011426    -1.0117872843     0.2835145051
   24      H       0.2510819458    -1.0190056820     0.1370357758
   25      H       1.1292427712    -0.6060713682    -1.9769402961
   26      H       2.3540249866    -1.3836818495     1.9935353443
   27      H       2.6378763442    -3.6397236708     0.8597572775
   28      H       1.0058571438    -3.1499451925     0.2833137534
   29      H       3.5179803037    -3.3694711778    -1.3417674688
   30      H       1.9072907153    -2.8693175052    -1.9457590266
   31      H       3.9474434955    -0.9299159927    -1.8209955743
   32      O      -1.9406242840    -0.4651429654     2.0472115163
   33      C      -2.7301671035    -3.7541608204     1.5891652216
   34      C      -2.2978003521    -0.6515355468    -2.1117162059
   35      C      -3.0334466927     0.4421540440    -2.9846733141
   36      C      -2.4349412328     1.7723050997    -2.3889041531
   37      C      -1.5805698104     1.2027995404    -1.1938624894
   38      O      -1.0004228556    -0.0287107577    -1.7748739683
   39      H      -4.0706639597    -0.9187203899    -0.7254701888
   40      H      -3.5029166996     1.3256794711    -0.0745877935
   41      H      -2.0528648416    -3.3543127709     2.3712384545
   42      H      -2.1402195056    -1.6271509735    -2.6109176450
   43      H      -2.7777229846     0.3217916698    -4.0491238656
   44      H      -4.1286560715     0.3840064188    -2.8766394106
   45      H      -1.7754626440     2.2756702247    -3.1139629512
   46      H      -3.2106907436     2.4810047169    -2.0573583741
   47      H      -0.7704142301     1.8515146853    -0.7974652553
   48      H      -2.1564503955    -4.4516019179     0.9451702489
   49      H      -3.5717829510    -4.2914412076     2.0635218651
   50      H       4.5187106750     3.3053106268    -0.4359314426
   51      H       2.7687024923     3.7051874077    -0.6624470012
   52      H       3.7810685859     3.2778339754    -2.0885328996
   53      H       0.7648422226     2.6955557961     2.5721896465
   54      H       0.8296252389     1.7529092582     4.1322667737
   55      H      -1.5383014220     0.9256668428     3.7267972730
   56      H      -1.4954029771     2.7471374866     3.7303842382
 ----------------------------------------------------------------

    8   -1510.3053153294      8.42E-09 Convergence criterion met
 Total energy in the final basis set = -1510.30531533
 Final energy is   -1510.30531532942
 **  OPTIMIZATION CONVERGED  **

                    Orbital Energies (a.u.)
 --------------------------------------------------------------

 Alpha MOs
 -- Occupied --
-18.948 -18.936 -18.935 -18.908 -18.891 -18.889 -18.873 -18.872
-18.867 -18.845 -10.112 -10.104 -10.096 -10.079 -10.075 -10.075
-10.063 -10.062 -10.054 -10.045 -10.042 -10.041 -10.039 -10.039
-10.020 -10.016 -10.009 -10.007 -10.001  -9.997  -1.029  -1.012
 -1.008  -0.986  -0.972  -0.950  -0.950  -0.936  -0.934  -0.911
 -0.766  -0.744  -0.726  -0.719  -0.703  -0.699  -0.684  -0.663
 -0.641  -0.619  -0.592  -0.570  -0.546  -0.538  -0.527  -0.519
 -0.514  -0.501  -0.486  -0.470  -0.462  -0.457  -0.449  -0.436
 -0.432  -0.423  -0.415  -0.412  -0.410  -0.403  -0.398  -0.394
 -0.392  -0.381  -0.370  -0.366  -0.359  -0.354  -0.349  -0.345
 -0.342  -0.332  -0.329  -0.327  -0.321  -0.317  -0.312  -0.307
 -0.305  -0.302  -0.294  -0.288  -0.286  -0.276  -0.273  -0.268
 -0.261  -0.256  -0.250  -0.246  -0.234  -0.229  -0.213  -0.200
 -0.177  -0.170  -0.164  -0.155  -0.153  -0.150  -0.144  -0.127
 -0.124

          Ground-State Mulliken Net Atomic Charges

     Atom                 Charge (a.u.)
  ----------------------------------------
      1 O                    -0.224049
      2 C                     0.223243
      3 C                    -0.080836
      4 C                    -0.081461
      5 C                     0.210257
      6 O                    -0.167213
      7 C                    -0.052947
      8 C                    -0.053216
      9 O                    -0.170026
     10 C                     0.212015
     11 C                    -0.092837
     12 C                    -0.083873
     13 C                     0.210224
     14 O                    -0.224118
     15 O                    -0.167040
     16 O                    -0.171947
     17 O                    -0.220490
     18 C                    -0.128348
     19 C                     0.023594
     20 C                    -0.147532
     21 C                    -0.143703
     22 C                     0.024939
     23 O                    -0.191852
     24 H                     0.116750
     25 H                     0.096476
     26 H                     0.083141
     27 H                     0.070122
     28 H                     0.086664
     29 H                     0.072062
     30 H                     0.072609
     31 H                     0.079022
     32 O                    -0.208253
     33 C                    -0.127731
     34 C                     0.025826
     35 C                    -0.144923
     36 C                    -0.141922
     37 C                     0.020285
     38 O                    -0.188822
     39 H                     0.086611
     40 H                     0.087883
     41 H                     0.094708
     42 H                     0.082469
     43 H                     0.079312
     44 H                     0.072562
     45 H                     0.085515
     46 H                     0.072905
     47 H                     0.105692
     48 H                     0.088544
     49 H                     0.089647
     50 H                     0.085148
     51 H                     0.087030
     52 H                     0.084682
     53 H                     0.101232
     54 H                     0.090860
     55 H                     0.099686
     56 H                     0.091425
  ----------------------------------------
  Sum of atomic charges =    -0.000000

                    Cartesian Multipole Moments
 -----------------------------------------------------------------
    Charge (ESU x 10^10)
                -0.0000
    Dipole Moment (Debye)
         X      -3.3049      Y      -0.0576      Z       1.3739
       Tot       3.5796
    Quadrupole Moments (Debye-Ang)
        XX    -157.6747     XY       1.9274     YY    -152.3397
        XZ       0.5062     YZ       6.8176     ZZ    -151.4711

 Total job time:  110.13s(wall), 5256.58s(cpu)
        *  Thank you very much for using Q-Chem.  Have a nice day.  *
