 Q-Chem 5.0, Q-Chem, Inc., Pleasanton, CA (2017)
 Q-Chem 5.0.1 for Intel X86 EM64T Linux

User input:
--------------------------------------------------------------
$molecule
0  1
O -3.94934 -3.66094 2.70899
C -3.26408 -4.56952 2.26188
C -3.36658 -6.02376 2.66595
C -2.06432 -6.84081 2.68634
C -0.78077 -6.06942 2.47294
O 0.26803 -6.75394 3.0178
C 1.53487 -6.13653 2.76653
C 1.7843 -5.0194 3.77447
O 0.544 -4.61857 4.37769
C 0.52506 -4.62838 5.73367
C -0.84876 -4.89563 6.30099
C -0.88308 -5.88505 7.47493
C 0.45114 -6.17849 8.13101
O 1.15621 -7.15009 7.89988
O -2.75626 -4.36575 1.0129
O 0.94923 -5.22836 8.97142
O 1.48523 -4.27772 6.40784
C 2.1622 -5.31601 9.62231
C -1.49196 -3.66201 6.97823
C -3.01367 -3.80935 6.95733
C -3.19889 -4.94599 7.94533
C -1.76094 -5.09344 8.46172
O -1.22079 -3.79919 8.35023
H -1.47328 -5.0958 5.44109
H -1.31516 -6.86207 7.16676
H -1.18989 -2.69723 6.51501
H -3.42604 -2.87678 7.40579
H -3.48102 -3.96524 5.96157
H -3.88941 -4.60357 8.74731
H -3.56153 -5.90175 7.5088
H -1.74823 -5.54221 9.47954
O -0.66323 -4.93252 2.03996
C -2.73396 -3.15001 0.3591
C -4.01268 -6.38443 4.00719
C -4.589 -7.80278 3.94495
C -3.31208 -8.62782 3.97942
C -2.259 -7.51669 4.07327
O -2.92424 -6.56051 4.8576
H -4.02755 -6.43033 1.86656
H -2.0362 -7.64151 1.91385
H -2.14577 -2.41257 0.94636
H -4.78507 -5.65374 4.32974
H -5.15655 -7.99131 4.88406
H -5.25157 -7.98803 3.07216
H -3.30303 -9.21331 4.92626
H -3.16069 -9.31366 3.11829
H -1.31836 -7.92644 4.49868
H -3.76858 -2.77355 0.21018
H -2.25567 -3.27993 -0.63315
H 2.31011 -4.40602 10.23904
H 2.98904 -5.3859 8.88359
H 2.17546 -6.20569 10.28755
H 2.48875 -5.42782 4.53726
H 2.29666 -4.16475 3.2838
H 1.57873 -5.74369 1.72332
H 2.35513 -6.88417 2.81942
$end

$opt
CONSTRAINT
tors           1           2           3           4    -145.844
tors           3           4           5           6    +156.251
tors           4           5           6           7    +175.481
tors           5           6           7           8     +82.447
tors           6           7           8           9     -18.894
tors           7           8           9          10    +126.652
tors           8           9          10          11    -150.887
tors           9          10          11          12    +136.430
tors          11          12          13          14     -97.983
ENDCONSTRAINT
$end

$rem
JOBTYPE                   OPT
METHOD                    B3LYP
DFT_D                     d3_op
BASIS                     STO-3G
GEOM_OPT_MAX_CYCLES       100
GEOM_OPT_TOL_GRADIENT     300
GEOM_OPT_TOL_DISPLACEMENT 1200
GEOM_OPT_TOL_ENERGY       100
SYMMETRY                  False
THRESH                    12
SCF_CONVERGENCE           8
MAX_SUB_FILE_NUM          128
MEM_STATIC                400
MEM_TOTAL                 4000
$end
--------------------------------------------------------------

   15   -1510.1319850899      9.14E-09 Convergence criterion met
 Total energy in the final basis set = -1510.13198509
   13   -1510.2042219741      9.11E-09 Convergence criterion met
 Total energy in the final basis set = -1510.20422197
   14   -1510.2409485069      6.18E-09 Convergence criterion met
 Total energy in the final basis set = -1510.24094851
   14   -1510.2536273097      4.86E-09 Convergence criterion met
 Total energy in the final basis set = -1510.25362731
   14   -1510.2634768670      3.91E-09 Convergence criterion met
 Total energy in the final basis set = -1510.26347687
   13   -1510.2707863839      5.76E-09 Convergence criterion met
 Total energy in the final basis set = -1510.27078638
   12   -1510.2744412915      9.79E-09 Convergence criterion met
 Total energy in the final basis set = -1510.27444129
   13   -1510.2758676767      4.12E-09 Convergence criterion met
   13   -1510.2774803248      2.64E-09 Convergence criterion met
 Total energy in the final basis set = -1510.27748032
   13   -1510.2776404344      2.15E-09 Convergence criterion met
 Total energy in the final basis set = -1510.27764043
   12   -1510.2776807162      2.46E-09 Convergence criterion met
 Total energy in the final basis set = -1510.27768072
   11   -1510.2777223322      6.03E-09 Convergence criterion met
 Total energy in the final basis set = -1510.27772233
   11   -1510.2777283713      4.53E-09 Convergence criterion met
 Total energy in the final basis set = -1510.27772837
    9   -1510.2777350823      5.44E-09 Convergence criterion met
 Total energy in the final basis set = -1510.27773508

             Standard Nuclear Orientation (Angstroms)
    I     Atom           X                Y                Z
 ----------------------------------------------------------------
    1      O      -3.9755864191    -0.8728241876     2.0607236414
    2      C      -3.9541594596    -0.2486796297     0.9773670764
    3      C      -3.3559452627    -0.7635523206    -0.3812006221
    4      C      -2.6746997951     0.2893330700    -1.3448033844
    5      C      -2.1253939313     1.5795353421    -0.6135256093
    6      O      -1.0912880218     2.1448166626    -1.4334589806
    7      C      -0.6172591880     3.4186915638    -0.8447019599
    8      C       0.4540042656     3.2163104863     0.3066326334
    9      O       0.3859420717     1.8283758723     0.8182967709
   10      C       1.6921388463     1.2193666522     0.7746559998
   11      C       1.5328146808    -0.3196474240     0.5841755792
   12      C       2.5476518197    -0.9180795277    -0.4815015705
   13      C       3.6432446234     0.1039340505    -0.9597895663
   14      O       3.6084807324     0.7836124318    -2.0101560577
   15      O      -4.7603490139     0.9020677562     0.7028669571
   16      O       4.7547660644     0.0750965022    -0.0599305394
   17      O       2.7500585777     1.8888985406     0.7347910046
   18      C       5.7476899320     1.0961768237    -0.4597105624
   19      C       1.8884359251    -1.1954186464     1.8665993713
   20      C       1.1797355361    -2.5945445087     1.6847053365
   21      C       2.0675939373    -3.2290599440     0.5517237886
   22      C       3.1699687707    -2.1106445333     0.3567030312
   23      O       3.3219660708    -1.5234459928     1.7082997238
   24      H       0.4871485990    -0.5243468421     0.2628713475
   25      H       2.0027889185    -1.2684323847    -1.3761038091
   26      H       1.7070835254    -0.6962637226     2.8381716368
   27      H       1.2344537581    -3.1787388870     2.6172800909
   28      H       0.1253694671    -2.4889298334     1.3873647076
   29      H       2.5288772069    -4.1750967948     0.8767363971
   30      H       1.4985696764    -3.4130414539    -0.3739591171
   31      H       4.1461288071    -2.4744829437    -0.0174135008
   32      O      -2.4660635911     2.0589973927     0.4871004755
   33      C      -5.4096862181     1.3725956151     1.9464676974
   34      C      -2.2349502905    -1.8747797756    -0.2571134260
   35      C      -2.3626423248    -2.8116607166    -1.5181268962
   36      C      -1.9023183820    -1.8261658765    -2.6587365222
   37      C      -1.4283123767    -0.5699741943    -1.8247967058
   38      O      -0.9709233915    -1.1571014790    -0.5422433071
   39      H      -4.2259190878    -1.1963547415    -0.9124118468
   40      H      -3.3400568712     0.5897598969    -2.1745426624
   41      H      -4.6615734739     1.7601797004     2.6677632198
   42      H      -2.1949245389    -2.3771481217     0.7292437671
   43      H      -1.6760847043    -3.6690516747    -1.4292498824
   44      H      -3.3874359449    -3.1889362326    -1.6629131803
   45      H      -1.0647583670    -2.2414737935    -3.2409698793
   46      H      -2.7197903340    -1.5710629011    -3.3520964332
   47      H      -0.6210189153     0.0342554283    -2.2809648963
   48      H      -5.9900371425     0.5641193943     2.4364937820
   49      H      -6.0890500413     2.1911625401     1.6457174417
   50      H       6.6104576185     0.9658495643     0.2189604922
   51      H       5.3346210254     2.1188871846    -0.3422094651
   52      H       6.0743101959     0.9634374739    -1.5115101380
   53      H       1.4859257090     3.4131913611    -0.0539699347
   54      H       0.2335778537     3.9240749229     1.1342372117
   55      H      -1.4797489970     3.9932474316    -0.4473706673
   56      H      -0.1589970205     3.9782439330    -1.6847517503
 ----------------------------------------------------------------

    9   -1510.2777357733      3.20E-09 Convergence criterion met
 Total energy in the final basis set = -1510.27773577
 Final energy is   -1510.27773577330
 **  OPTIMIZATION CONVERGED  **

                    Orbital Energies (a.u.)
 --------------------------------------------------------------

 Alpha MOs
 -- Occupied --
-18.936 -18.931 -18.922 -18.918 -18.907 -18.882 -18.875 -18.873
-18.873 -18.853 -10.104 -10.100 -10.092 -10.083 -10.074 -10.071
-10.070 -10.064 -10.060 -10.048 -10.048 -10.047 -10.047 -10.043
-10.030 -10.029 -10.023 -10.010 -10.010 -10.007  -1.018  -1.008
 -1.003  -0.993  -0.986  -0.957  -0.941  -0.933  -0.928  -0.918
 -0.772  -0.749  -0.732  -0.719  -0.710  -0.703  -0.689  -0.661
 -0.645  -0.618  -0.596  -0.573  -0.553  -0.547  -0.535  -0.527
 -0.513  -0.500  -0.483  -0.474  -0.468  -0.460  -0.452  -0.441
 -0.428  -0.424  -0.419  -0.412  -0.408  -0.404  -0.400  -0.397
 -0.391  -0.380  -0.373  -0.367  -0.359  -0.354  -0.347  -0.346
 -0.344  -0.340  -0.332  -0.330  -0.326  -0.320  -0.319  -0.316
 -0.313  -0.305  -0.299  -0.294  -0.291  -0.285  -0.278  -0.270
 -0.266  -0.257  -0.250  -0.244  -0.238  -0.234  -0.217  -0.184
 -0.177  -0.166  -0.163  -0.160  -0.155  -0.150  -0.148  -0.135
 -0.130

          Ground-State Mulliken Net Atomic Charges

     Atom                 Charge (a.u.)
  ----------------------------------------
      1 O                    -0.215318
      2 C                     0.215126
      3 C                    -0.080170
      4 C                    -0.074281
      5 C                     0.217541
      6 O                    -0.172638
      7 C                    -0.049922
      8 C                    -0.054290
      9 O                    -0.175070
     10 C                     0.208854
     11 C                    -0.099201
     12 C                    -0.079908
     13 C                     0.208600
     14 O                    -0.226124
     15 O                    -0.166840
     16 O                    -0.162684
     17 O                    -0.211225
     18 C                    -0.126607
     19 C                     0.025283
     20 C                    -0.142895
     21 C                    -0.144548
     22 C                     0.026715
     23 O                    -0.186748
     24 H                     0.116651
     25 H                     0.080166
     26 H                     0.080482
     27 H                     0.074249
     28 H                     0.075645
     29 H                     0.074289
     30 H                     0.071265
     31 H                     0.082749
     32 O                    -0.204092
     33 C                    -0.126750
     34 C                     0.025457
     35 C                    -0.141338
     36 C                    -0.145559
     37 C                     0.025481
     38 O                    -0.193626
     39 H                     0.084902
     40 H                     0.088784
     41 H                     0.092324
     42 H                     0.093081
     43 H                     0.079026
     44 H                     0.076243
     45 H                     0.080067
     46 H                     0.076052
     47 H                     0.097368
     48 H                     0.088399
     49 H                     0.089015
     50 H                     0.088035
     51 H                     0.091094
     52 H                     0.085193
     53 H                     0.096456
     54 H                     0.084373
     55 H                     0.090909
     56 H                     0.089960
  ----------------------------------------
  Sum of atomic charges =    -0.000000

                    Cartesian Multipole Moments
 -----------------------------------------------------------------
    Charge (ESU x 10^10)
                -0.0000
    Dipole Moment (Debye)
         X      -3.1250      Y      -0.2897      Z      -2.3157
       Tot       3.9003
    Quadrupole Moments (Debye-Ang)
        XX    -156.7223     XY      -0.8338     YY    -148.5076
        XZ       2.2233     YZ       4.7089     ZZ    -162.7798

 Total job time:  59.63s(wall), 2841.55s(cpu)
        *  Thank you very much for using Q-Chem.  Have a nice day.  *
