 Q-Chem 5.0, Q-Chem, Inc., Pleasanton, CA (2017)
 Q-Chem 5.0.1 for Intel X86 EM64T Linux

User input:
--------------------------------------------------------------
$molecule
0  1
O -3.9755864191 -0.8728241876 2.0607236414
C -3.9541594596 -0.2486796297 0.9773670764
C -3.3559452627 -0.7635523206 -0.3812006221
C -2.6746997951 0.28933307 -1.3448033844
C -2.1253939313 1.5795353421 -0.6135256093
O -1.0912880218 2.1448166626 -1.4334589806
C -0.617259188 3.4186915638 -0.8447019599
C 0.4540042656 3.2163104863 0.3066326334
O 0.3859420717 1.8283758723 0.8182967709
C 1.6921388463 1.2193666522 0.7746559998
C 1.5328146808 -0.319647424 0.5841755792
C 2.5476518197 -0.9180795277 -0.4815015705
C 3.6432446234 0.1039340505 -0.9597895663
O 3.6084807324 0.7836124318 -2.0101560577
O -4.7603490139 0.9020677562 0.7028669571
O 4.7547660644 0.0750965022 -0.0599305394
O 2.7500585777 1.8888985406 0.7347910046
C 5.747689932 1.0961768237 -0.4597105624
C 1.8884359251 -1.1954186464 1.8665993713
C 1.1797355361 -2.5945445087 1.6847053365
C 2.0675939373 -3.229059944 0.5517237886
C 3.1699687707 -2.1106445333 0.3567030312
O 3.3219660708 -1.5234459928 1.7082997238
H 0.487148599 -0.5243468421 0.2628713475
H 2.0027889185 -1.2684323847 -1.3761038091
H 1.7070835254 -0.6962637226 2.8381716368
H 1.2344537581 -3.178738887 2.6172800909
H 0.1253694671 -2.4889298334 1.3873647076
H 2.5288772069 -4.1750967948 0.8767363971
H 1.4985696764 -3.4130414539 -0.3739591171
H 4.1461288071 -2.4744829437 -0.0174135008
O -2.4660635911 2.0589973927 0.4871004755
C -5.4096862181 1.3725956151 1.9464676974
C -2.2349502905 -1.8747797756 -0.257113426
C -2.3626423248 -2.8116607166 -1.5181268962
C -1.902318382 -1.8261658765 -2.6587365222
C -1.4283123767 -0.5699741943 -1.8247967058
O -0.9709233915 -1.157101479 -0.5422433071
H -4.2259190878 -1.1963547415 -0.9124118468
H -3.3400568712 0.5897598969 -2.1745426624
H -4.6615734739 1.7601797004 2.6677632198
H -2.1949245389 -2.3771481217 0.7292437671
H -1.6760847043 -3.6690516747 -1.4292498824
H -3.3874359449 -3.1889362326 -1.6629131803
H -1.064758367 -2.2414737935 -3.2409698793
H -2.719790334 -1.5710629011 -3.3520964332
H -0.6210189153 0.0342554283 -2.2809648963
H -5.9900371425 0.5641193943 2.436493782
H -6.0890500413 2.1911625401 1.6457174417
H 6.6104576185 0.9658495643 0.2189604922
H 5.3346210254 2.1188871846 -0.3422094651
H 6.0743101959 0.9634374739 -1.511510138
H 1.485925709 3.4131913611 -0.0539699347
H 0.2335778537 3.9240749229 1.1342372117
H -1.479748997 3.9932474316 -0.4473706673
H -0.1589970205 3.978243933 -1.6847517503
$end

$rem
JOBTYPE                   OPT
METHOD                    B3LYP
DFT_D                     d3_op
BASIS                     STO-3G
GEOM_OPT_MAX_CYCLES       100
GEOM_OPT_TOL_GRADIENT     300
GEOM_OPT_TOL_DISPLACEMENT 1200
GEOM_OPT_TOL_ENERGY       100
SYMMETRY                  False
THRESH                    12
SCF_CONVERGENCE           8
MAX_SUB_FILE_NUM          128
MEM_STATIC                400
MEM_TOTAL                 4000
$end
--------------------------------------------------------------

   16   -1510.2777616207      7.33E-09 Convergence criterion met
 Total energy in the final basis set = -1510.27776162
   14   -1510.2812028518      1.35E-09 Convergence criterion met
 Total energy in the final basis set = -1510.28120285
   14   -1510.2846163258      2.18E-09 Convergence criterion met
 Total energy in the final basis set = -1510.28461633
   13   -1510.2880335977      7.44E-09 Convergence criterion met
 Total energy in the final basis set = -1510.28803360
   13   -1510.2903853932      3.54E-09 Convergence criterion met
 Total energy in the final basis set = -1510.29038539
   13   -1510.2921992325      2.48E-09 Convergence criterion met
 Total energy in the final basis set = -1510.29219923
   13   -1510.2932615105      3.03E-09 Convergence criterion met
 Total energy in the final basis set = -1510.29326151
   13   -1510.2943650885      3.66E-09 Convergence criterion met
   12   -1510.3057826123      3.52E-09 Convergence criterion met
 Total energy in the final basis set = -1510.30578261
   11   -1510.3058254134      8.72E-09 Convergence criterion met
 Total energy in the final basis set = -1510.30582541
   10   -1510.3058347716      5.96E-09 Convergence criterion met
 Total energy in the final basis set = -1510.30583477
   11   -1510.3058469088      9.29E-09 Convergence criterion met
 Total energy in the final basis set = -1510.30584691
   11   -1510.3058504080      3.12E-09 Convergence criterion met
 Total energy in the final basis set = -1510.30585041
    9   -1510.3058512020      6.38E-09 Convergence criterion met
 Total energy in the final basis set = -1510.30585120

             Standard Nuclear Orientation (Angstroms)
    I     Atom           X                Y                Z
 ----------------------------------------------------------------
    1      O      -1.8735590024    -0.9577972167     1.2671103390
    2      C      -2.8211727002    -0.7072674562     0.4832735517
    3      C      -2.7976430086    -0.7435052524    -1.0906040718
    4      C      -1.8808987432     0.3934335634    -1.7035432575
    5      C      -1.6767768175     1.5596650238    -0.6776222499
    6      O      -0.7684280247     2.5403444941    -1.1843995344
    7      C      -0.7522505768     3.7235167571    -0.2823172297
    8      C       0.3244211479     3.5661462564     0.8608198305
    9      O       0.2413511810     2.1962516618     1.4150144657
   10      C       1.2482484412     1.3780192080     0.8016432664
   11      C       0.9684712819    -0.1188369935     1.1082865051
   12      C       1.7628491205    -1.0834014678     0.1345824066
   13      C       2.6037248664    -0.3186694929    -0.9479020652
   14      O       2.1745467317     0.1259698596    -2.0454958343
   15      O      -4.1663554168    -0.4828437265     0.9110825409
   16      O       3.9810635453    -0.2845930255    -0.5814903551
   17      O       2.1945699007     1.8442902237     0.1235637727
   18      C       4.7467729003     0.4964075308    -1.5787648903
   19      C       1.5489995857    -0.5715446158     2.5174712522
   20      C       0.8818649887    -1.9589126831     2.8707440764
   21      C       1.6664658414    -2.9234872251     1.9061795922
   22      C       2.6300745593    -1.9075071037     1.1707280848
   23      O       2.9572104259    -0.9166716062     2.2245163478
   24      H      -0.1272550506    -0.3224277427     1.0604804175
   25      H       1.0190182404    -1.7071628740    -0.4031753697
   26      H       1.4897915235     0.1980403274     3.3115965107
   27      H       1.0509252899    -2.2152485826     3.9287386644
   28      H      -0.2015740412    -1.9463402356     2.6677079590
   29      H       2.2484985780    -3.6727281137     2.4662649623
   30      H       1.0020690890    -3.4436460546     1.1981722716
   31      H       3.5562487265    -2.3473409398     0.7544013155
   32      O      -2.3132130048     1.6840003415     0.3962380214
   33      C      -4.2155352212    -0.4022511626     2.3889686664
   34      C      -2.0214335422    -2.0346830698    -1.5774096313
   35      C      -2.1087216582    -2.1405839450    -3.1520993422
   36      C      -1.0355034540    -1.0744657160    -3.5936068983
   37      C      -0.6220985920    -0.4533288380    -2.2029443236
   38      O      -0.6175538716    -1.6494389818    -1.3275221811
   39      H      -3.8356824295    -0.6898225369    -1.4622325540
   40      H      -2.3764063450     0.8486116149    -2.5818684605
   41      H      -3.5974229088     0.4393026507     2.7627668305
   42      H      -2.2771805823    -2.9595333578    -1.0247042944
   43      H      -1.8397314945    -3.1546643073    -3.4878160840
   44      H      -3.1192737673    -1.9042952486    -3.5226966728
   45      H      -0.1633855678    -1.5569277014    -4.0635419203
   46      H      -1.4401759236    -0.3229690865    -4.2899459769
   47      H       0.4010389164     0.0140277768    -2.1705510070
   48      H      -3.8605927520    -1.3407903306     2.8617010544
   49      H      -5.2758266298    -0.2317369400     2.6510046263
   50      H       5.7976698680     0.4804133184    -1.2360754279
   51      H       4.3841213818     1.5433765122    -1.6264493270
   52      H       4.6765496032     0.0492475959    -2.5915122604
   53      H       1.3459893122     3.7261485357     0.4547071613
   54      H       0.1128719753     4.2828529661     1.6795962944
   55      H      -1.7569706297     3.8586435705     0.1695558314
   56      H      -0.5018155249     4.5938726090    -0.9220451865
 ----------------------------------------------------------------

    9   -1510.3058508379      4.88E-09 Convergence criterion met
 Total energy in the final basis set = -1510.30585084
 Final energy is   -1510.30585083788
 **  OPTIMIZATION CONVERGED  **

                    Orbital Energies (a.u.)
 --------------------------------------------------------------

 Alpha MOs
 -- Occupied --
-18.945 -18.932 -18.931 -18.924 -18.887 -18.885 -18.875 -18.869
-18.867 -18.857 -10.107 -10.100 -10.094 -10.089 -10.076 -10.069
-10.061 -10.060 -10.052 -10.043 -10.041 -10.038 -10.037 -10.035
-10.018 -10.012 -10.009 -10.007 -10.002  -9.999  -1.024  -1.009
 -1.005  -0.997  -0.970  -0.952  -0.944  -0.934  -0.930  -0.921
 -0.762  -0.745  -0.722  -0.715  -0.702  -0.697  -0.686  -0.660
 -0.648  -0.615  -0.591  -0.569  -0.543  -0.535  -0.530  -0.520
 -0.508  -0.499  -0.486  -0.474  -0.458  -0.453  -0.448  -0.433
 -0.430  -0.422  -0.414  -0.413  -0.409  -0.405  -0.399  -0.398
 -0.392  -0.378  -0.368  -0.364  -0.359  -0.354  -0.351  -0.347
 -0.343  -0.340  -0.327  -0.322  -0.317  -0.315  -0.311  -0.308
 -0.300  -0.297  -0.294  -0.288  -0.285  -0.278  -0.273  -0.265
 -0.264  -0.255  -0.248  -0.245  -0.236  -0.228  -0.212  -0.195
 -0.174  -0.168  -0.163  -0.159  -0.154  -0.148  -0.142  -0.137
 -0.126

          Ground-State Mulliken Net Atomic Charges

     Atom                 Charge (a.u.)
  ----------------------------------------
      1 O                    -0.226069
      2 C                     0.222576
      3 C                    -0.079835
      4 C                    -0.081643
      5 C                     0.212099
      6 O                    -0.165548
      7 C                    -0.051737
      8 C                    -0.055700
      9 O                    -0.170743
     10 C                     0.209519
     11 C                    -0.094389
     12 C                    -0.095441
     13 C                     0.221150
     14 O                    -0.229902
     15 O                    -0.167374
     16 O                    -0.163435
     17 O                    -0.213036
     18 C                    -0.126154
     19 C                     0.025454
     20 C                    -0.146082
     21 C                    -0.143633
     22 C                     0.024116
     23 O                    -0.192866
     24 H                     0.114084
     25 H                     0.110015
     26 H                     0.078822
     27 H                     0.071211
     28 H                     0.086108
     29 H                     0.072244
     30 H                     0.073940
     31 H                     0.083541
     32 O                    -0.207842
     33 C                    -0.127723
     34 C                     0.026799
     35 C                    -0.145559
     36 C                    -0.142840
     37 C                     0.005376
     38 O                    -0.197113
     39 H                     0.085887
     40 H                     0.085742
     41 H                     0.094664
     42 H                     0.081344
     43 H                     0.076608
     44 H                     0.072261
     45 H                     0.078003
     46 H                     0.071505
     47 H                     0.120415
     48 H                     0.087339
     49 H                     0.088901
     50 H                     0.088414
     51 H                     0.093889
     52 H                     0.086013
     53 H                     0.101750
     54 H                     0.088741
     55 H                     0.095063
     56 H                     0.091073
  ----------------------------------------
  Sum of atomic charges =    -0.000000

                    Cartesian Multipole Moments
 -----------------------------------------------------------------
    Charge (ESU x 10^10)
                -0.0000
    Dipole Moment (Debye)
         X      -2.5864      Y       0.6821      Z      -1.0902
       Tot       2.8885
    Quadrupole Moments (Debye-Ang)
        XX    -157.5407     XY       1.2714     YY    -146.6842
        XZ      -3.0283     YZ       1.8697     ZZ    -156.6126

 Total job time:  116.47s(wall), 5558.09s(cpu)
        *  Thank you very much for using Q-Chem.  Have a nice day.  *
