 Q-Chem 5.0, Q-Chem, Inc., Pleasanton, CA (2017)
 Q-Chem 5.0.1 for Intel X86 EM64T Linux

User input:
--------------------------------------------------------------
$molecule
0  1
O -3.94934 -3.66094 2.70899
C -3.26408 -4.56952 2.26188
C -3.36658 -6.02376 2.66595
C -2.13948 -6.65204 3.34663
C -1.01248 -5.70996 3.70783
O -0.09872 -6.35772 4.48941
C 1.24012 -5.88916 4.29651
C 1.43428 -4.5491 4.99842
O 0.23159 -3.76944 4.906
C -0.16147 -3.16542 6.05483
C -1.65888 -2.99174 6.14573
C -2.34563 -3.84678 7.2207
C -1.43048 -4.46052 8.26115
O -1.08452 -5.63249 8.29795
O -2.45041 -4.30035 1.2054
O -0.86373 -3.60534 9.15659
O 0.60696 -2.86383 6.95973
C 0.02842 -3.98041 10.13929
C -2.1379 -1.58478 6.54655
C -3.55909 -1.36526 6.02795
C -4.3394 -2.30881 6.92584
C -3.22661 -2.76877 7.87723
O -2.35251 -1.66409 7.93548
H -2.08103 -3.23614 5.14251
H -2.91604 -4.68346 6.77101
H -1.46199 -0.77444 6.19679
H -3.83547 -0.31796 6.28729
H -3.70663 -1.51992 4.93734
H -5.11161 -1.71866 7.46706
H -4.8097 -3.17409 6.40965
H -3.64941 -3.11147 8.84727
O -0.67979 -4.84069 2.91074
C -2.27518 -3.04649 0.65759
C -4.43842 -6.25692 3.75074
C -4.89695 -7.71479 3.73381
C -3.68671 -8.39594 4.3327
C -2.8067 -7.18036 4.63679
O -3.72889 -6.17011 4.95741
H -3.66765 -6.57635 1.74773
H -1.69391 -7.47284 2.74113
H -1.86535 -2.35051 1.42071
H -5.32105 -5.58784 3.6521
H -5.74495 -7.80879 4.44957
H -5.2126 -8.09289 2.73767
H -3.99554 -8.88736 5.28242
H -3.17794 -9.13218 3.67356
H -2.08048 -7.44055 5.43695
H -3.24238 -2.657 0.27411
H -1.5578 -3.11511 -0.18564
H 0.32537 -3.08428 10.72161
H 0.93698 -4.42649 9.68111
H -0.44558 -4.71354 10.82635
H 1.66575 -4.7944 6.06162
H 2.30865 -4.0147 4.57014
H 1.46602 -5.80666 3.20796
H 1.97514 -6.62004 4.69621
$end

$opt
CONSTRAINT
tors           1           2           3           4    -116.583
tors           3           4           5           6    +170.229
tors           4           5           6           7    +148.193
tors           5           6           7           8     +76.345
tors           6           7           8           9     -35.974
tors           7           8           9          10    +134.770
tors           8           9          10          11    -150.168
tors           9          10          11          12    +111.818
tors          11          12          13          14    -103.847
ENDCONSTRAINT
$end

$rem
JOBTYPE                   OPT
METHOD                    B3LYP
DFT_D                     d3_op
BASIS                     STO-3G
GEOM_OPT_MAX_CYCLES       100
GEOM_OPT_TOL_GRADIENT     300
GEOM_OPT_TOL_DISPLACEMENT 1200
GEOM_OPT_TOL_ENERGY       100
SYMMETRY                  False
THRESH                    12
SCF_CONVERGENCE           8
MAX_SUB_FILE_NUM          128
MEM_STATIC                400
MEM_TOTAL                 4000
$end
--------------------------------------------------------------

   15   -1510.1349166490      7.36E-09 Convergence criterion met
 Total energy in the final basis set = -1510.13491665
   14   -1510.2057973125      7.83E-09 Convergence criterion met
 Total energy in the final basis set = -1510.20579731
   15   -1510.2427320149      2.23E-09 Convergence criterion met
 Total energy in the final basis set = -1510.24273201
   15   -1510.2564003002      2.78E-09 Convergence criterion met
 Total energy in the final basis set = -1510.25640030
   14   -1510.2643702739      4.44E-09 Convergence criterion met
 Total energy in the final basis set = -1510.26437027
    2   -1510.2643702739      1.21E-09 Convergence criterion met
 Total energy in the final basis set = -1510.26437027
   13   -1510.2692925632      5.94E-09 Convergence criterion met
 Total energy in the final basis set = -1510.26929256
   14   -1510.2677699590      3.70E-09 Convergence criterion met
   11   -1510.2750695934      6.90E-09 Convergence criterion met
 Total energy in the final basis set = -1510.27506959
   11   -1510.2750781810      3.98E-09 Convergence criterion met
 Total energy in the final basis set = -1510.27507818
   10   -1510.2750814798      8.31E-09 Convergence criterion met
 Total energy in the final basis set = -1510.27508148
    9   -1510.2750818384      9.93E-09 Convergence criterion met
 Total energy in the final basis set = -1510.27508184
   10   -1510.2750840523      7.39E-09 Convergence criterion met
 Total energy in the final basis set = -1510.27508405
   10   -1510.2750841857      6.29E-09 Convergence criterion met
 Total energy in the final basis set = -1510.27508419

             Standard Nuclear Orientation (Angstroms)
    I     Atom           X                Y                Z
 ----------------------------------------------------------------
    1      O       2.0606525503    -2.1259120731    -1.0753334451
    2      C       2.7537536424    -1.1040919891    -0.8666163722
    3      C       3.0396156056    -0.4316589341     0.5318119741
    4      C       2.4743018734     1.0356697099     0.6906086565
    5      C       1.4445266474     1.3516439959    -0.4542624193
    6      O       0.8000699476     2.5805759057    -0.1421876660
    7      C       0.3678149347     3.4540150088    -1.2647535324
    8      C      -0.9541903851     2.9124038572    -1.9692916650
    9      O      -0.8547721206     1.4490497438    -1.9475401690
   10      C      -2.0328138797     0.7331036314    -1.5510345336
   11      C      -1.4327587828    -0.5640778514    -0.8902205830
   12      C      -1.6578829889    -0.6580918668     0.6812338082
   13      C      -2.5029027963     0.5187405746     1.2665741781
   14      O      -2.0667394382     1.4982650710     1.9140106318
   15      O       3.6796903297    -0.5498334767    -1.8171274373
   16      O      -3.8881672275     0.3083123164     0.9775949893
   17      O      -3.1993222247     1.1645277767    -1.6437826739
   18      C      -4.6916725984     1.4458936777     1.4778231631
   19      C      -2.0659701136    -1.9394542299    -1.3635248095
   20      C      -1.0318412052    -3.0757389439    -0.9771905066
   21      C      -1.2759738872    -3.1863127560     0.5734851114
   22      C      -2.3726478626    -2.0706541882     0.7921923305
   23      O      -3.1971677503    -2.1520572336    -0.4347905782
   24      H      -0.3544648761    -0.5328884148    -1.1233360897
   25      H      -0.6671788790    -0.6411689323     1.1927514157
   26      H      -2.4183971404    -1.9537535940    -2.4131099430
   27      H      -1.2766450164    -4.0169790387    -1.4941722333
   28      H       0.0109902573    -2.7908621086    -1.2086537977
   29      H      -1.6716887056    -4.1756218500     0.8540336502
   30      H      -0.3642332959    -2.9881905778     1.1589534036
   31      H      -3.0054385143    -2.1978524830     1.6916271389
   32      O       1.3536845996     0.6740903233    -1.5047262271
   33      C       3.4362540307    -1.1459432971    -3.1486876237
   34      C       2.3096282424    -1.1770166476     1.7254975343
   35      C       3.0878299860    -0.8406564850     3.0532600700
   36      C       2.7053208662     0.6757152032     3.2466737412
   37      C       1.6847509118     0.8970102228     2.0630983134
   38      O       1.0410453147    -0.4297810674     1.9033418994
   39      H       4.1350260555    -0.4350911464     0.6760121874
   40      H       3.2574407468     1.8146381487     0.7075531138
   41      H       2.4392946799    -0.8550229679    -3.5394360590
   42      H       2.1029588806    -2.2476185706     1.5313489472
   43      H       2.7112258961    -1.4573717579     3.8849267278
   44      H       4.1734233476    -0.9997915186     2.9553210644
   45      H       2.2168807932     0.8519693809     4.2180080471
   46      H       3.5772709655     1.3443017701     3.1632409174
   47      H       0.9168527129     1.6797409333     2.2222392170
   48      H       3.4950692126    -2.2532654562    -3.1196242545
   49      H       4.2241901747    -0.7485391269    -3.8146188210
   50      H      -5.7470679490     1.1838947940     1.2794110865
   51      H      -4.4399534460     2.3851009809     0.9439502556
   52      H      -4.5443685825     1.6075623887     2.5654509795
   53      H      -1.8611595700     3.2554919338    -1.4257624867
   54      H      -1.0029978138     3.2989431291    -3.0118574106
   55      H       1.1830862456     3.5396947830    -2.0154202713
   56      H       0.1835315719     4.4450590968    -0.8034303460
 ----------------------------------------------------------------

    9   -1510.2750834790      5.37E-09 Convergence criterion met
 Total energy in the final basis set = -1510.27508348
 Final energy is   -1510.27508347899
 **  OPTIMIZATION CONVERGED  **

                    Orbital Energies (a.u.)
 --------------------------------------------------------------

 Alpha MOs
 -- Occupied --
-18.943 -18.920 -18.919 -18.917 -18.903 -18.902 -18.875 -18.867
-18.861 -18.853 -10.118 -10.096 -10.091 -10.089 -10.080 -10.076
-10.067 -10.065 -10.055 -10.050 -10.046 -10.040 -10.039 -10.037
-10.026 -10.025 -10.013 -10.006  -9.999  -9.993  -1.025  -1.002
 -0.998  -0.993  -0.980  -0.955  -0.950  -0.933  -0.926  -0.918
 -0.769  -0.744  -0.731  -0.719  -0.707  -0.698  -0.684  -0.656
 -0.646  -0.623  -0.595  -0.571  -0.551  -0.543  -0.530  -0.518
 -0.514  -0.498  -0.489  -0.473  -0.463  -0.458  -0.449  -0.438
 -0.430  -0.423  -0.413  -0.408  -0.408  -0.404  -0.398  -0.397
 -0.393  -0.386  -0.370  -0.364  -0.359  -0.351  -0.349  -0.342
 -0.339  -0.337  -0.335  -0.333  -0.328  -0.319  -0.314  -0.313
 -0.308  -0.302  -0.292  -0.288  -0.285  -0.280  -0.276  -0.266
 -0.264  -0.250  -0.245  -0.240  -0.234  -0.231  -0.213  -0.189
 -0.172  -0.167  -0.161  -0.159  -0.157  -0.145  -0.141  -0.134
 -0.123

          Ground-State Mulliken Net Atomic Charges

     Atom                 Charge (a.u.)
  ----------------------------------------
      1 O                    -0.228533
      2 C                     0.218243
      3 C                    -0.083314
      4 C                    -0.076154
      5 C                     0.229246
      6 O                    -0.174515
      7 C                    -0.041604
      8 C                    -0.047804
      9 O                    -0.179908
     10 C                     0.209461
     11 C                    -0.084225
     12 C                    -0.097284
     13 C                     0.200147
     14 O                    -0.226910
     15 O                    -0.176886
     16 O                    -0.161143
     17 O                    -0.204501
     18 C                    -0.126454
     19 C                     0.023999
     20 C                    -0.150649
     21 C                    -0.143437
     22 C                     0.025782
     23 O                    -0.189022
     24 H                     0.095556
     25 H                     0.108387
     26 H                     0.078215
     27 H                     0.070285
     28 H                     0.090668
     29 H                     0.071525
     30 H                     0.072554
     31 H                     0.079509
     32 O                    -0.185329
     33 C                    -0.128848
     34 C                     0.024773
     35 C                    -0.142271
     36 C                    -0.144214
     37 C                     0.025653
     38 O                    -0.191087
     39 H                     0.085134
     40 H                     0.089203
     41 H                     0.090824
     42 H                     0.091075
     43 H                     0.079768
     44 H                     0.075078
     45 H                     0.081168
     46 H                     0.074669
     47 H                     0.099787
     48 H                     0.087609
     49 H                     0.085816
     50 H                     0.090446
     51 H                     0.085393
     52 H                     0.085074
     53 H                     0.090420
     54 H                     0.084186
     55 H                     0.087789
     56 H                     0.096648
  ----------------------------------------
  Sum of atomic charges =     0.000000

                    Cartesian Multipole Moments
 -----------------------------------------------------------------
    Charge (ESU x 10^10)
                -0.0000
    Dipole Moment (Debye)
         X       4.0548      Y       2.6410      Z       0.6236
       Tot       4.8791
    Quadrupole Moments (Debye-Ang)
        XX    -160.2516     XY      -2.5832     YY    -151.3892
        XZ      -1.3965     YZ      -5.2590     ZZ    -153.1752

 Total job time:  67.98s(wall), 3239.12s(cpu)
        *  Thank you very much for using Q-Chem.  Have a nice day.  *
