 Q-Chem 5.0, Q-Chem, Inc., Pleasanton, CA (2017)
 Q-Chem 5.0.1 for Intel X86 EM64T Linux

User input:
--------------------------------------------------------------
$molecule
0  1
O 2.0606525503 -2.1259120731 -1.0753334451
C 2.7537536424 -1.1040919891 -0.8666163722
C 3.0396156056 -0.4316589341 0.5318119741
C 2.4743018734 1.0356697099 0.6906086565
C 1.4445266474 1.3516439959 -0.4542624193
O 0.8000699476 2.5805759057 -0.142187666
C 0.3678149347 3.4540150088 -1.2647535324
C -0.9541903851 2.9124038572 -1.969291665
O -0.8547721206 1.4490497438 -1.947540169
C -2.0328138797 0.7331036314 -1.5510345336
C -1.4327587828 -0.5640778514 -0.890220583
C -1.6578829889 -0.6580918668 0.6812338082
C -2.5029027963 0.5187405746 1.2665741781
O -2.0667394382 1.498265071 1.9140106318
O 3.6796903297 -0.5498334767 -1.8171274373
O -3.8881672275 0.3083123164 0.9775949893
O -3.1993222247 1.1645277767 -1.6437826739
C -4.6916725984 1.4458936777 1.4778231631
C -2.0659701136 -1.9394542299 -1.3635248095
C -1.0318412052 -3.0757389439 -0.9771905066
C -1.2759738872 -3.186312756 0.5734851114
C -2.3726478626 -2.0706541882 0.7921923305
O -3.1971677503 -2.1520572336 -0.4347905782
H -0.3544648761 -0.5328884148 -1.1233360897
H -0.667178879 -0.6411689323 1.1927514157
H -2.4183971404 -1.953753594 -2.413109943
H -1.2766450164 -4.0169790387 -1.4941722333
H 0.0109902573 -2.7908621086 -1.2086537977
H -1.6716887056 -4.17562185 0.8540336502
H -0.3642332959 -2.9881905778 1.1589534036
H -3.0054385143 -2.197852483 1.6916271389
O 1.3536845996 0.6740903233 -1.5047262271
C 3.4362540307 -1.1459432971 -3.1486876237
C 2.3096282424 -1.1770166476 1.7254975343
C 3.087829986 -0.840656485 3.05326007
C 2.7053208662 0.6757152032 3.2466737412
C 1.6847509118 0.8970102228 2.0630983134
O 1.0410453147 -0.4297810674 1.9033418994
H 4.1350260555 -0.4350911464 0.6760121874
H 3.2574407468 1.8146381487 0.7075531138
H 2.4392946799 -0.8550229679 -3.539436059
H 2.1029588806 -2.2476185706 1.5313489472
H 2.7112258961 -1.4573717579 3.8849267278
H 4.1734233476 -0.9997915186 2.9553210644
H 2.2168807932 0.8519693809 4.2180080471
H 3.5772709655 1.3443017701 3.1632409174
H 0.9168527129 1.6797409333 2.222239217
H 3.4950692126 -2.2532654562 -3.1196242545
H 4.2241901747 -0.7485391269 -3.814618821
H -5.747067949 1.183894794 1.2794110865
H -4.439953446 2.3851009809 0.9439502556
H -4.5443685825 1.6075623887 2.5654509795
H -1.86115957 3.2554919338 -1.4257624867
H -1.0029978138 3.2989431291 -3.0118574106
H 1.1830862456 3.539694783 -2.0154202713
H 0.1835315719 4.4450590968 -0.803430346
$end

$rem
JOBTYPE                   OPT
METHOD                    B3LYP
DFT_D                     d3_op
BASIS                     STO-3G
GEOM_OPT_MAX_CYCLES       100
GEOM_OPT_TOL_GRADIENT     300
GEOM_OPT_TOL_DISPLACEMENT 1200
GEOM_OPT_TOL_ENERGY       100
SYMMETRY                  False
THRESH                    12
SCF_CONVERGENCE           8
MAX_SUB_FILE_NUM          128
MEM_STATIC                400
MEM_TOTAL                 4000
$end
--------------------------------------------------------------

   16   -1510.2750831363      5.20E-09 Convergence criterion met
 Total energy in the final basis set = -1510.27508314
   15   -1510.2394088724      4.31E-09 Convergence criterion met
 Total energy in the final basis set = -1510.23940887
   14   -1510.2776613737      3.96E-09 Convergence criterion met
 Total energy in the final basis set = -1510.27766137
   15   -1510.2813358463      9.34E-09 Convergence criterion met
 Total energy in the final basis set = -1510.28133585
   13   -1510.2854231051      9.01E-09 Convergence criterion met
 Total energy in the final basis set = -1510.28542311
   14   -1510.2898111456      2.41E-09 Convergence criterion met
 Total energy in the final basis set = -1510.28981115
   14   -1510.2849337962      5.09E-09 Convergence criterion met
 Total energy in the final basis set = -1510.28493380
   14   -1510.2928881210      5.71E-09 Convergence criterion met
    9   -1510.3054549610      6.26E-09 Convergence criterion met
 Total energy in the final basis set = -1510.30545496
    9   -1510.3054527486      5.05E-09 Convergence criterion met
 Total energy in the final basis set = -1510.30545275
    9   -1510.3054501000      5.36E-09 Convergence criterion met
 Total energy in the final basis set = -1510.30545010
    9   -1510.3054487354      4.99E-09 Convergence criterion met
 Total energy in the final basis set = -1510.30544874
    9   -1510.3054471623      5.17E-09 Convergence criterion met
 Total energy in the final basis set = -1510.30544716
    9   -1510.3054454738      5.68E-09 Convergence criterion met
 Total energy in the final basis set = -1510.30544547

             Standard Nuclear Orientation (Angstroms)
    I     Atom           X                Y                Z
 ----------------------------------------------------------------
    1      O       1.8598889931    -1.1788938763    -1.2195802964
    2      C       2.8384640143    -0.4901856672    -0.8386650480
    3      C       3.1065038304     0.0608746727     0.6110075332
    4      C       2.2528419841     1.3495206541     0.9480305067
    5      C       1.6153331562     1.9954045124    -0.3238753525
    6      O       0.8335135766     3.1255081501     0.0668519632
    7      C       0.1351494539     3.7065397954    -1.1066168993
    8      C      -1.2979103122     3.0756374569    -1.2643040305
    9      O      -1.1913909210     1.6264890379    -1.5464363502
   10      C      -1.2765413702     0.8750018545    -0.3265249887
   11      C      -0.9643254126    -0.6222864651    -0.6218399148
   12      C      -1.4825649728    -1.6054250197     0.5059622158
   13      C      -2.1987511997    -0.8920680290     1.7050155525
   14      O      -1.7557313769    -0.7437553249     2.8647260352
   15      O       3.9761795426    -0.2117872542    -1.6556659517
   16      O      -3.5147952208    -0.4907092329     1.2919877087
   17      O      -1.5217512005     1.3982871659     0.7866509165
   18      C      -4.1732466195     0.2542727876     2.3860665520
   19      C      -1.7250937348    -1.1829879633    -1.8939886843
   20      C      -1.0108438125    -2.5275270203    -2.3160354578
   21      C      -1.5411728789    -3.5102068558    -1.2068977814
   22      C      -2.4455802710    -2.5412881639    -0.3449524876
   23      O      -3.0302355601    -1.6279174910    -1.3529361542
   24      H       0.1423191138    -0.7333678081    -0.7452046190
   25      H      -0.6315427507    -2.1648617715     0.9306998986
   26      H      -1.8667095720    -0.4405575847    -2.7027087313
   27      H      -1.3290774294    -2.8418790491    -3.3228372694
   28      H       0.0860482032    -2.4202548942    -2.2984058667
   29      H      -2.1485109133    -4.3213587291    -1.6394689308
   30      H      -0.7290919741    -3.9549388219    -0.6100166415
   31      H      -3.2461417395    -3.0356661929     0.2385134388
   32      O       1.7772334396     1.6220991591    -1.5096114627
   33      C       3.7231764811    -0.6774506896    -3.0391540902
   34      C       2.5151882745    -0.9591998594     1.6703354292
   35      C       2.9290351329    -0.5100000826     3.1285515178
   36      C       1.9188355084     0.6706172404     3.3881926805
   37      C       1.1964123507     0.7564861223     1.9915541935
   38      O       1.0684613824    -0.6637479520     1.6002823192
   39      H       4.1892819796     0.2409500542     0.7284746573
   40      H       2.8745089601     2.1199224513     1.4392199344
   41      H       2.8501044264    -0.1551052695    -3.4809448560
   42      H       2.7038627180    -2.0234405418     1.4306404935
   43      H       2.7822843307    -1.3357677449     3.8422743229
   44      H       3.9812001226    -0.1856495581     3.1747391741
   45      H       1.1894152236     0.4102663585     4.1718757049
   46      H       2.4203369176     1.6120093839     3.6636352633
   47      H       0.1972773160     1.2403834543     1.9700253890
   48      H       3.5388089447    -1.7706575981    -3.0754966512
   49      H       4.6346891063    -0.4349657666    -3.6155826164
   50      H      -5.1836110781     0.5117743266     2.0183133761
   51      H      -3.6186993033     1.1840768972     2.6287646137
   52      H      -4.2586669119    -0.3553692215     3.3090382025
   53      H      -1.8805400169     3.2333660318    -0.3313906832
   54      H      -1.8149010835     3.5407025605    -2.1283939507
   55      H       0.7291085825     3.5247668048    -2.0275534276
   56      H       0.0460374875     4.7953570166    -0.9154645602
 ----------------------------------------------------------------

    9   -1510.3054428795      8.50E-09 Convergence criterion met
 Total energy in the final basis set = -1510.30544288
 Final energy is   -1510.30544287947
 **  OPTIMIZATION CONVERGED  **

                    Orbital Energies (a.u.)
 --------------------------------------------------------------

 Alpha MOs
 -- Occupied --
-18.947 -18.936 -18.934 -18.907 -18.891 -18.886 -18.874 -18.872
-18.867 -18.845 -10.111 -10.104 -10.096 -10.079 -10.075 -10.074
-10.062 -10.060 -10.053 -10.045 -10.041 -10.041 -10.039 -10.038
-10.018 -10.015 -10.011 -10.008 -10.002  -9.999  -1.028  -1.011
 -1.008  -0.985  -0.970  -0.951  -0.949  -0.935  -0.934  -0.910
 -0.764  -0.744  -0.725  -0.718  -0.703  -0.698  -0.684  -0.662
 -0.641  -0.618  -0.592  -0.570  -0.545  -0.537  -0.527  -0.520
 -0.514  -0.500  -0.486  -0.470  -0.462  -0.456  -0.448  -0.436
 -0.431  -0.423  -0.415  -0.412  -0.410  -0.403  -0.397  -0.393
 -0.391  -0.380  -0.370  -0.365  -0.358  -0.353  -0.349  -0.344
 -0.341  -0.331  -0.327  -0.326  -0.320  -0.316  -0.313  -0.308
 -0.304  -0.302  -0.294  -0.288  -0.286  -0.276  -0.272  -0.267
 -0.260  -0.255  -0.250  -0.246  -0.233  -0.230  -0.214  -0.199
 -0.176  -0.170  -0.163  -0.155  -0.152  -0.149  -0.143  -0.127
 -0.124

          Ground-State Mulliken Net Atomic Charges

     Atom                 Charge (a.u.)
  ----------------------------------------
      1 O                    -0.224202
      2 C                     0.223123
      3 C                    -0.081184
      4 C                    -0.081268
      5 C                     0.210553
      6 O                    -0.168188
      7 C                    -0.052582
      8 C                    -0.053575
      9 O                    -0.170835
     10 C                     0.212786
     11 C                    -0.091864
     12 C                    -0.080832
     13 C                     0.211715
     14 O                    -0.222570
     15 O                    -0.166948
     16 O                    -0.172466
     17 O                    -0.220104
     18 C                    -0.128222
     19 C                     0.023084
     20 C                    -0.146654
     21 C                    -0.143607
     22 C                     0.024988
     23 O                    -0.192509
     24 H                     0.118036
     25 H                     0.092154
     26 H                     0.083732
     27 H                     0.070879
     28 H                     0.084381
     29 H                     0.072400
     30 H                     0.072122
     31 H                     0.079755
     32 O                    -0.208400
     33 C                    -0.127631
     34 C                     0.025539
     35 C                    -0.144620
     36 C                    -0.142264
     37 C                     0.021106
     38 O                    -0.187734
     39 H                     0.086309
     40 H                     0.087748
     41 H                     0.095244
     42 H                     0.082236
     43 H                     0.079460
     44 H                     0.072110
     45 H                     0.085405
     46 H                     0.072243
     47 H                     0.104724
     48 H                     0.088117
     49 H                     0.089536
     50 H                     0.084969
     51 H                     0.087722
     52 H                     0.083902
     53 H                     0.101228
     54 H                     0.090421
     55 H                     0.099290
     56 H                     0.091243
  ----------------------------------------
  Sum of atomic charges =    -0.000000

                    Cartesian Multipole Moments
 -----------------------------------------------------------------
    Charge (ESU x 10^10)
                -0.0000
    Dipole Moment (Debye)
         X       2.8281      Y       1.8564      Z      -0.5828
       Tot       3.4328
    Quadrupole Moments (Debye-Ang)
        XX    -155.3451     XY      -4.4275     YY    -147.3665
        XZ      -0.2170     YZ      -1.7051     ZZ    -158.2049

 Total job time:  188.73s(wall), 9012.19s(cpu)
        *  Thank you very much for using Q-Chem.  Have a nice day.  *
