 Q-Chem 5.0, Q-Chem, Inc., Pleasanton, CA (2017)
 Q-Chem 5.0.1 for Intel X86 EM64T Linux

User input:
--------------------------------------------------------------
$molecule
0  1
O -3.94934 -3.66094 2.70899
C -3.26408 -4.56952 2.26188
C -3.36658 -6.02376 2.66595
C -2.09454 -6.69253 3.21231
C -0.90933 -5.78599 3.46037
O -0.0458 -6.38031 4.33589
C 1.14856 -5.62123 4.55164
C 0.96728 -4.6825 5.73994
O -0.40274 -4.25982 5.82518
C -1.00424 -4.46947 7.02242
C -2.47778 -4.77464 6.89512
C -2.96344 -5.97643 7.7186
C -2.01776 -6.46325 8.79813
O -1.12514 -7.28372 8.64124
O -2.4526 -4.30298 1.2015
O -2.22468 -6.01193 10.06821
O -0.43198 -4.30197 8.09246
C -1.46739 -6.37278 11.16324
C -3.37086 -3.65127 7.46275
C -4.74432 -3.70828 6.79241
C -5.29929 -4.97752 7.4048
C -4.18258 -5.30643 8.40278
O -3.67096 -4.05064 8.7726
H -2.67723 -4.77433 5.81731
H -3.29022 -6.87361 7.16202
H -2.92725 -2.63759 7.35021
H -5.32742 -2.84128 7.17819
H -4.74404 -3.67985 5.68135
H -6.24392 -4.72393 7.93511
H -5.47507 -5.81762 6.70037
H -4.59025 -5.92635 9.23218
O -0.80086 -4.62093 3.10135
C -2.28852 -3.0532 0.64106
C -4.42265 -6.41787 3.69628
C -4.80898 -7.88971 3.52032
C -3.5635 -8.57496 4.05706
C -2.72292 -7.35768 4.46018
O -3.7075 -6.45099 4.88438
H -3.66065 -6.51022 1.708
H -1.70226 -7.49222 2.54507
H -1.88447 -2.34559 1.39633
H -5.32133 -5.76448 3.67352
H -5.65721 -8.11008 4.20713
H -5.09469 -8.16746 2.48292
H -3.8461 -9.13985 4.97378
H -3.0453 -9.25392 3.34621
H -1.96952 -7.65658 5.21963
H -3.25939 -2.67631 0.2543
H -1.57122 -3.12417 -0.20205
H -1.85855 -5.85419 12.06238
H -0.40829 -6.07411 11.01005
H -1.52948 -7.46976 11.3273
H 1.25646 -5.2699 6.64323
H 1.66461 -3.82105 5.66691
H 1.41613 -5.01701 3.6534
H 2.0266 -6.28535 4.69907
$end

$opt
CONSTRAINT
tors           1           2           3           4    -122.758
tors           3           4           5           6    +159.528
tors           4           5           6           7    +176.007
tors           5           6           7           8     +91.387
tors           6           7           8           9     -32.021
tors           7           8           9          10    +125.997
tors           8           9          10          11    -147.175
tors           9          10          11          12    +133.079
tors          11          12          13          14     -87.865
ENDCONSTRAINT
$end

$rem
JOBTYPE                   OPT
METHOD                    B3LYP
DFT_D                     d3_op
BASIS                     STO-3G
GEOM_OPT_MAX_CYCLES       100
GEOM_OPT_TOL_GRADIENT     300
GEOM_OPT_TOL_DISPLACEMENT 1200
GEOM_OPT_TOL_ENERGY       100
SYMMETRY                  False
THRESH                    12
SCF_CONVERGENCE           8
MAX_SUB_FILE_NUM          128
MEM_STATIC                400
MEM_TOTAL                 4000
$end
--------------------------------------------------------------

   16   -1510.1408320204      2.02E-09 Convergence criterion met
 Total energy in the final basis set = -1510.14083202
   13   -1510.2124066130      8.88E-09 Convergence criterion met
 Total energy in the final basis set = -1510.21240661
   14   -1510.2338359507      6.64E-09 Convergence criterion met
 Total energy in the final basis set = -1510.23383595
   14   -1510.2683886074      4.39E-09 Convergence criterion met
 Total energy in the final basis set = -1510.26838861
   13   -1510.2759670957      4.27E-09 Convergence criterion met
 Total energy in the final basis set = -1510.27596710
   13   -1510.2803643507      3.33E-09 Convergence criterion met
 Total energy in the final basis set = -1510.28036435
   13   -1510.2824514374      2.88E-09 Convergence criterion met
 Total energy in the final basis set = -1510.28245144
   12   -1510.2830656175      6.32E-09 Convergence criterion met
    9   -1510.2838090640      5.71E-09 Convergence criterion met
 Total energy in the final basis set = -1510.28380906
    9   -1510.2838135112      6.29E-09 Convergence criterion met
 Total energy in the final basis set = -1510.28381351
    9   -1510.2838163769      6.60E-09 Convergence criterion met
 Total energy in the final basis set = -1510.28381638
    9   -1510.2838114005      5.53E-09 Convergence criterion met
 Total energy in the final basis set = -1510.28381140
    9   -1510.2838028769      4.38E-09 Convergence criterion met
 Total energy in the final basis set = -1510.28380288
    9   -1510.2838125271      3.27E-09 Convergence criterion met
 Total energy in the final basis set = -1510.28381253

             Standard Nuclear Orientation (Angstroms)
    I     Atom           X                Y                Z
 ----------------------------------------------------------------
    1      O      -3.5519272094    -0.7995481160     1.8706397678
    2      C      -3.7849282128    -0.3623417594     0.7234104883
    3      C      -3.1836568828    -0.8890982726    -0.6311058121
    4      C      -2.4117111982     0.1890735519    -1.4938769293
    5      C      -2.0534560491     1.4861469562    -0.6742884260
    6      O      -0.9856083472     2.1655190492    -1.3403941447
    7      C      -0.6778244829     3.4443397204    -0.6567210432
    8      C       0.4387509174     3.3054801327     0.4523846733
    9      O       0.3647930668     1.9638303482     1.0715502651
   10      C       1.6477306466     1.3075011835     1.0054797709
   11      C       1.4343902708    -0.2284848461     0.8494080358
   12      C       2.3377089923    -0.8733961802    -0.2883272617
   13      C       3.3440365667     0.1399674444    -0.9392880929
   14      O       3.1075916519     0.8889460582    -1.9139625640
   15      O      -4.8700827469     0.5182904092     0.3968781797
   16      O       4.6071282203     0.0636752618    -0.2746015220
   17      O       2.7281588832     1.9360730889     0.9302748230
   18      C       5.5184658279     1.0976454359    -0.8133290802
   19      C       1.8822166102    -1.0858191469     2.1127385906
   20      C       1.1588098780    -2.4855883420     2.0113983914
   21      C       1.9641765308    -3.1493866591     0.8336871728
   22      C       3.0438647955    -2.0335455765     0.5275457574
   23      O       3.3003074295    -1.4142528761     1.8479143040
   24      H       0.3707738646    -0.4212130167     0.5968821496
   25      H       1.6891685335    -1.2727650729    -1.0881440759
   26      H       1.7778186055    -0.5685058837     3.0861701688
   27      H       1.2753156790    -3.0500339258     2.9505955715
   28      H       0.0859966453    -2.3806342025     1.7861771650
   29      H       2.4506811014    -4.0859845033     1.1490552522
   30      H       1.3282758184    -3.3548575870    -0.0424275882
   31      H       3.9888796137    -2.3994598766     0.0826390877
   32      O      -2.5654181486     1.8682898715     0.4008152671
   33      C      -5.4772191856     1.0451643980     1.6382818824
   34      C      -2.0879899401    -2.0174713261    -0.4681339275
   35      C      -2.0625434514    -2.8585978503    -1.8019313216
   36      C      -1.4206633482    -1.8182367317    -2.7964024338
   37      C      -1.0873906726    -0.6167872230    -1.8270055457
   38      O      -0.8018364879    -1.2860598183    -0.5353805314
   39      H      -4.0397131676    -1.2732058132    -1.2157135917
   40      H      -2.9709569592     0.4762832892    -2.4027317548
   41      H      -4.7784621057     1.7285021003     2.1631372499
   42      H      -2.1604025830    -2.5929277768     0.4754391953
   43      H      -1.4227636514    -3.7478723218    -1.6830435460
   44      H      -3.0681674107    -3.1839264727    -2.1129151673
   45      H      -0.4991324698    -2.2102559333    -3.2552222439
   46      H      -2.1128179865    -1.5168430039    -3.5990157155
   47      H      -0.2363024706     0.0243532560    -2.1282890963
   48      H      -5.7630726434     0.2284594442     2.3320853112
   49      H      -6.3782494503     1.6054561239     1.3278327119
   50      H       6.4790891243     0.9644962623    -0.2828982256
   51      H       5.1244574045     2.1159608358    -0.6183667829
   52      H       5.6745256573     0.9798823418    -1.9054444539
   53      H       1.4544153389     3.4521381234     0.0271708715
   54      H       0.2704749115     4.0872516215     1.2247331592
   55      H      -1.6050985269     3.8411572169    -0.1930109897
   56      H      -0.3276185333     4.1402242464    -1.4459630453
 ----------------------------------------------------------------

    9   -1510.2838118352      2.50E-09 Convergence criterion met
 Total energy in the final basis set = -1510.28381184
 Final energy is   -1510.28381183521
 **  OPTIMIZATION CONVERGED  **

                    Orbital Energies (a.u.)
 --------------------------------------------------------------

 Alpha MOs
 -- Occupied --
-18.943 -18.924 -18.922 -18.921 -18.904 -18.888 -18.875 -18.874
-18.867 -18.855 -10.108 -10.096 -10.093 -10.085 -10.076 -10.069
-10.069 -10.068 -10.056 -10.051 -10.048 -10.047 -10.047 -10.040
-10.029 -10.028 -10.023 -10.013 -10.009 -10.007  -1.022  -1.005
 -1.002  -0.995  -0.985  -0.957  -0.945  -0.929  -0.929  -0.921
 -0.771  -0.750  -0.732  -0.719  -0.709  -0.705  -0.690  -0.657
 -0.648  -0.617  -0.595  -0.573  -0.552  -0.546  -0.535  -0.526
 -0.513  -0.502  -0.486  -0.474  -0.465  -0.461  -0.453  -0.440
 -0.427  -0.424  -0.419  -0.410  -0.409  -0.403  -0.401  -0.399
 -0.392  -0.382  -0.372  -0.367  -0.358  -0.355  -0.348  -0.344
 -0.342  -0.339  -0.334  -0.333  -0.329  -0.320  -0.317  -0.315
 -0.312  -0.306  -0.297  -0.293  -0.291  -0.282  -0.278  -0.271
 -0.266  -0.255  -0.248  -0.246  -0.240  -0.236  -0.218  -0.188
 -0.172  -0.166  -0.163  -0.161  -0.158  -0.150  -0.147  -0.137
 -0.131

          Ground-State Mulliken Net Atomic Charges

     Atom                 Charge (a.u.)
  ----------------------------------------
      1 O                    -0.216974
      2 C                     0.216185
      3 C                    -0.081501
      4 C                    -0.075769
      5 C                     0.218515
      6 O                    -0.169751
      7 C                    -0.050266
      8 C                    -0.052140
      9 O                    -0.177488
     10 C                     0.209585
     11 C                    -0.094559
     12 C                    -0.080039
     13 C                     0.207807
     14 O                    -0.226904
     15 O                    -0.173025
     16 O                    -0.162811
     17 O                    -0.209852
     18 C                    -0.126442
     19 C                     0.025536
     20 C                    -0.142420
     21 C                    -0.144274
     22 C                     0.026202
     23 O                    -0.187669
     24 H                     0.113489
     25 H                     0.082783
     26 H                     0.080786
     27 H                     0.074417
     28 H                     0.077464
     29 H                     0.073817
     30 H                     0.072470
     31 H                     0.083746
     32 O                    -0.203884
     33 C                    -0.128056
     34 C                     0.024750
     35 C                    -0.142249
     36 C                    -0.144802
     37 C                     0.024032
     38 O                    -0.194061
     39 H                     0.085405
     40 H                     0.089025
     41 H                     0.092027
     42 H                     0.092104
     43 H                     0.078579
     44 H                     0.075987
     45 H                     0.079728
     46 H                     0.076260
     47 H                     0.097794
     48 H                     0.088251
     49 H                     0.086726
     50 H                     0.088958
     51 H                     0.091978
     52 H                     0.084905
     53 H                     0.095958
     54 H                     0.084601
     55 H                     0.094076
     56 H                     0.090989
  ----------------------------------------
  Sum of atomic charges =    -0.000000

                    Cartesian Multipole Moments
 -----------------------------------------------------------------
    Charge (ESU x 10^10)
                -0.0000
    Dipole Moment (Debye)
         X      -2.6113      Y      -0.2314      Z      -2.6458
       Tot       3.7246
    Quadrupole Moments (Debye-Ang)
        XX    -158.1394     XY      -0.1166     YY    -147.3333
        XZ      -0.0317     YZ       3.9063     ZZ    -161.8606

 Total job time:  65.49s(wall), 3122.53s(cpu)
        *  Thank you very much for using Q-Chem.  Have a nice day.  *
