 Q-Chem 5.0, Q-Chem, Inc., Pleasanton, CA (2017)
 Q-Chem 5.0.1 for Intel X86 EM64T Linux

User input:
--------------------------------------------------------------
$molecule
0  1
O -3.5519272094 -0.799548116 1.8706397678
C -3.7849282128 -0.3623417594 0.7234104883
C -3.1836568828 -0.8890982726 -0.6311058121
C -2.4117111982 0.1890735519 -1.4938769293
C -2.0534560491 1.4861469562 -0.674288426
O -0.9856083472 2.1655190492 -1.3403941447
C -0.6778244829 3.4443397204 -0.6567210432
C 0.4387509174 3.3054801327 0.4523846733
O 0.3647930668 1.9638303482 1.0715502651
C 1.6477306466 1.3075011835 1.0054797709
C 1.4343902708 -0.2284848461 0.8494080358
C 2.3377089923 -0.8733961802 -0.2883272617
C 3.3440365667 0.1399674444 -0.9392880929
O 3.1075916519 0.8889460582 -1.913962564
O -4.8700827469 0.5182904092 0.3968781797
O 4.6071282203 0.0636752618 -0.274601522
O 2.7281588832 1.9360730889 0.930274823
C 5.5184658279 1.0976454359 -0.8133290802
C 1.8822166102 -1.0858191469 2.1127385906
C 1.158809878 -2.485588342 2.0113983914
C 1.9641765308 -3.1493866591 0.8336871728
C 3.0438647955 -2.0335455765 0.5275457574
O 3.3003074295 -1.4142528761 1.847914304
H 0.3707738646 -0.4212130167 0.5968821496
H 1.6891685335 -1.2727650729 -1.0881440759
H 1.7778186055 -0.5685058837 3.0861701688
H 1.275315679 -3.0500339258 2.9505955715
H 0.0859966453 -2.3806342025 1.786177165
H 2.4506811014 -4.0859845033 1.1490552522
H 1.3282758184 -3.354857587 -0.0424275882
H 3.9888796137 -2.3994598766 0.0826390877
O -2.5654181486 1.8682898715 0.4008152671
C -5.4772191856 1.045164398 1.6382818824
C -2.0879899401 -2.0174713261 -0.4681339275
C -2.0625434514 -2.8585978503 -1.8019313216
C -1.4206633482 -1.8182367317 -2.7964024338
C -1.0873906726 -0.616787223 -1.8270055457
O -0.8018364879 -1.2860598183 -0.5353805314
H -4.0397131676 -1.2732058132 -1.2157135917
H -2.9709569592 0.4762832892 -2.4027317548
H -4.7784621057 1.7285021003 2.1631372499
H -2.160402583 -2.5929277768 0.4754391953
H -1.4227636514 -3.7478723218 -1.683043546
H -3.0681674107 -3.1839264727 -2.1129151673
H -0.4991324698 -2.2102559333 -3.2552222439
H -2.1128179865 -1.5168430039 -3.5990157155
H -0.2363024706 0.024353256 -2.1282890963
H -5.7630726434 0.2284594442 2.3320853112
H -6.3782494503 1.6054561239 1.3278327119
H 6.4790891243 0.9644962623 -0.2828982256
H 5.1244574045 2.1159608358 -0.6183667829
H 5.6745256573 0.9798823418 -1.9054444539
H 1.4544153389 3.4521381234 0.0271708715
H 0.2704749115 4.0872516215 1.2247331592
H -1.6050985269 3.8411572169 -0.1930109897
H -0.3276185333 4.1402242464 -1.4459630453
$end

$rem
JOBTYPE                   OPT
METHOD                    B3LYP
DFT_D                     d3_op
BASIS                     STO-3G
GEOM_OPT_MAX_CYCLES       100
GEOM_OPT_TOL_GRADIENT     300
GEOM_OPT_TOL_DISPLACEMENT 1200
GEOM_OPT_TOL_ENERGY       100
SYMMETRY                  False
THRESH                    12
SCF_CONVERGENCE           8
MAX_SUB_FILE_NUM          128
MEM_STATIC                400
MEM_TOTAL                 4000
$end
--------------------------------------------------------------

   15   -1510.2837832406      8.85E-09 Convergence criterion met
 Total energy in the final basis set = -1510.28378324
   14   -1510.2861107103      2.28E-09 Convergence criterion met
 Total energy in the final basis set = -1510.28611071
   14   -1510.2908148158      2.28E-09 Convergence criterion met
 Total energy in the final basis set = -1510.29081482
   14   -1510.2945454648      3.34E-09 Convergence criterion met
 Total energy in the final basis set = -1510.29454546
   14   -1510.2949327504      3.59E-09 Convergence criterion met
 Total energy in the final basis set = -1510.29493275
   14   -1510.2927298653      6.69E-09 Convergence criterion met
 Total energy in the final basis set = -1510.29272987
   14   -1510.2955223365      7.16E-09 Convergence criterion met
 Total energy in the final basis set = -1510.29552234
   13   -1510.2967560419      8.28E-09 Convergence criterion met
   13   -1510.3057147024      1.58E-09 Convergence criterion met
 Total energy in the final basis set = -1510.30571470
   12   -1510.3058037374      6.81E-09 Convergence criterion met
 Total energy in the final basis set = -1510.30580374
   12   -1510.3057683448      3.84E-09 Convergence criterion met
 Total energy in the final basis set = -1510.30576834
   12   -1510.3058127174      3.28E-09 Convergence criterion met
 Total energy in the final basis set = -1510.30581272
   10   -1510.3058014490      7.89E-09 Convergence criterion met
 Total energy in the final basis set = -1510.30580145
    9   -1510.3058130947      9.27E-09 Convergence criterion met
 Total energy in the final basis set = -1510.30581309

             Standard Nuclear Orientation (Angstroms)
    I     Atom           X                Y                Z
 ----------------------------------------------------------------
    1      O      -1.8627165254    -0.9253006459     1.2908256071
    2      C      -2.8121643492    -0.7068215966     0.4996745800
    3      C      -2.7885682275    -0.7941656688    -1.0721809152
    4      C      -1.8829733592     0.3303730123    -1.7242019196
    5      C      -1.6856014876     1.5297486037    -0.7355679297
    6      O      -0.7841691878     2.5004205328    -1.2730414186
    7      C      -0.7758060818     3.7116158899    -0.4086213475
    8      C       0.3006328454     3.5973035817     0.7397371892
    9      O       0.2244060301     2.2450884914     1.3366650073
   10      C       1.2446994362     1.4169963249     0.7597214061
   11      C       0.9708592504    -0.0727203611     1.1038530964
   12      C       1.7719962936    -1.0570681279     0.1557069529
   13      C       2.6064609757    -0.3161093959    -0.9476007476
   14      O       2.1716279346     0.1009543827    -2.0538691637
   15      O      -4.1586941293    -0.4768132300     0.9201978309
   16      O       3.9851458115    -0.2689778822    -0.5878720429
   17      O       2.1942469687     1.8704283919     0.0773515020
   18      C       4.7444277635     0.4895843305    -1.6071646982
   19      C       1.5480318642    -0.4913860579     2.5248220045
   20      C       0.8872385253    -1.8751749354     2.9039916848
   21      C       1.6849118485    -2.8560878226     1.9670614941
   22      C       2.6436383236    -1.8496762674     1.2126718230
   23      O       2.9596779382    -0.8333611422     2.2452355357
   24      H      -0.1238208707    -0.2820265018     1.0579870793
   25      H       1.0318031453    -1.6993902263    -0.3650386272
   26      H       1.4804060028     0.2943715709     3.3022653382
   27      H       1.0496065604    -2.1067190700     3.9687270481
   28      H      -0.1946201881    -1.8736872977     2.6921565911
   29      H       2.2699215018    -3.5868818830     2.5481220199
   30      H       1.0289934162    -3.3983798853     1.2678231508
   31      H       3.5744952209    -2.2912873607     0.8089259743
   32      O      -2.3225606338     1.6828087178     0.3343339981
   33      C      -4.2076959613    -0.3441248319     2.3943473203
   34      C      -2.0021334130    -2.0935735075    -1.5184431894
   35      C      -2.0927750819    -2.2524515375    -3.0884614907
   36      C      -1.0311750475    -1.1914540925    -3.5685672825
   37      C      -0.6184737774    -0.5213514748    -2.2002326796
   38      O      -0.6010710129    -1.6882527167    -1.2860019449
   39      H      -3.8274486415    -0.7615413926    -1.4438663008
   40      H      -2.3854014379     0.7528692398    -2.6146902903
   41      H      -3.6018471010     0.5196225653     2.7363632834
   42      H      -2.2481351081    -3.0019958477    -0.9348361626
   43      H      -1.8153372171    -3.2745292191    -3.3914152475
   44      H      -3.1065682871    -2.0376911299    -3.4631924204
   45      H      -0.1564238490    -1.6808735560    -4.0262429125
   46      H      -1.4462319362    -0.4672933445    -4.2874796468
   47      H       0.4001609871    -0.0429411261    -2.1842280050
   48      H      -3.8379915188    -1.2595133895     2.8999398396
   49      H      -5.2701162991    -0.1799866580     2.6518002309
   50      H       5.7979301387     0.4788444844    -1.2723955893
   51      H       4.3831695139     1.5360144202    -1.6736574304
   52      H       4.6653525220     0.0216929780    -2.6098134394
   53      H       1.3220096221     3.7495559711     0.3300240064
   54      H       0.0839911174     4.3392161272     1.5343854719
   55      H      -1.7818157637     3.8552380200     0.0377169605
   56      H      -0.5297272155     4.5627326619    -1.0753460016
 ----------------------------------------------------------------

    9   -1510.3058129917      4.10E-09 Convergence criterion met
 Total energy in the final basis set = -1510.30581299
 Final energy is   -1510.30581299165
 **  OPTIMIZATION CONVERGED  **

                    Orbital Energies (a.u.)
 --------------------------------------------------------------

 Alpha MOs
 -- Occupied --
-18.945 -18.932 -18.931 -18.925 -18.887 -18.885 -18.875 -18.869
-18.868 -18.857 -10.107 -10.100 -10.094 -10.089 -10.076 -10.069
-10.061 -10.060 -10.052 -10.043 -10.041 -10.038 -10.037 -10.035
-10.018 -10.012 -10.009 -10.007 -10.002  -9.999  -1.024  -1.009
 -1.005  -0.997  -0.970  -0.952  -0.944  -0.934  -0.931  -0.921
 -0.762  -0.745  -0.722  -0.715  -0.702  -0.697  -0.686  -0.660
 -0.648  -0.615  -0.591  -0.569  -0.543  -0.535  -0.530  -0.520
 -0.508  -0.499  -0.486  -0.474  -0.458  -0.453  -0.448  -0.433
 -0.430  -0.422  -0.414  -0.413  -0.409  -0.405  -0.399  -0.398
 -0.392  -0.379  -0.368  -0.364  -0.359  -0.354  -0.351  -0.347
 -0.343  -0.340  -0.327  -0.322  -0.317  -0.315  -0.311  -0.308
 -0.300  -0.297  -0.294  -0.288  -0.285  -0.278  -0.273  -0.265
 -0.264  -0.255  -0.249  -0.245  -0.236  -0.228  -0.212  -0.195
 -0.174  -0.168  -0.163  -0.159  -0.154  -0.148  -0.142  -0.138
 -0.126

          Ground-State Mulliken Net Atomic Charges

     Atom                 Charge (a.u.)
  ----------------------------------------
      1 O                    -0.226059
      2 C                     0.222659
      3 C                    -0.079865
      4 C                    -0.081606
      5 C                     0.212170
      6 O                    -0.165499
      7 C                    -0.051682
      8 C                    -0.055794
      9 O                    -0.170780
     10 C                     0.209535
     11 C                    -0.094388
     12 C                    -0.095693
     13 C                     0.221023
     14 O                    -0.229986
     15 O                    -0.167347
     16 O                    -0.163389
     17 O                    -0.213066
     18 C                    -0.126166
     19 C                     0.025504
     20 C                    -0.146277
     21 C                    -0.143592
     22 C                     0.024048
     23 O                    -0.192914
     24 H                     0.113954
     25 H                     0.110222
     26 H                     0.078773
     27 H                     0.071114
     28 H                     0.086385
     29 H                     0.072172
     30 H                     0.073857
     31 H                     0.083584
     32 O                    -0.207803
     33 C                    -0.127740
     34 C                     0.026864
     35 C                    -0.145538
     36 C                    -0.142845
     37 C                     0.005360
     38 O                    -0.197100
     39 H                     0.085879
     40 H                     0.085768
     41 H                     0.094637
     42 H                     0.081386
     43 H                     0.076645
     44 H                     0.072294
     45 H                     0.077970
     46 H                     0.071536
     47 H                     0.120449
     48 H                     0.087501
     49 H                     0.088896
     50 H                     0.088414
     51 H                     0.093806
     52 H                     0.086130
     53 H                     0.101875
     54 H                     0.088640
     55 H                     0.095001
     56 H                     0.091077
  ----------------------------------------
  Sum of atomic charges =    -0.000000

                    Cartesian Multipole Moments
 -----------------------------------------------------------------
    Charge (ESU x 10^10)
                -0.0000
    Dipole Moment (Debye)
         X      -2.6084      Y       0.6235      Z      -1.1409
       Tot       2.9145
    Quadrupole Moments (Debye-Ang)
        XX    -157.5907     XY       1.0929     YY    -146.5878
        XZ      -3.1307     YZ       1.5710     ZZ    -156.6817

 Total job time:  114.50s(wall), 5464.54s(cpu)
        *  Thank you very much for using Q-Chem.  Have a nice day.  *
