 Q-Chem 5.0, Q-Chem, Inc., Pleasanton, CA (2017)
 Q-Chem 5.0.1 for Intel X86 EM64T Linux

User input:
--------------------------------------------------------------
$molecule
0  1
O -3.2411426769 -1.432127805 1.6119534499
C -3.6031147886 -0.7745265398 0.6130665512
C -3.0296332746 -0.8726957501 -0.8492479694
C -2.3409772144 0.4511188626 -1.3808805462
C -2.0879904063 1.4975166248 -0.2350170848
O -1.1957184316 2.4945020011 -0.7327250239
C -0.9966143038 3.5772619058 0.2640846762
C 0.2617375846 3.2200734472 1.1458788548
O 0.2727907959 1.7451596363 1.2704840451
C 1.5866714391 1.2197613526 1.0553387755
C 1.45813142 -0.3348103149 1.0218449038
C 2.2366104311 -0.9849678905 -0.1996297928
C 2.8166242218 0.0967806168 -1.1719621527
O 2.159108914 0.7275319346 -2.0335520403
O -4.798966077 0.0199036051 0.5542405244
O 4.2198879507 0.2531661789 -0.9652234332
O 2.6007612165 1.9270556071 0.8629322699
C 4.7344960593 1.3548603706 -1.8099440723
C 2.1991952393 -1.0303718144 2.2412968672
C 1.7348618259 -2.5398252911 2.2974850805
C 2.5528113954 -3.1567621079 1.1032116643
C 3.303256512 -1.877757429 0.5559393855
O 3.6061385813 -1.1074224854 1.78546259
H 0.3851849951 -0.5942086444 0.9531348073
H 1.5081484423 -1.5872170486 -0.7755908258
H 2.1313389041 -0.480215703 3.1999021877
H 2.0168344418 -2.9951686033 3.2600502734
H 0.6457060856 -2.6382090023 2.1631728402
H 3.277242045 -3.908912283 1.4545500318
H 1.905297351 -3.6163027265 0.3394692055
H 4.2305406777 -2.0756103762 -0.0147991005
O -2.5615134652 1.4824641232 0.9233108307
C -5.3698514533 0.1608780869 1.9109021985
C -1.8687931793 -1.9328049203 -1.0027275374
C -1.7765139014 -2.3441306089 -2.5225851298
C -1.1671333962 -1.0330459139 -3.1479124298
C -0.9391592627 -0.1431454966 -1.8634047318
O -0.6394515888 -1.1363820732 -0.8041880713
H -3.8820704173 -1.1322576158 -1.5036789342
H -2.9048278419 0.9285011064 -2.2021068868
H -4.696266038 0.7491253128 2.5674853408
H -1.9135376806 -2.7650617481 -0.2732524277
H -1.0968434734 -3.2024028124 -2.6466499199
H -2.7582155928 -2.6054643556 -2.9483384208
H -0.2071118605 -1.2301506059 -3.6506492165
H -1.8487972625 -0.5505541966 -3.8661435314
H -0.1014885673 0.5837904086 -1.9389147013
H -5.5521041981 -0.8258117151 2.3837907423
H -6.3282447216 0.6983548814 1.788243113
H 5.8293480478 1.370254076 -1.658682998
H 4.303303158 2.328192552 -1.4985465999
H 4.5056181939 1.1909287716 -2.8828331218
H 1.2126547726 3.5449541925 0.6714752673
H 0.1799317581 3.6875731912 2.1505012433
H -1.8979751378 3.6728099209 0.9049073785
H -0.8288418926 4.5129364883 -0.3061261887
$end

$rem
JOBTYPE                   OPT
METHOD                    B3LYP
DFT_D                     d3_op
BASIS                     STO-3G
GEOM_OPT_MAX_CYCLES       100
GEOM_OPT_TOL_GRADIENT     300
GEOM_OPT_TOL_DISPLACEMENT 1200
GEOM_OPT_TOL_ENERGY       100
SYMMETRY                  False
THRESH                    12
SCF_CONVERGENCE           8
MAX_SUB_FILE_NUM          128
MEM_STATIC                400
MEM_TOTAL                 4000
$end
--------------------------------------------------------------

   16   -1510.2926405349      6.10E-09 Convergence criterion met
 Total energy in the final basis set = -1510.29264053
   14   -1510.2884119671      7.60E-09 Convergence criterion met
 Total energy in the final basis set = -1510.28841197
   15   -1510.2927657127      3.35E-09 Convergence criterion met
 Total energy in the final basis set = -1510.29276571
   15   -1510.2933880141      5.32E-09 Convergence criterion met
 Total energy in the final basis set = -1510.29338801
   14   -1510.2949701481      5.69E-09 Convergence criterion met
 Total energy in the final basis set = -1510.29497015
   14   -1510.2976434456      4.01E-09 Convergence criterion met
 Total energy in the final basis set = -1510.29764345
   14   -1510.2985951177      2.71E-09 Convergence criterion met
 Total energy in the final basis set = -1510.29859512
   13   -1510.2997906049      8.15E-09 Convergence criterion met
   12   -1510.3057467113      4.73E-09 Convergence criterion met
 Total energy in the final basis set = -1510.30574671
   12   -1510.3057793773      4.65E-09 Convergence criterion met
 Total energy in the final basis set = -1510.30577938
   11   -1510.3057822608      5.44E-09 Convergence criterion met
 Total energy in the final basis set = -1510.30578226
   11   -1510.3057834736      2.75E-09 Convergence criterion met
 Total energy in the final basis set = -1510.30578347
    9   -1510.3057837687      3.96E-09 Convergence criterion met
 Total energy in the final basis set = -1510.30578377
    9   -1510.3057844059      3.95E-09 Convergence criterion met
 Total energy in the final basis set = -1510.30578441

             Standard Nuclear Orientation (Angstroms)
    I     Atom           X                Y                Z
 ----------------------------------------------------------------
    1      O      -1.7066869942    -1.1929456131     1.2489965741
    2      C      -2.7093177026    -0.9589929726     0.5309318303
    3      C      -2.7559142750    -0.8415106365    -1.0390165324
    4      C      -1.9632539991     0.4225936280    -1.5708948290
    5      C      -1.8177281517     1.5004351164    -0.4433180055
    6      O      -1.0232329178     2.6047006522    -0.8817912854
    7      C      -1.0593028483     3.6859904235     0.1395184660
    8      C       0.0942891232     3.5109074385     1.2013880098
    9      O       0.1461078553     2.0919992395     1.6203110405
   10      C       1.1956941835     1.4258112698     0.9035893366
   11      C       1.0466097776    -0.1119897285     1.0629542268
   12      C       1.8743830364    -0.9064278329    -0.0300857094
   13      C       2.6021995804     0.0288538980    -1.0581850658
   14      O       2.0851530286     0.5473776380    -2.0833438990
   15      O      -4.0475123565    -0.9138857824     1.0311956084
   16      O       3.9890172075     0.1391964726    -0.7477237280
   17      O       2.0774862388     2.0335050101     0.2506720369
   18      C       4.6407430742     1.0746529513    -1.6919513384
   19      C       1.7151396732    -0.6586255061     2.3986483444
   20      C       1.1724092885    -2.1249398237     2.6239980346
   21      C       1.9922265493    -2.9171631343     1.5387934667
   22      C       2.8442193781    -1.7565768884     0.8869304456
   23      O       3.1338194924    -0.8550076084     2.0277969000
   24      H      -0.0309909837    -0.3990049704     1.0285466772
   25      H       1.1592214867    -1.5326628988    -0.6029958920
   26      H       1.6272010608     0.0178311360     3.2709024491
   27      H       1.4034060890    -2.4740235730     3.6430341500
   28      H       0.0838987980    -2.1789887757     2.4572652669
   29      H       2.6512848110    -3.6705498722     1.9990168838
   30      H       1.3439031810    -3.4144793696     0.7999273647
   31      H       3.7847506660    -2.0734993162     0.3975567281
   32      O      -2.4147942860     1.4602318462     0.6593671951
   33      C      -4.0318400046    -1.0041897453     2.5093154514
   34      C      -1.8967686194    -2.0098425367    -1.6739458724
   35      C      -2.0358100869    -1.9769366571    -3.2477060241
   36      C      -1.0723799555    -0.7859095770    -3.6181657862
   37      C      -0.6584374141    -0.2628136705    -2.1881749531
   38      O      -0.5216432819    -1.5290118011    -1.4304888873
   39      H      -3.8103110277    -0.8432896189    -1.3657872701
   40      H      -2.5296071226     0.9123606685    -2.3854674253
   41      H      -3.4870367429    -0.1475620108     2.9558541505
   42      H      -2.0532582146    -3.0005244194    -1.2047343497
   43      H      -1.6963799063    -2.9287666828    -3.6859600099
   44      H      -3.0760973612    -1.7960947344    -3.5632647735
   45      H      -0.1822052661    -1.1473061469    -4.1575732292
   46      H      -1.5628391380    -0.0111999713    -4.2283020810
   47      H       0.3222066735     0.2874529727    -2.1443925900
   48      H      -3.5578943227    -1.9452074014     2.8559215600
   49      H      -5.0899090579    -0.9807556035     2.8285482477
   50      H       5.7028691587     1.1219843741    -1.3892931056
   51      H       4.1870947390     2.0845529990    -1.6277450152
   52      H       4.5660443235     0.7173987189    -2.7395577754
   53      H       1.0750600605     3.7864521096     0.7578728843
   54      H      -0.1174598508     4.1299900594     2.0964687858
   55      H      -2.0430969377     3.6767668582     0.6532847941
   56      H      -0.9252177509     4.6377026066    -0.4134410920
 ----------------------------------------------------------------

    9   -1510.3057837402      3.55E-09 Convergence criterion met
 Total energy in the final basis set = -1510.30578374
 Final energy is   -1510.30578374022
 **  OPTIMIZATION CONVERGED  **

                    Orbital Energies (a.u.)
 --------------------------------------------------------------

 Alpha MOs
 -- Occupied --
-18.945 -18.932 -18.931 -18.925 -18.887 -18.885 -18.875 -18.869
-18.867 -18.857 -10.107 -10.100 -10.094 -10.089 -10.076 -10.069
-10.061 -10.060 -10.052 -10.043 -10.041 -10.038 -10.037 -10.036
-10.018 -10.012 -10.009 -10.007 -10.002  -9.999  -1.024  -1.009
 -1.005  -0.997  -0.970  -0.952  -0.945  -0.934  -0.930  -0.921
 -0.762  -0.745  -0.722  -0.715  -0.702  -0.697  -0.686  -0.660
 -0.648  -0.615  -0.591  -0.569  -0.543  -0.535  -0.530  -0.520
 -0.508  -0.499  -0.486  -0.474  -0.459  -0.453  -0.448  -0.433
 -0.430  -0.422  -0.414  -0.413  -0.409  -0.405  -0.399  -0.398
 -0.392  -0.378  -0.368  -0.364  -0.359  -0.355  -0.351  -0.347
 -0.343  -0.340  -0.327  -0.322  -0.318  -0.315  -0.312  -0.308
 -0.300  -0.297  -0.294  -0.288  -0.285  -0.278  -0.273  -0.265
 -0.264  -0.255  -0.248  -0.245  -0.236  -0.228  -0.212  -0.195
 -0.174  -0.168  -0.163  -0.160  -0.154  -0.148  -0.142  -0.138
 -0.126

          Ground-State Mulliken Net Atomic Charges

     Atom                 Charge (a.u.)
  ----------------------------------------
      1 O                    -0.226195
      2 C                     0.222678
      3 C                    -0.079734
      4 C                    -0.081609
      5 C                     0.212313
      6 O                    -0.165627
      7 C                    -0.051757
      8 C                    -0.055987
      9 O                    -0.170937
     10 C                     0.209510
     11 C                    -0.094576
     12 C                    -0.095645
     13 C                     0.220889
     14 O                    -0.230145
     15 O                    -0.167374
     16 O                    -0.163258
     17 O                    -0.213130
     18 C                    -0.126106
     19 C                     0.025470
     20 C                    -0.146242
     21 C                    -0.143586
     22 C                     0.024057
     23 O                    -0.192921
     24 H                     0.114343
     25 H                     0.110079
     26 H                     0.078732
     27 H                     0.071128
     28 H                     0.086422
     29 H                     0.072133
     30 H                     0.073897
     31 H                     0.083467
     32 O                    -0.207680
     33 C                    -0.127656
     34 C                     0.026895
     35 C                    -0.145579
     36 C                    -0.142955
     37 C                     0.005539
     38 O                    -0.197143
     39 H                     0.085876
     40 H                     0.085701
     41 H                     0.094399
     42 H                     0.081362
     43 H                     0.076689
     44 H                     0.072396
     45 H                     0.078022
     46 H                     0.071709
     47 H                     0.120216
     48 H                     0.087470
     49 H                     0.088887
     50 H                     0.088507
     51 H                     0.094085
     52 H                     0.085810
     53 H                     0.102079
     54 H                     0.088501
     55 H                     0.095563
     56 H                     0.091020
  ----------------------------------------
  Sum of atomic charges =    -0.000000

                    Cartesian Multipole Moments
 -----------------------------------------------------------------
    Charge (ESU x 10^10)
                -0.0000
    Dipole Moment (Debye)
         X      -2.6876      Y       0.5186      Z      -0.9638
       Tot       2.9019
    Quadrupole Moments (Debye-Ang)
        XX    -158.1877     XY       0.7713     YY    -146.8892
        XZ      -3.2000     YZ       2.4782     ZZ    -155.9042

 Total job time:  115.14s(wall), 5493.00s(cpu)
        *  Thank you very much for using Q-Chem.  Have a nice day.  *
