 Q-Chem 5.0, Q-Chem, Inc., Pleasanton, CA (2017)
 Q-Chem 5.0.1 for Intel X86 EM64T Linux

User input:
--------------------------------------------------------------
$molecule
0  1
O -3.94934 -3.66094 2.70899
C -3.26408 -4.56952 2.26188
C -3.36658 -6.02376 2.66595
C -2.1353 -6.65529 3.33599
C -1.00314 -5.71604 3.68831
O -0.12845 -6.33954 4.53187
C 1.02678 -5.54858 4.83037
C 0.78976 -4.72795 6.0939
O -0.59164 -4.34335 6.17574
C -1.17117 -4.50592 7.391
C -2.65961 -4.25131 7.37182
C -3.50747 -5.31465 8.08508
C -2.75193 -6.25828 8.99909
O -2.08698 -7.21723 8.63463
O -2.40537 -4.2971 1.24237
O -2.87754 -6.0662 10.34266
O -0.53956 -4.64497 8.43267
C -2.27093 -6.84415 11.30683
C -3.07303 -2.97925 8.13863
C -4.39631 -2.45939 7.58098
C -5.34338 -3.54107 8.05827
C -4.39155 -4.36884 8.93386
O -3.45621 -3.43328 9.41087
H -2.96681 -4.11613 6.30973
H -4.13191 -5.93806 7.41246
H -2.3013 -2.1789 8.11548
H -4.62342 -1.51701 8.12976
H -4.4214 -2.25806 6.48829
H -6.14304 -3.06206 8.66553
H -5.79192 -4.1673 7.2566
H -4.97359 -4.91629 9.70775
O -0.9161 -4.53636 3.37135
C -2.21177 -3.04246 0.703
C -4.43872 -6.25598 3.74664
C -4.89408 -7.71467 3.73584
C -3.68593 -8.38867 4.34522
C -2.80467 -7.17085 4.63401
O -3.72623 -6.15913 4.94842
H -3.66301 -6.57271 1.74415
H -1.69632 -7.49241 2.74922
H -1.83829 -2.34446 1.48256
H -5.32212 -5.58842 3.6447
H -5.74689 -7.80964 4.44569
H -5.19991 -8.09587 2.7378
H -3.99595 -8.8617 5.30406
H -3.17995 -9.13875 3.69982
H -2.08328 -7.42772 5.43937
H -3.16329 -2.6572 0.27822
H -1.45851 -3.10787 -0.10862
H -2.54592 -6.45942 12.31021
H -1.16646 -6.79752 11.19582
H -2.61394 -7.89731 11.22093
H 1.07022 -5.40361 6.93439
H 1.46923 -3.84951 6.12083
H 1.27968 -4.85485 3.99526
H 1.93206 -6.18436 4.93181
$end

$opt
CONSTRAINT
tors           1           2           3           4    -117.081
tors           3           4           5           6    +166.349
tors           4           5           6           7    +175.481
tors           5           6           7           8     +92.056
tors           6           7           8           9     -33.757
tors           7           8           9          10    +134.770
tors           8           9          10          11    -172.749
tors           9          10          11          12    +133.125
tors          11          12          13          14     -78.322
ENDCONSTRAINT
$end

$rem
JOBTYPE                   OPT
METHOD                    B3LYP
DFT_D                     d3_op
BASIS                     STO-3G
GEOM_OPT_MAX_CYCLES       100
GEOM_OPT_TOL_GRADIENT     300
GEOM_OPT_TOL_DISPLACEMENT 1200
GEOM_OPT_TOL_ENERGY       100
SYMMETRY                  False
THRESH                    12
SCF_CONVERGENCE           8
MAX_SUB_FILE_NUM          128
MEM_STATIC                400
MEM_TOTAL                 4000
$end
--------------------------------------------------------------

   15   -1510.1582209013      7.88E-09 Convergence criterion met
 Total energy in the final basis set = -1510.15822090
   14   -1510.2276855220      4.81E-09 Convergence criterion met
 Total energy in the final basis set = -1510.22768552
   14   -1510.2632144006      2.50E-09 Convergence criterion met
 Total energy in the final basis set = -1510.26321440
   14   -1510.2771281931      4.85E-09 Convergence criterion met
 Total energy in the final basis set = -1510.27712819
   14   -1510.2839995921      2.75E-09 Convergence criterion met
 Total energy in the final basis set = -1510.28399959
   12   -1510.2875575757      9.14E-09 Convergence criterion met
 Total energy in the final basis set = -1510.28755758
   13   -1510.2900889785      4.82E-09 Convergence criterion met
 Total energy in the final basis set = -1510.29008898
   13   -1510.2906087987      2.91E-09 Convergence criterion met
   11   -1510.2925726997      8.60E-09 Convergence criterion met
 Total energy in the final basis set = -1510.29257270
   11   -1510.2926123054      7.40E-09 Convergence criterion met
 Total energy in the final basis set = -1510.29261231
   11   -1510.2926356374      4.05E-09 Convergence criterion met
 Total energy in the final basis set = -1510.29263564
   10   -1510.2926469462      9.19E-09 Convergence criterion met
 Total energy in the final basis set = -1510.29264695
    9   -1510.2926484830      8.52E-09 Convergence criterion met
 Total energy in the final basis set = -1510.29264848
    9   -1510.2926485591      5.98E-09 Convergence criterion met
 Total energy in the final basis set = -1510.29264856

             Standard Nuclear Orientation (Angstroms)
    I     Atom           X                Y                Z
 ----------------------------------------------------------------
    1      O      -3.2411426769    -1.4321278050     1.6119534499
    2      C      -3.6031147886    -0.7745265398     0.6130665512
    3      C      -3.0296332746    -0.8726957501    -0.8492479694
    4      C      -2.3409772144     0.4511188626    -1.3808805462
    5      C      -2.0879904063     1.4975166248    -0.2350170848
    6      O      -1.1957184316     2.4945020011    -0.7327250239
    7      C      -0.9966143038     3.5772619058     0.2640846762
    8      C       0.2617375846     3.2200734472     1.1458788548
    9      O       0.2727907959     1.7451596363     1.2704840451
   10      C       1.5866714391     1.2197613526     1.0553387755
   11      C       1.4581314200    -0.3348103149     1.0218449038
   12      C       2.2366104311    -0.9849678905    -0.1996297928
   13      C       2.8166242218     0.0967806168    -1.1719621527
   14      O       2.1591089140     0.7275319346    -2.0335520403
   15      O      -4.7989660770     0.0199036051     0.5542405244
   16      O       4.2198879507     0.2531661789    -0.9652234332
   17      O       2.6007612165     1.9270556071     0.8629322699
   18      C       4.7344960593     1.3548603706    -1.8099440723
   19      C       2.1991952393    -1.0303718144     2.2412968672
   20      C       1.7348618259    -2.5398252911     2.2974850805
   21      C       2.5528113954    -3.1567621079     1.1032116643
   22      C       3.3032565120    -1.8777574290     0.5559393855
   23      O       3.6061385813    -1.1074224854     1.7854625900
   24      H       0.3851849951    -0.5942086444     0.9531348073
   25      H       1.5081484423    -1.5872170486    -0.7755908258
   26      H       2.1313389041    -0.4802157030     3.1999021877
   27      H       2.0168344418    -2.9951686033     3.2600502734
   28      H       0.6457060856    -2.6382090023     2.1631728402
   29      H       3.2772420450    -3.9089122830     1.4545500318
   30      H       1.9052973510    -3.6163027265     0.3394692055
   31      H       4.2305406777    -2.0756103762    -0.0147991005
   32      O      -2.5615134652     1.4824641232     0.9233108307
   33      C      -5.3698514533     0.1608780869     1.9109021985
   34      C      -1.8687931793    -1.9328049203    -1.0027275374
   35      C      -1.7765139014    -2.3441306089    -2.5225851298
   36      C      -1.1671333962    -1.0330459139    -3.1479124298
   37      C      -0.9391592627    -0.1431454966    -1.8634047318
   38      O      -0.6394515888    -1.1363820732    -0.8041880713
   39      H      -3.8820704173    -1.1322576158    -1.5036789342
   40      H      -2.9048278419     0.9285011064    -2.2021068868
   41      H      -4.6962660380     0.7491253128     2.5674853408
   42      H      -1.9135376806    -2.7650617481    -0.2732524277
   43      H      -1.0968434734    -3.2024028124    -2.6466499199
   44      H      -2.7582155928    -2.6054643556    -2.9483384208
   45      H      -0.2071118605    -1.2301506059    -3.6506492165
   46      H      -1.8487972625    -0.5505541966    -3.8661435314
   47      H      -0.1014885673     0.5837904086    -1.9389147013
   48      H      -5.5521041981    -0.8258117151     2.3837907423
   49      H      -6.3282447216     0.6983548814     1.7882431130
   50      H       5.8293480478     1.3702540760    -1.6586829980
   51      H       4.3033031580     2.3281925520    -1.4985465999
   52      H       4.5056181939     1.1909287716    -2.8828331218
   53      H       1.2126547726     3.5449541925     0.6714752673
   54      H       0.1799317581     3.6875731912     2.1505012433
   55      H      -1.8979751378     3.6728099209     0.9049073785
   56      H      -0.8288418926     4.5129364883    -0.3061261887
 ----------------------------------------------------------------

    9   -1510.2926481610      4.62E-09 Convergence criterion met
 Total energy in the final basis set = -1510.29264816
 Final energy is   -1510.29264816104
 **  OPTIMIZATION CONVERGED  **

                    Orbital Energies (a.u.)
 --------------------------------------------------------------

 Alpha MOs
 -- Occupied --
-18.939 -18.930 -18.928 -18.918 -18.890 -18.883 -18.877 -18.872
-18.860 -18.860 -10.105 -10.094 -10.090 -10.090 -10.077 -10.068
-10.060 -10.056 -10.055 -10.053 -10.050 -10.049 -10.040 -10.033
-10.021 -10.021 -10.020 -10.018 -10.011 -10.009  -1.021  -1.007
 -1.001  -0.997  -0.974  -0.959  -0.943  -0.931  -0.926  -0.924
 -0.763  -0.752  -0.727  -0.716  -0.709  -0.700  -0.691  -0.653
 -0.652  -0.616  -0.593  -0.572  -0.544  -0.538  -0.536  -0.527
 -0.508  -0.504  -0.485  -0.474  -0.459  -0.457  -0.452  -0.435
 -0.428  -0.425  -0.421  -0.410  -0.405  -0.403  -0.401  -0.400
 -0.393  -0.380  -0.370  -0.364  -0.355  -0.353  -0.349  -0.346
 -0.341  -0.336  -0.331  -0.329  -0.324  -0.321  -0.313  -0.312
 -0.306  -0.300  -0.299  -0.293  -0.292  -0.276  -0.274  -0.270
 -0.267  -0.252  -0.248  -0.243  -0.241  -0.238  -0.219  -0.181
 -0.173  -0.168  -0.165  -0.158  -0.152  -0.149  -0.142  -0.141
 -0.133

          Ground-State Mulliken Net Atomic Charges

     Atom                 Charge (a.u.)
  ----------------------------------------
      1 O                    -0.220637
      2 C                     0.216034
      3 C                    -0.081879
      4 C                    -0.076796
      5 C                     0.221171
      6 O                    -0.169421
      7 C                    -0.049255
      8 C                    -0.054054
      9 O                    -0.171273
     10 C                     0.209880
     11 C                    -0.083810
     12 C                    -0.083922
     13 C                     0.209966
     14 O                    -0.228095
     15 O                    -0.175269
     16 O                    -0.162217
     17 O                    -0.215370
     18 C                    -0.126545
     19 C                     0.025073
     20 C                    -0.143597
     21 C                    -0.143177
     22 C                     0.024471
     23 O                    -0.188195
     24 H                     0.106782
     25 H                     0.095685
     26 H                     0.080880
     27 H                     0.075626
     28 H                     0.078307
     29 H                     0.075053
     30 H                     0.072680
     31 H                     0.086253
     32 O                    -0.206313
     33 C                    -0.128179
     34 C                     0.023709
     35 C                    -0.143599
     36 C                    -0.144901
     37 C                     0.020589
     38 O                    -0.197455
     39 H                     0.083747
     40 H                     0.088133
     41 H                     0.091113
     42 H                     0.088161
     43 H                     0.076189
     44 H                     0.073830
     45 H                     0.079825
     46 H                     0.073767
     47 H                     0.105614
     48 H                     0.086775
     49 H                     0.085503
     50 H                     0.089997
     51 H                     0.091870
     52 H                     0.086888
     53 H                     0.098608
     54 H                     0.084939
     55 H                     0.095800
     56 H                     0.091042
  ----------------------------------------
  Sum of atomic charges =    -0.000000

                    Cartesian Multipole Moments
 -----------------------------------------------------------------
    Charge (ESU x 10^10)
                -0.0000
    Dipole Moment (Debye)
         X      -1.8552      Y       0.4777      Z      -1.8970
       Tot       2.6960
    Quadrupole Moments (Debye-Ang)
        XX    -160.2048     XY      -2.2793     YY    -147.3530
        XZ      -2.6107     YZ       4.4684     ZZ    -157.2813

 Total job time:  58.63s(wall), 2792.59s(cpu)
        *  Thank you very much for using Q-Chem.  Have a nice day.  *
