 Q-Chem 5.0, Q-Chem, Inc., Pleasanton, CA (2017)
 Q-Chem 5.0.1 for Intel X86 EM64T Linux

User input:
--------------------------------------------------------------
$molecule
0  1
O -4.0633596821 -0.7228291498 1.6603839663
C -4.1080407614 -0.404609579 0.4529014521
C -3.189544946 -0.9409878423 -0.7057223022
C -2.227400569 0.1342358243 -1.3495746838
C -2.121575275 1.4095390189 -0.4382535979
O -0.9670633842 2.1303784295 -0.8363644883
C -0.8214207989 3.4160282413 -0.11399581
C 0.4072939459 3.236233441 0.8653298787
O 0.4955354285 1.7748126275 1.0994374624
C 1.82710411 1.2740596424 1.0096121177
C 1.7163883596 -0.2893523034 1.092465346
C 2.4270872772 -1.0163349691 -0.1277863833
C 2.7534364794 -0.0074878915 -1.2755143703
O 1.9164307625 0.4271581049 -2.10577801
O -5.1649598506 0.3611907735 -0.148457165
O 4.129981624 0.3519271004 -1.2658275869
O 2.8392326302 1.9875889246 0.8350449138
C 4.3932362678 1.3784782598 -2.3017789578
C 2.5894645553 -0.8445711092 2.2938133901
C 2.2818332748 -2.3843559201 2.4781428495
C 3.1151499762 -3.0098744155 1.298884396
C 3.6598879976 -1.7058803757 0.5943570306
O 3.9624962094 -0.813188747 1.736133379
H 0.6453905852 -0.5742994974 1.1358360086
H 1.7378225757 -1.7720856378 -0.545879804
H 2.5347044477 -0.2402333398 3.219951043
H 2.6355161106 -2.7384996522 3.4594263968
H 1.2040503341 -2.5964545953 2.3920865573
H 3.9530610262 -3.6177869318 1.6760930763
H 2.5032441221 -3.6296294434 0.6243097802
H 4.5557486475 -1.8409028238 -0.0414289466
O -2.8889729973 1.7509422301 0.4907476511
C -6.036221151 0.9198774595 0.9076194048
C -2.1382998246 -2.0271618284 -0.2140303028
C -1.7744949999 -2.923326281 -1.4581362323
C -0.9541737506 -1.8945546096 -2.3223908316
C -0.8526252645 -0.6552956918 -1.3449122025
O -0.8829007063 -1.2666647478 0.0079212503
H -3.8534761974 -1.3660985288 -1.4796569597
H -2.5468909778 0.4376193453 -2.3635900941
H -5.4855523391 1.6522445139 1.5332211128
H -2.4357980125 -2.5618942172 0.7090616222
H -1.1501317467 -3.7765351973 -1.1471947859
H -2.6664148353 -3.3075680195 -1.9780491063
H 0.0505332565 -2.2730540963 -2.5686970291
H -1.46610717 -1.6301009268 -3.2612529956
H 0.0633400491 -0.0364115323 -1.5014854934
H -6.4427342282 0.1267456658 1.5682616932
H -6.8667376281 1.4303164204 0.3859222499
H 5.4815881092 1.5685953881 -2.2714437602
H 3.8455902007 2.3174058715 -2.0818046711
H 4.1009451398 1.0243169392 -3.3114570827
H 1.3599030888 3.5931667068 0.4184687092
H 0.2360611417 3.7664063469 1.8264092642
H -1.7528303616 3.6262003013 0.4533390793
H -0.6329372962 4.2130672044 -0.8616340752
$end

$rem
JOBTYPE                   OPT
METHOD                    B3LYP
DFT_D                     d3_op
BASIS                     STO-3G
GEOM_OPT_MAX_CYCLES       100
GEOM_OPT_TOL_GRADIENT     300
GEOM_OPT_TOL_DISPLACEMENT 1200
GEOM_OPT_TOL_ENERGY       100
SYMMETRY                  False
THRESH                    12
SCF_CONVERGENCE           8
MAX_SUB_FILE_NUM          128
MEM_STATIC                400
MEM_TOTAL                 4000
$end
--------------------------------------------------------------

   16   -1510.2899254617      7.20E-09 Convergence criterion met
 Total energy in the final basis set = -1510.28992546
   14   -1510.2343885823      7.05E-09 Convergence criterion met
 Total energy in the final basis set = -1510.23438858
   15   -1510.2913940042      3.44E-09 Convergence criterion met
 Total energy in the final basis set = -1510.29139400
   14   -1510.2810301330      9.49E-09 Convergence criterion met
 Total energy in the final basis set = -1510.28103013
   14   -1510.2891795649      9.23E-09 Convergence criterion met
 Total energy in the final basis set = -1510.28917956
   15   -1510.2923427862      3.81E-09 Convergence criterion met
 Total energy in the final basis set = -1510.29234279
   13   -1510.2944272446      4.13E-09 Convergence criterion met
 Total energy in the final basis set = -1510.29442724
   13   -1510.2961003773      4.12E-09 Convergence criterion met
   10   -1510.3056763234      5.62E-09 Convergence criterion met
 Total energy in the final basis set = -1510.30567632
   10   -1510.3056820560      7.49E-09 Convergence criterion met
 Total energy in the final basis set = -1510.30568206
   10   -1510.3056936063      7.80E-09 Convergence criterion met
 Total energy in the final basis set = -1510.30569361
   11   -1510.3057009851      4.20E-09 Convergence criterion met
 Total energy in the final basis set = -1510.30570099
   11   -1510.3056941038      1.74E-09 Convergence criterion met
 Total energy in the final basis set = -1510.30569410
    9   -1510.3057010552      4.71E-09 Convergence criterion met
 Total energy in the final basis set = -1510.30570106

             Standard Nuclear Orientation (Angstroms)
    I     Atom           X                Y                Z
 ----------------------------------------------------------------
    1      O      -1.5927261693    -1.1613381497     1.3820835232
    2      C      -2.6191179633    -1.0220837553     0.6732498376
    3      C      -2.7042575796    -1.0474714227    -0.8988824269
    4      C      -1.9784160355     0.1938559312    -1.5645407091
    5      C      -1.8421107741     1.3725437367    -0.5410157362
    6      O      -1.1167418946     2.4664344224    -1.1067539139
    7      C      -1.1689803598     3.6340613664    -0.1855941605
    8      C       0.0191485284     3.6054570036     0.8519619146
    9      O       0.1380328667     2.2373525702     1.4042951174
   10      C       1.2046669553     1.5473876187     0.7363136288
   11      C       1.1048346848     0.0248915827     1.0286502056
   12      C       1.9317163805    -0.8387542604    -0.0112295621
   13      C       2.6060654588     0.0241524009    -1.1338221444
   14      O       2.0461323671     0.4391816252    -2.1834023713
   15      O      -3.9461502840    -0.9715691658     1.2016717647
   16      O       3.9958262064     0.2024570489    -0.8725833706
   17      O       2.0560646786     2.1247548453     0.0190570313
   18      C       4.5909086134     1.0778829342    -1.9076682769
   19      C       1.8071974696    -0.3971452109     2.3913983807
   20      C       1.3009036143    -1.8530081543     2.7376018358
   21      C       2.1315833292    -2.7103640887     1.7120685340
   22      C       2.9412598602    -1.5849427805     0.9525306536
   23      O       3.2243182677    -0.5877269130     2.0127336863
   24      H       0.0354148910    -0.2898442615     1.0384753446
   25      H       1.2197225584    -1.5285226567    -0.5103852978
   26      H       1.7152640615     0.3436861699     3.2093461771
   27      H       1.5438363475    -2.1151606557     3.7796131963
   28      H       0.2131010912    -1.9426612612     2.5804784091
   29      H       2.8191609672    -3.4019071364     2.2249059983
   30      H       1.4909353318    -3.2874195541     1.0266638260
   31      H       3.8823747017    -1.9154017773     0.4731889988
   32      O      -2.3974858789     1.4065212640     0.5834588978
   33      C      -3.8930816007    -0.9237275181     2.6810279025
   34      C      -1.8124557702    -2.2344594463    -1.4487142268
   35      C      -1.9942678096    -2.3564032516    -3.0132949973
   36      C      -1.0974572963    -1.1648699511    -3.5221495043
   37      C      -0.6649037826    -0.4947700480    -2.1598260637
   38      O      -0.4530675916    -1.6787113476    -1.2945946843
   39      H      -3.7644724723    -1.1211056052    -1.1973352034
   40      H      -2.5876231129     0.5864485590    -2.4001081499
   41      H      -3.3637484982    -0.0146471303     3.0321529029
   42      H      -1.9130308969    -3.1820075970    -0.8843400681
   43      H      -1.6227708248    -3.3295954707    -3.3715045931
   44      H      -3.0497158882    -2.2518932799    -3.3123008536
   45      H      -0.2080147577    -1.5361848631    -4.0560941316
   46      H      -1.6410118524    -0.4723543104    -4.1839971503
   47      H       0.2929256320     0.0956661869    -2.1951743763
   48      H      -3.3831921543    -1.8150142372     3.1006160555
   49      H      -4.9435779562    -0.9001161362     3.0243735541
   50      H       5.6628149504     1.1664660677    -1.6525954824
   51      H       4.1190721199     2.0815008009    -1.8971583948
   52      H       4.4820597185     0.6446240712    -2.9230129516
   53      H       0.9764208364     3.8725178608     0.3549852521
   54      H      -0.1938266093     4.3021715580     1.6877388120
   55      H      -2.1372268724     3.6340522359     0.3570983887
   56      H      -1.0900979194     4.5356892856    -0.8260165121
 ----------------------------------------------------------------

    8   -1510.3056940865      8.78E-09 Convergence criterion met
 Total energy in the final basis set = -1510.30569409
 Final energy is   -1510.30569408654
 **  OPTIMIZATION CONVERGED  **

                    Orbital Energies (a.u.)
 --------------------------------------------------------------

 Alpha MOs
 -- Occupied --
-18.945 -18.932 -18.930 -18.925 -18.888 -18.885 -18.875 -18.869
-18.867 -18.857 -10.107 -10.100 -10.093 -10.089 -10.076 -10.069
-10.062 -10.060 -10.052 -10.042 -10.040 -10.039 -10.038 -10.036
-10.018 -10.013 -10.009 -10.006 -10.002  -9.998  -1.024  -1.009
 -1.005  -0.997  -0.971  -0.952  -0.945  -0.934  -0.930  -0.921
 -0.762  -0.745  -0.722  -0.715  -0.702  -0.697  -0.685  -0.660
 -0.648  -0.615  -0.591  -0.569  -0.544  -0.535  -0.530  -0.520
 -0.508  -0.499  -0.486  -0.474  -0.459  -0.453  -0.448  -0.433
 -0.430  -0.422  -0.414  -0.413  -0.409  -0.405  -0.399  -0.399
 -0.392  -0.379  -0.367  -0.365  -0.359  -0.355  -0.351  -0.347
 -0.343  -0.340  -0.327  -0.323  -0.318  -0.315  -0.312  -0.307
 -0.300  -0.297  -0.294  -0.288  -0.285  -0.278  -0.273  -0.265
 -0.264  -0.255  -0.249  -0.244  -0.236  -0.228  -0.212  -0.195
 -0.174  -0.168  -0.163  -0.160  -0.154  -0.149  -0.143  -0.138
 -0.126

          Ground-State Mulliken Net Atomic Charges

     Atom                 Charge (a.u.)
  ----------------------------------------
      1 O                    -0.226341
      2 C                     0.222693
      3 C                    -0.079903
      4 C                    -0.081624
      5 C                     0.212331
      6 O                    -0.165572
      7 C                    -0.051672
      8 C                    -0.056049
      9 O                    -0.171173
     10 C                     0.209416
     11 C                    -0.093957
     12 C                    -0.096699
     13 C                     0.220529
     14 O                    -0.230292
     15 O                    -0.167392
     16 O                    -0.163071
     17 O                    -0.213122
     18 C                    -0.126184
     19 C                     0.025576
     20 C                    -0.147103
     21 C                    -0.143488
     22 C                     0.023977
     23 O                    -0.193030
     24 H                     0.113053
     25 H                     0.111102
     26 H                     0.078660
     27 H                     0.070737
     28 H                     0.087792
     29 H                     0.071947
     30 H                     0.073787
     31 H                     0.083316
     32 O                    -0.207321
     33 C                    -0.127690
     34 C                     0.027216
     35 C                    -0.145538
     36 C                    -0.143005
     37 C                     0.005925
     38 O                    -0.196935
     39 H                     0.085878
     40 H                     0.085887
     41 H                     0.094550
     42 H                     0.081564
     43 H                     0.076824
     44 H                     0.072514
     45 H                     0.078088
     46 H                     0.071830
     47 H                     0.120131
     48 H                     0.087494
     49 H                     0.088914
     50 H                     0.088468
     51 H                     0.093943
     52 H                     0.086171
     53 H                     0.102085
     54 H                     0.088383
     55 H                     0.095345
     56 H                     0.091037
  ----------------------------------------
  Sum of atomic charges =    -0.000000

                    Cartesian Multipole Moments
 -----------------------------------------------------------------
    Charge (ESU x 10^10)
                -0.0000
    Dipole Moment (Debye)
         X      -2.7958      Y       0.3419      Z      -0.9995
       Tot       2.9887
    Quadrupole Moments (Debye-Ang)
        XX    -158.5623     XY       0.1888     YY    -146.5526
        XZ      -3.3656     YZ       1.6011     ZZ    -156.1422

 Total job time:  141.61s(wall), 6760.07s(cpu)
        *  Thank you very much for using Q-Chem.  Have a nice day.  *
