 Q-Chem 5.0, Q-Chem, Inc., Pleasanton, CA (2017)
 Q-Chem 5.0.1 for Intel X86 EM64T Linux

User input:
--------------------------------------------------------------
$molecule
0  1
O -3.94934 -3.66094 2.70899
C -3.26408 -4.56952 2.26188
C -3.36658 -6.02376 2.66595
C -2.16621 -6.63286 3.4089
C -1.07147 -5.67414 3.82179
O -0.29093 -6.24796 4.78455
C 0.83154 -5.44034 5.15476
C 0.63526 -4.8798 6.55953
O -0.76549 -4.81992 6.87127
C -1.10916 -5.27626 8.10123
C -2.60372 -5.35072 8.30473
C -3.12799 -6.72159 8.75654
C -2.08415 -7.68996 9.27553
O -1.32458 -8.35167 8.58289
O -2.37952 -4.29189 1.26633
O -2.0338 -7.89499 10.62196
O -0.30875 -5.49879 9.00295
C -1.15741 -8.75338 11.25272
C -3.12305 -4.44106 9.43389
C -4.5886 -4.0986 9.17563
C -5.23714 -5.44612 9.41897
C -4.02682 -6.24483 9.92364
O -3.21668 -5.2829 10.5545
H -3.08965 -5.03367 7.35294
H -3.72162 -7.25671 7.98296
H -2.52369 -3.51361 9.56469
H -4.89974 -3.40027 9.98574
H -4.81474 -3.63633 8.19066
H -6.00417 -5.32557 10.21577
H -5.6865 -5.92612 8.52257
H -4.3731 -7.08763 10.56162
O -0.979 -4.50378 3.47533
C -2.17279 -3.03453 0.73831
C -4.49187 -6.2503 3.69787
C -4.94044 -7.71043 3.6774
C -3.76067 -8.37221 4.34925
C -2.90453 -7.14583 4.67577
O -3.84562 -6.13667 4.93732
H -3.61779 -6.58438 1.73785
H -1.68255 -7.47282 2.86321
H -1.81943 -2.34018 1.53039
H -5.37382 -5.59075 3.54328
H -5.82556 -7.80173 4.34713
H -5.19759 -8.10309 2.67012
H -4.11558 -8.84579 5.29223
H -3.21545 -9.11889 3.73251
H -2.23138 -7.39996 5.5225
H -3.11347 -2.6475 0.29153
H -1.39922 -3.09569 -0.05432
H -1.33866 -8.71873 12.3465
H -0.10931 -8.44327 11.05347
H -1.31663 -9.79347 10.89629
H 1.16706 -5.59453 7.22824
H 1.13278 -3.89212 6.67027
H 0.99885 -4.56207 4.493
H 1.78279 -6.00849 5.07068
$end

$opt
CONSTRAINT
tors           1           2           3           4    -113.632
tors           3           4           5           6    +162.247
tors           4           5           6           7    +175.481
tors           5           6           7           8    +109.334
tors           6           7           8           9     -24.592
tors           7           8           9          10    +134.770
tors           8           9          10          11    -172.749
tors           9          10          11          12    +125.882
tors          11          12          13          14     -78.322
ENDCONSTRAINT
$end

$rem
JOBTYPE                   OPT
METHOD                    B3LYP
DFT_D                     d3_op
BASIS                     STO-3G
GEOM_OPT_MAX_CYCLES       100
GEOM_OPT_TOL_GRADIENT     300
GEOM_OPT_TOL_DISPLACEMENT 1200
GEOM_OPT_TOL_ENERGY       100
SYMMETRY                  False
THRESH                    12
SCF_CONVERGENCE           8
MAX_SUB_FILE_NUM          128
MEM_STATIC                400
MEM_TOTAL                 4000
$end
--------------------------------------------------------------

   15   -1510.1534413034      8.43E-09 Convergence criterion met
 Total energy in the final basis set = -1510.15344130
   14   -1510.2231881483      4.52E-09 Convergence criterion met
 Total energy in the final basis set = -1510.22318815
   14   -1510.2607568781      4.37E-09 Convergence criterion met
 Total energy in the final basis set = -1510.26075688
   14   -1510.2769462206      3.31E-09 Convergence criterion met
 Total energy in the final basis set = -1510.27694622
   14   -1510.2823966594      2.57E-09 Convergence criterion met
 Total energy in the final basis set = -1510.28239666
   14   -1510.2842659847      2.19E-09 Convergence criterion met
 Total energy in the final basis set = -1510.28426598
   13   -1510.2857074087      3.57E-09 Convergence criterion met
 Total energy in the final basis set = -1510.28570741
   13   -1510.2865651185      4.61E-09 Convergence criterion met
   12   -1510.2897835225      4.87E-09 Convergence criterion met
 Total energy in the final basis set = -1510.28978352
   11   -1510.2898972085      8.46E-09 Convergence criterion met
 Total energy in the final basis set = -1510.28989721
   11   -1510.2899997231      9.59E-09 Convergence criterion met
 Total energy in the final basis set = -1510.28999972
   11   -1510.2900562141      4.86E-09 Convergence criterion met
 Total energy in the final basis set = -1510.29005621
   11   -1510.2900917082      5.96E-09 Convergence criterion met
 Total energy in the final basis set = -1510.29009171
   11   -1510.2900967567      6.32E-09 Convergence criterion met
 Total energy in the final basis set = -1510.29009676

             Standard Nuclear Orientation (Angstroms)
    I     Atom           X                Y                Z
 ----------------------------------------------------------------
    1      O      -4.0633596821    -0.7228291498     1.6603839663
    2      C      -4.1080407614    -0.4046095790     0.4529014521
    3      C      -3.1895449460    -0.9409878423    -0.7057223022
    4      C      -2.2274005690     0.1342358243    -1.3495746838
    5      C      -2.1215752750     1.4095390189    -0.4382535979
    6      O      -0.9670633842     2.1303784295    -0.8363644883
    7      C      -0.8214207989     3.4160282413    -0.1139958100
    8      C       0.4072939459     3.2362334410     0.8653298787
    9      O       0.4955354285     1.7748126275     1.0994374624
   10      C       1.8271041100     1.2740596424     1.0096121177
   11      C       1.7163883596    -0.2893523034     1.0924653460
   12      C       2.4270872772    -1.0163349691    -0.1277863833
   13      C       2.7534364794    -0.0074878915    -1.2755143703
   14      O       1.9164307625     0.4271581049    -2.1057780100
   15      O      -5.1649598506     0.3611907735    -0.1484571650
   16      O       4.1299816240     0.3519271004    -1.2658275869
   17      O       2.8392326302     1.9875889246     0.8350449138
   18      C       4.3932362678     1.3784782598    -2.3017789578
   19      C       2.5894645553    -0.8445711092     2.2938133901
   20      C       2.2818332748    -2.3843559201     2.4781428495
   21      C       3.1151499762    -3.0098744155     1.2988843960
   22      C       3.6598879976    -1.7058803757     0.5943570306
   23      O       3.9624962094    -0.8131887470     1.7361333790
   24      H       0.6453905852    -0.5742994974     1.1358360086
   25      H       1.7378225757    -1.7720856378    -0.5458798040
   26      H       2.5347044477    -0.2402333398     3.2199510430
   27      H       2.6355161106    -2.7384996522     3.4594263968
   28      H       1.2040503341    -2.5964545953     2.3920865573
   29      H       3.9530610262    -3.6177869318     1.6760930763
   30      H       2.5032441221    -3.6296294434     0.6243097802
   31      H       4.5557486475    -1.8409028238    -0.0414289466
   32      O      -2.8889729973     1.7509422301     0.4907476511
   33      C      -6.0362211510     0.9198774595     0.9076194048
   34      C      -2.1382998246    -2.0271618284    -0.2140303028
   35      C      -1.7744949999    -2.9233262810    -1.4581362323
   36      C      -0.9541737506    -1.8945546096    -2.3223908316
   37      C      -0.8526252645    -0.6552956918    -1.3449122025
   38      O      -0.8829007063    -1.2666647478     0.0079212503
   39      H      -3.8534761974    -1.3660985288    -1.4796569597
   40      H      -2.5468909778     0.4376193453    -2.3635900941
   41      H      -5.4855523391     1.6522445139     1.5332211128
   42      H      -2.4357980125    -2.5618942172     0.7090616222
   43      H      -1.1501317467    -3.7765351973    -1.1471947859
   44      H      -2.6664148353    -3.3075680195    -1.9780491063
   45      H       0.0505332565    -2.2730540963    -2.5686970291
   46      H      -1.4661071700    -1.6301009268    -3.2612529956
   47      H       0.0633400491    -0.0364115323    -1.5014854934
   48      H      -6.4427342282     0.1267456658     1.5682616932
   49      H      -6.8667376281     1.4303164204     0.3859222499
   50      H       5.4815881092     1.5685953881    -2.2714437602
   51      H       3.8455902007     2.3174058715    -2.0818046711
   52      H       4.1009451398     1.0243169392    -3.3114570827
   53      H       1.3599030888     3.5931667068     0.4184687092
   54      H       0.2360611417     3.7664063469     1.8264092642
   55      H      -1.7528303616     3.6262003013     0.4533390793
   56      H      -0.6329372962     4.2130672044    -0.8616340752
 ----------------------------------------------------------------

   11   -1510.2900974689      2.58E-09 Convergence criterion met
 Total energy in the final basis set = -1510.29009747
 Final energy is   -1510.29009746889
 **  OPTIMIZATION CONVERGED  **

                    Orbital Energies (a.u.)
 --------------------------------------------------------------

 Alpha MOs
 -- Occupied --
-18.941 -18.939 -18.930 -18.915 -18.884 -18.882 -18.880 -18.873
-18.870 -18.857 -10.105 -10.101 -10.094 -10.087 -10.075 -10.070
-10.064 -10.055 -10.054 -10.053 -10.051 -10.046 -10.036 -10.031
-10.029 -10.023 -10.017 -10.015 -10.014 -10.013  -1.022  -1.013
 -1.005  -0.994  -0.967  -0.963  -0.944  -0.937  -0.929  -0.921
 -0.760  -0.757  -0.727  -0.717  -0.710  -0.699  -0.692  -0.660
 -0.651  -0.617  -0.593  -0.574  -0.543  -0.540  -0.533  -0.530
 -0.509  -0.505  -0.484  -0.479  -0.463  -0.455  -0.453  -0.436
 -0.429  -0.427  -0.424  -0.412  -0.411  -0.403  -0.401  -0.397
 -0.394  -0.377  -0.375  -0.362  -0.357  -0.356  -0.352  -0.350
 -0.342  -0.335  -0.329  -0.328  -0.324  -0.320  -0.317  -0.311
 -0.304  -0.302  -0.299  -0.296  -0.295  -0.278  -0.274  -0.271
 -0.267  -0.253  -0.248  -0.242  -0.241  -0.234  -0.223  -0.180
 -0.178  -0.171  -0.162  -0.158  -0.156  -0.147  -0.144  -0.138
 -0.136

          Ground-State Mulliken Net Atomic Charges

     Atom                 Charge (a.u.)
  ----------------------------------------
      1 O                    -0.220707
      2 C                     0.215471
      3 C                    -0.082579
      4 C                    -0.075237
      5 C                     0.223829
      6 O                    -0.166802
      7 C                    -0.050249
      8 C                    -0.052014
      9 O                    -0.170178
     10 C                     0.207158
     11 C                    -0.085959
     12 C                    -0.081083
     13 C                     0.210953
     14 O                    -0.221707
     15 O                    -0.176126
     16 O                    -0.157889
     17 O                    -0.215234
     18 C                    -0.125938
     19 C                     0.024905
     20 C                    -0.144400
     21 C                    -0.142695
     22 C                     0.025090
     23 O                    -0.187079
     24 H                     0.111674
     25 H                     0.086868
     26 H                     0.081609
     27 H                     0.076298
     28 H                     0.078124
     29 H                     0.076209
     30 H                     0.072265
     31 H                     0.086854
     32 O                    -0.210099
     33 C                    -0.128159
     34 C                     0.023752
     35 C                    -0.143390
     36 C                    -0.145586
     37 C                     0.013411
     38 O                    -0.200031
     39 H                     0.082999
     40 H                     0.087075
     41 H                     0.090602
     42 H                     0.088262
     43 H                     0.074210
     44 H                     0.073065
     45 H                     0.074451
     46 H                     0.073137
     47 H                     0.108898
     48 H                     0.086236
     49 H                     0.084996
     50 H                     0.093254
     51 H                     0.092138
     52 H                     0.088876
     53 H                     0.096015
     54 H                     0.085868
     55 H                     0.099497
     56 H                     0.089091
  ----------------------------------------
  Sum of atomic charges =    -0.000000

                    Cartesian Multipole Moments
 -----------------------------------------------------------------
    Charge (ESU x 10^10)
                -0.0000
    Dipole Moment (Debye)
         X      -0.6586      Y       0.0063      Z      -2.2988
       Tot       2.3913
    Quadrupole Moments (Debye-Ang)
        XX    -163.6183     XY      -3.3760     YY    -145.3671
        XZ      -2.0611     YZ       1.0481     ZZ    -158.6601

 Total job time:  63.01s(wall), 3002.50s(cpu)
        *  Thank you very much for using Q-Chem.  Have a nice day.  *
