 Q-Chem 5.0, Q-Chem, Inc., Pleasanton, CA (2017)
 Q-Chem 5.0.1 for Intel X86 EM64T Linux

User input:
--------------------------------------------------------------
$molecule
0  1
O -3.94934 -3.66094 2.70899
C -3.26408 -4.56952 2.26188
C -3.36658 -6.02376 2.66595
C -2.1353 -6.65529 3.33599
C -1.00314 -5.71604 3.68831
O -0.12845 -6.33954 4.53187
C 1.01606 -5.53987 4.84791
C 0.7224 -4.65593 6.05561
O -0.69084 -4.42117 6.1582
C -1.20121 -4.47466 7.41351
C -2.7106 -4.51954 7.43355
C -3.31793 -5.37516 8.55486
C -2.37581 -5.75674 9.67892
O -1.41663 -6.50766 9.57571
O -2.39824 -4.29449 1.24888
O -2.62317 -5.23133 10.9118
O -0.53391 -4.18225 8.3994
C -1.86145 -5.47475 12.03579
C -3.35748 -3.15183 7.75355
C -4.75988 -3.10426 7.14933
C -5.47306 -4.11482 8.02492
C -4.38252 -4.38396 9.073
O -3.64708 -3.18725 9.12869
H -3.04686 -4.77717 6.42486
H -3.76104 -6.32009 8.17157
H -2.75673 -2.28413 7.40292
H -5.16242 -2.08958 7.37166
H -4.83526 -3.29108 6.05614
H -6.36534 -3.62257 8.47088
H -5.76702 -5.05851 7.51574
H -4.84849 -4.71909 10.02548
O -0.91486 -4.53576 3.37365
C -2.20202 -3.0388 0.71289
C -4.46206 -6.32198 3.70103
C -4.87582 -7.79252 3.62147
C -3.6651 -8.45862 4.24285
C -2.82247 -7.22985 4.59873
O -3.78889 -6.26488 4.92291
H -3.63155 -6.55683 1.72509
H -1.68434 -7.47404 2.73223
H -1.83478 -2.34163 1.49615
H -5.35406 -5.66648 3.59803
H -5.74655 -7.9393 4.29993
H -5.14111 -8.1432 2.60089
H -3.98916 -8.96983 5.17706
H -3.12545 -9.17696 3.58873
H -2.10946 -7.49025 5.41029
H -3.15091 -2.65383 0.28199
H -1.44296 -3.1022 -0.09347
H -2.29186 -4.91903 12.8939
H -0.81822 -5.12922 11.87256
H -1.86583 -6.55994 12.27361
H 1.07191 -5.24343 6.93759
H 1.31081 -3.71427 6.02039
H 1.31058 -4.90138 3.98249
H 1.9116 -6.17174 5.03008
$end

$opt
CONSTRAINT
tors           1           2           3           4    -117.081
tors           3           4           5           6    +166.349
tors           4           5           6           7    +176.453
tors           5           6           7           8     +87.716
tors           6           7           8           9     -25.430
tors           7           8           9          10    +138.534
tors           8           9          10          11    -167.571
tors           9          10          11          12    +144.803
tors          11          12          13          14     -67.339
ENDCONSTRAINT
$end

$rem
JOBTYPE                   OPT
METHOD                    B3LYP
DFT_D                     d3_op
BASIS                     STO-3G
GEOM_OPT_MAX_CYCLES       100
GEOM_OPT_TOL_GRADIENT     300
GEOM_OPT_TOL_DISPLACEMENT 1200
GEOM_OPT_TOL_ENERGY       100
SYMMETRY                  False
THRESH                    12
SCF_CONVERGENCE           8
MAX_SUB_FILE_NUM          128
MEM_STATIC                400
MEM_TOTAL                 4000
$end
--------------------------------------------------------------

   16   -1510.1512400882      2.16E-09 Convergence criterion met
 Total energy in the final basis set = -1510.15124009
   13   -1510.2217429765      9.68E-09 Convergence criterion met
 Total energy in the final basis set = -1510.22174298
   14   -1510.2588171287      1.65E-09 Convergence criterion met
 Total energy in the final basis set = -1510.25881713
   14   -1510.2642181218      5.82E-09 Convergence criterion met
 Total energy in the final basis set = -1510.26421812
   14   -1510.2793531081      4.40E-09 Convergence criterion met
 Total energy in the final basis set = -1510.27935311
   13   -1510.2837687474      6.62E-09 Convergence criterion met
 Total energy in the final basis set = -1510.28376875
   13   -1510.2868593472      4.67E-09 Convergence criterion met
 Total energy in the final basis set = -1510.28685935
   13   -1510.2877677034      4.34E-09 Convergence criterion met
   10   -1510.2903566345      6.24E-09 Convergence criterion met
 Total energy in the final basis set = -1510.29035663
   10   -1510.2903807998      6.96E-09 Convergence criterion met
 Total energy in the final basis set = -1510.29038080
   10   -1510.2903941979      5.28E-09 Convergence criterion met
 Total energy in the final basis set = -1510.29039420
    9   -1510.2903963237      9.66E-09 Convergence criterion met
 Total energy in the final basis set = -1510.29039632
    9   -1510.2903952155      4.86E-09 Convergence criterion met
 Total energy in the final basis set = -1510.29039522
    9   -1510.2903963045      4.65E-09 Convergence criterion met
 Total energy in the final basis set = -1510.29039630

             Standard Nuclear Orientation (Angstroms)
    I     Atom           X                Y                Z
 ----------------------------------------------------------------
    1      O      -3.3900663062    -1.0425791598     1.8726683055
    2      C      -3.7856066720    -0.4911005748     0.8237790376
    3      C      -3.3101447716    -0.7973964786    -0.6460453579
    4      C      -2.5967221224     0.4090415488    -1.3785432745
    5      C      -2.1899528066     1.5409764516    -0.3681601143
    6      O      -1.2865019282     2.4310126416    -1.0210791650
    7      C      -0.9409261578     3.5655967749    -0.1305085849
    8      C       0.2996118987     3.1844016059     0.7741962028
    9      O       0.3046543898     1.7081964850     0.8913181605
   10      C       1.6310775091     1.1760960381     0.7859701755
   11      C       1.5039634042    -0.3682185382     0.5999074840
   12      C       2.6148797016    -0.9786362235    -0.3557885975
   13      C       3.5218186455     0.1110901692    -1.0335741686
   14      O       3.1516902036     0.9476197154    -1.8875318935
   15      O      -4.9399640855     0.3595244210     0.7342267638
   16      O       4.8589707440     0.0202679587    -0.5345533276
   17      O       2.6662385843     1.8788612235     0.7908605037
   18      C       5.6812833661     1.1073155842    -1.1116063605
   19      C       1.8233073718    -1.1462276035     1.9496349016
   20      C       1.3224217357    -2.6353396352     1.7827435971
   21      C       2.4394827067    -3.2268471775     0.8454596763
   22      C       3.3643376000    -1.9621608132     0.6360565623
   23      O       3.2987531707    -1.2655574889     1.9412886350
   24      H       0.4833818329    -0.6079155978     0.2253452825
   25      H       2.1214903589    -1.5411085791    -1.1701555018
   26      H       1.4776921652    -0.6358650916     2.8694603054
   27      H       1.2968173581    -3.1475822854     2.7577080866
   28      H       0.3188337032    -2.6795395888     1.3303253438
   29      H       2.9981137258    -4.0361294924     1.3423725347
   30      H       2.0367598648    -3.6075115969    -0.1068135703
   31      H       4.4150649032    -2.1777313398     0.3645972889
   32      O      -2.5741232404     1.6622525514     0.8168714372
   33      C      -5.4137933291     0.6987740561     2.0932136263
   34      C      -2.1934222625    -1.9182458907    -0.7269357149
   35      C      -2.2455368975    -2.5454474808    -2.1722980961
   36      C      -1.6723328630    -1.3566994886    -3.0335602237
   37      C      -1.2879738402    -0.3120107640    -1.9133022842
   38      O      -0.9185469284    -1.1629646534    -0.7586125681
   39      H      -4.2057441757    -1.1020818253    -1.2171954528
   40      H      -3.2092951908     0.8391145013    -2.1915204201
   41      H      -4.6617424059     1.3058813093     2.6377995787
   42      H      -2.1997917280    -2.6312336624     0.1206385615
   43      H      -1.5930526760    -3.4314597775    -2.2291222599
   44      H      -3.2661743704    -2.8364782726    -2.4675141691
   45      H      -0.7784288551    -1.6596746574    -3.6011441654
   46      H      -2.4144702754    -0.9462160089    -3.7367229892
   47      H      -0.4615640589     0.3817337453    -2.1633276073
   48      H      -5.6346229783    -0.2096501798     2.6904758395
   49      H      -6.3389109738     1.2892738873     1.9591687111
   50      H       6.6905030779     0.9911273404    -0.6757205241
   51      H       5.2724441360     2.1033612974    -0.8456115320
   52      H       5.7423903323     1.0336009335    -2.2169474152
   53      H       1.2601286658     3.5172448979     0.3262511875
   54      H       0.1973881877     3.6495630747     1.7783121444
   55      H      -1.8116727486     3.8234145921     0.5074675657
   56      H      -0.6925537377     4.4175183371    -0.7944651767
 ----------------------------------------------------------------

    9   -1510.2903967434      2.30E-09 Convergence criterion met
 Total energy in the final basis set = -1510.29039674
 Final energy is   -1510.29039674345
 **  OPTIMIZATION CONVERGED  **

                    Orbital Energies (a.u.)
 --------------------------------------------------------------

 Alpha MOs
 -- Occupied --
-18.944 -18.926 -18.922 -18.920 -18.904 -18.888 -18.874 -18.868
-18.862 -18.854 -10.109 -10.093 -10.090 -10.086 -10.078 -10.068
-10.068 -10.067 -10.054 -10.052 -10.046 -10.046 -10.046 -10.037
-10.028 -10.026 -10.022 -10.010 -10.008 -10.007  -1.024  -1.004
 -0.999  -0.996  -0.983  -0.956  -0.946  -0.929  -0.926  -0.921
 -0.770  -0.749  -0.731  -0.718  -0.709  -0.703  -0.689  -0.656
 -0.649  -0.618  -0.595  -0.572  -0.551  -0.544  -0.533  -0.526
 -0.511  -0.501  -0.486  -0.473  -0.464  -0.461  -0.453  -0.439
 -0.430  -0.425  -0.419  -0.409  -0.407  -0.402  -0.400  -0.399
 -0.391  -0.382  -0.369  -0.365  -0.356  -0.353  -0.348  -0.347
 -0.341  -0.337  -0.334  -0.330  -0.328  -0.318  -0.316  -0.315
 -0.309  -0.305  -0.298  -0.292  -0.289  -0.279  -0.276  -0.273
 -0.264  -0.256  -0.247  -0.245  -0.238  -0.237  -0.217  -0.185
 -0.171  -0.167  -0.162  -0.161  -0.158  -0.148  -0.143  -0.138
 -0.130

          Ground-State Mulliken Net Atomic Charges

     Atom                 Charge (a.u.)
  ----------------------------------------
      1 O                    -0.219383
      2 C                     0.216864
      3 C                    -0.081730
      4 C                    -0.075949
      5 C                     0.223309
      6 O                    -0.168225
      7 C                    -0.048669
      8 C                    -0.052510
      9 O                    -0.174295
     10 C                     0.210436
     11 C                    -0.096679
     12 C                    -0.080764
     13 C                     0.210687
     14 O                    -0.225996
     15 O                    -0.176056
     16 O                    -0.166622
     17 O                    -0.214750
     18 C                    -0.126782
     19 C                     0.025097
     20 C                    -0.143399
     21 C                    -0.143856
     22 C                     0.024395
     23 O                    -0.190523
     24 H                     0.115985
     25 H                     0.080571
     26 H                     0.080907
     27 H                     0.075037
     28 H                     0.077021
     29 H                     0.074404
     30 H                     0.070633
     31 H                     0.087678
     32 O                    -0.203914
     33 C                    -0.128157
     34 C                     0.026011
     35 C                    -0.142396
     36 C                    -0.144517
     37 C                     0.026343
     38 O                    -0.193078
     39 H                     0.084787
     40 H                     0.089107
     41 H                     0.091436
     42 H                     0.091918
     43 H                     0.078519
     44 H                     0.075828
     45 H                     0.080303
     46 H                     0.075980
     47 H                     0.096886
     48 H                     0.086888
     49 H                     0.085767
     50 H                     0.088456
     51 H                     0.093077
     52 H                     0.084817
     53 H                     0.097410
     54 H                     0.085350
     55 H                     0.094604
     56 H                     0.091739
  ----------------------------------------
  Sum of atomic charges =    -0.000000

                    Cartesian Multipole Moments
 -----------------------------------------------------------------
    Charge (ESU x 10^10)
                -0.0000
    Dipole Moment (Debye)
         X      -2.5825      Y       0.0842      Z      -2.5193
       Tot       3.6088
    Quadrupole Moments (Debye-Ang)
        XX    -156.6037     XY      -1.9787     YY    -147.3368
        XZ      -1.1359     YZ       5.5024     ZZ    -160.5215

 Total job time:  61.21s(wall), 2918.18s(cpu)
        *  Thank you very much for using Q-Chem.  Have a nice day.  *
