 Q-Chem 5.0, Q-Chem, Inc., Pleasanton, CA (2017)
 Q-Chem 5.0.1 for Intel X86 EM64T Linux

User input:
--------------------------------------------------------------
$molecule
0  1
O -3.3900663062 -1.0425791598 1.8726683055
C -3.785606672 -0.4911005748 0.8237790376
C -3.3101447716 -0.7973964786 -0.6460453579
C -2.5967221224 0.4090415488 -1.3785432745
C -2.1899528066 1.5409764516 -0.3681601143
O -1.2865019282 2.4310126416 -1.021079165
C -0.9409261578 3.5655967749 -0.1305085849
C 0.2996118987 3.1844016059 0.7741962028
O 0.3046543898 1.708196485 0.8913181605
C 1.6310775091 1.1760960381 0.7859701755
C 1.5039634042 -0.3682185382 0.599907484
C 2.6148797016 -0.9786362235 -0.3557885975
C 3.5218186455 0.1110901692 -1.0335741686
O 3.1516902036 0.9476197154 -1.8875318935
O -4.9399640855 0.359524421 0.7342267638
O 4.858970744 0.0202679587 -0.5345533276
O 2.6662385843 1.8788612235 0.7908605037
C 5.6812833661 1.1073155842 -1.1116063605
C 1.8233073718 -1.1462276035 1.9496349016
C 1.3224217357 -2.6353396352 1.7827435971
C 2.4394827067 -3.2268471775 0.8454596763
C 3.3643376 -1.9621608132 0.6360565623
O 3.2987531707 -1.2655574889 1.941288635
H 0.4833818329 -0.6079155978 0.2253452825
H 2.1214903589 -1.5411085791 -1.1701555018
H 1.4776921652 -0.6358650916 2.8694603054
H 1.2968173581 -3.1475822854 2.7577080866
H 0.3188337032 -2.6795395888 1.3303253438
H 2.9981137258 -4.0361294924 1.3423725347
H 2.0367598648 -3.6075115969 -0.1068135703
H 4.4150649032 -2.1777313398 0.3645972889
O -2.5741232404 1.6622525514 0.8168714372
C -5.4137933291 0.6987740561 2.0932136263
C -2.1934222625 -1.9182458907 -0.7269357149
C -2.2455368975 -2.5454474808 -2.1722980961
C -1.672332863 -1.3566994886 -3.0335602237
C -1.2879738402 -0.312010764 -1.9133022842
O -0.9185469284 -1.1629646534 -0.7586125681
H -4.2057441757 -1.1020818253 -1.2171954528
H -3.2092951908 0.8391145013 -2.1915204201
H -4.6617424059 1.3058813093 2.6377995787
H -2.199791728 -2.6312336624 0.1206385615
H -1.593052676 -3.4314597775 -2.2291222599
H -3.2661743704 -2.8364782726 -2.4675141691
H -0.7784288551 -1.6596746574 -3.6011441654
H -2.4144702754 -0.9462160089 -3.7367229892
H -0.4615640589 0.3817337453 -2.1633276073
H -5.6346229783 -0.2096501798 2.6904758395
H -6.3389109738 1.2892738873 1.9591687111
H 6.6905030779 0.9911273404 -0.6757205241
H 5.272444136 2.1033612974 -0.845611532
H 5.7423903323 1.0336009335 -2.2169474152
H 1.2601286658 3.5172448979 0.3262511875
H 0.1973881877 3.6495630747 1.7783121444
H -1.8116727486 3.8234145921 0.5074675657
H -0.6925537377 4.4175183371 -0.7944651767
$end

$rem
JOBTYPE                   OPT
METHOD                    B3LYP
DFT_D                     d3_op
BASIS                     STO-3G
GEOM_OPT_MAX_CYCLES       100
GEOM_OPT_TOL_GRADIENT     300
GEOM_OPT_TOL_DISPLACEMENT 1200
GEOM_OPT_TOL_ENERGY       100
SYMMETRY                  False
THRESH                    12
SCF_CONVERGENCE           8
MAX_SUB_FILE_NUM          128
MEM_STATIC                400
MEM_TOTAL                 4000
$end
--------------------------------------------------------------

   16   -1510.2905591868      6.76E-09 Convergence criterion met
 Total energy in the final basis set = -1510.29055919
   14   -1510.2873575034      2.47E-09 Convergence criterion met
 Total energy in the final basis set = -1510.28735750
   14   -1510.2912042243      2.60E-09 Convergence criterion met
 Total energy in the final basis set = -1510.29120422
   14   -1510.2939029886      4.61E-09 Convergence criterion met
 Total energy in the final basis set = -1510.29390299
   13   -1510.2955254133      8.65E-09 Convergence criterion met
 Total energy in the final basis set = -1510.29552541
   13   -1510.2971059507      7.92E-09 Convergence criterion met
 Total energy in the final basis set = -1510.29710595
   13   -1510.2975593749      3.92E-09 Convergence criterion met
 Total energy in the final basis set = -1510.29755937
   13   -1510.2982667623      5.12E-09 Convergence criterion met
   11   -1510.3059419432      3.24E-09 Convergence criterion met
 Total energy in the final basis set = -1510.30594194
   10   -1510.3059420531      8.22E-09 Convergence criterion met
 Total energy in the final basis set = -1510.30594205
    9   -1510.3059421532      4.09E-09 Convergence criterion met
 Total energy in the final basis set = -1510.30594215
    8   -1510.3059425553      9.61E-09 Convergence criterion met
 Total energy in the final basis set = -1510.30594256
    9   -1510.3059434276      9.42E-09 Convergence criterion met
 Total energy in the final basis set = -1510.30594343
    9   -1510.3059439795      5.27E-09 Convergence criterion met
 Total energy in the final basis set = -1510.30594398

             Standard Nuclear Orientation (Angstroms)
    I     Atom           X                Y                Z
 ----------------------------------------------------------------
    1      O      -1.8081690146    -1.0875234152     1.2271824742
    2      C      -2.7735755467    -0.8492840277     0.4613548503
    3      C      -2.7598589782    -0.8095287159    -1.1128353076
    4      C      -1.8982012425     0.3948044716    -1.6747593446
    5      C      -1.7467676889     1.5225508870    -0.5979422908
    6      O      -0.8943531591     2.5704134677    -1.0654203241
    7      C      -0.9222331953     3.7070419335    -0.1056559025
    8      C       0.1833107217     3.5463865099     1.0083352672
    9      O       0.1649466669     2.1514836584     1.5030285293
   10      C       1.2029950819     1.4054163310     0.8507856943
   11      C       0.9889075628    -0.1132860075     1.0959428731
   12      C       1.8198697203    -1.0056793368     0.0846011199
   13      C       2.6261434723    -0.1640810555    -0.9660553668
   14      O       2.1743705083     0.3085224529    -2.0425857210
   15      O      -4.1252753097    -0.7194597890     0.9075897999
   16      O       4.0016728030    -0.0867537085    -0.5998098355
   17      O       2.1250245265     1.9408212435     0.1905164365
   18      C       4.7305089567     0.7669254764    -1.5647247597
   19      C       1.5903707650    -0.5961098352     2.4863664713
   20      C       0.9788757385    -2.0205478075     2.7871779863
   21      C       1.7968366130    -2.9152090804     1.7838708168
   22      C       2.7196721411    -1.8357179425     1.0879265186
   23      O       3.0104383221    -0.8740188447     2.1788357045
   24      H      -0.0970036083    -0.3621254835     1.0402015690
   25      H       1.0999118686    -1.6358221649    -0.4777085535
   26      H       1.5029104542     0.1397848514     3.3091687239
   27      H       1.1617024431    -2.3111847784     3.8339348102
   28      H      -0.1049220970    -2.0418937744     2.5863384677
   29      H       2.4085392829    -3.6635238801     2.3127230063
   30      H       1.1508004629    -3.4322831210     1.0567682348
   31      H       3.6614798208    -2.2233956281     0.6550415346
   32      O      -2.3803737148     1.5644385858     0.4839618548
   33      C      -4.1664780139    -0.7250395087     2.3878709877
   34      C      -1.9284462788    -2.0406570754    -1.6606930820
   35      C      -2.0134617192    -2.0766895198    -3.2385497463
   36      C      -0.9885903021    -0.9447414733    -3.6289818731
   37      C      -0.6025998268    -0.3708457488    -2.2109011397
   38      O      -0.5432263956    -1.6042216443    -1.3913686024
   39      H      -3.8015685157    -0.7854895180    -1.4771824049
   40      H      -2.4150263884     0.8653896597    -2.5324859997
   41      H      -3.5972155783     0.1299723671     2.8059971049
   42      H      -2.1417342010    -3.0007326626    -1.1518629463
   43      H      -1.7009911427    -3.0612258916    -3.6211512104
   44      H      -3.0340141463    -1.8676942074    -3.5979964059
   45      H      -0.0961526201    -1.3662319742    -4.1189385678
   46      H      -1.4255828363    -0.1808138407    -4.2912278896
   47      H       0.3984791071     0.1395255132    -2.1574342995
   48      H      -3.7512846461    -1.6653783512     2.8047751660
   49      H      -5.2328537669    -0.6344405446     2.6645809056
   50      H       5.7825462317     0.7800550419    -1.2254481250
   51      H       4.3246510365     1.7990231105    -1.5672567203
   52      H       4.6746886297     0.3604560957    -2.5953768355
   53      H       1.1894789169     3.7630531527     0.5899691234
   54      H      -0.0384227776     4.2192244405     1.8610673102
   55      H      -1.9235380804     3.7656802223     0.3696121875
   56      H      -0.7289465977     4.6204874000    -0.7038553794
 ----------------------------------------------------------------

    9   -1510.3059438811      3.11E-09 Convergence criterion met
 Total energy in the final basis set = -1510.30594388
 Final energy is   -1510.30594388113
 **  OPTIMIZATION CONVERGED  **

                    Orbital Energies (a.u.)
 --------------------------------------------------------------

 Alpha MOs
 -- Occupied --
-18.945 -18.932 -18.931 -18.924 -18.887 -18.885 -18.875 -18.869
-18.867 -18.857 -10.107 -10.100 -10.094 -10.089 -10.076 -10.069
-10.061 -10.060 -10.052 -10.043 -10.041 -10.038 -10.037 -10.036
-10.018 -10.012 -10.009 -10.007 -10.002  -9.999  -1.024  -1.009
 -1.005  -0.997  -0.970  -0.952  -0.945  -0.934  -0.930  -0.921
 -0.762  -0.745  -0.722  -0.715  -0.702  -0.697  -0.686  -0.660
 -0.648  -0.615  -0.591  -0.569  -0.543  -0.535  -0.530  -0.520
 -0.508  -0.500  -0.486  -0.474  -0.459  -0.453  -0.448  -0.433
 -0.430  -0.422  -0.414  -0.413  -0.409  -0.405  -0.399  -0.398
 -0.392  -0.378  -0.368  -0.364  -0.359  -0.355  -0.351  -0.347
 -0.343  -0.340  -0.327  -0.322  -0.318  -0.315  -0.312  -0.308
 -0.300  -0.297  -0.294  -0.288  -0.285  -0.278  -0.273  -0.265
 -0.264  -0.255  -0.249  -0.245  -0.236  -0.228  -0.212  -0.195
 -0.174  -0.168  -0.163  -0.160  -0.154  -0.148  -0.142  -0.137
 -0.126

          Ground-State Mulliken Net Atomic Charges

     Atom                 Charge (a.u.)
  ----------------------------------------
      1 O                    -0.226032
      2 C                     0.222666
      3 C                    -0.079771
      4 C                    -0.081640
      5 C                     0.212170
      6 O                    -0.165717
      7 C                    -0.051784
      8 C                    -0.055856
      9 O                    -0.171007
     10 C                     0.209416
     11 C                    -0.094527
     12 C                    -0.095477
     13 C                     0.220954
     14 O                    -0.229984
     15 O                    -0.167347
     16 O                    -0.163408
     17 O                    -0.213145
     18 C                    -0.126170
     19 C                     0.025408
     20 C                    -0.146231
     21 C                    -0.143604
     22 C                     0.024101
     23 O                    -0.192872
     24 H                     0.114192
     25 H                     0.109920
     26 H                     0.078787
     27 H                     0.071142
     28 H                     0.086342
     29 H                     0.072175
     30 H                     0.073900
     31 H                     0.083433
     32 O                    -0.207770
     33 C                    -0.127695
     34 C                     0.026805
     35 C                    -0.145561
     36 C                    -0.142839
     37 C                     0.005845
     38 O                    -0.196922
     39 H                     0.085918
     40 H                     0.085754
     41 H                     0.094511
     42 H                     0.081384
     43 H                     0.076704
     44 H                     0.072347
     45 H                     0.078150
     46 H                     0.071639
     47 H                     0.120072
     48 H                     0.087439
     49 H                     0.088931
     50 H                     0.088403
     51 H                     0.093907
     52 H                     0.086016
     53 H                     0.101913
     54 H                     0.088602
     55 H                     0.095388
     56 H                     0.091024
  ----------------------------------------
  Sum of atomic charges =    -0.000000

                    Cartesian Multipole Moments
 -----------------------------------------------------------------
    Charge (ESU x 10^10)
                -0.0000
    Dipole Moment (Debye)
         X      -2.6385      Y       0.5916      Z      -1.0596
       Tot       2.9042
    Quadrupole Moments (Debye-Ang)
        XX    -157.7332     XY       0.9692     YY    -146.7374
        XZ      -3.0721     YZ       2.1417     ZZ    -156.4064

 Total job time:  127.39s(wall), 6083.12s(cpu)
        *  Thank you very much for using Q-Chem.  Have a nice day.  *
