 Q-Chem 5.0, Q-Chem, Inc., Pleasanton, CA (2017)
 Q-Chem 5.0.1 for Intel X86 EM64T Linux

User input:
--------------------------------------------------------------
$molecule
0  1
O -3.8995556308 -1.0803510854 1.5810655976
C -3.9034327594 -0.4737023768 0.4889667714
C -3.1162994629 -0.8634883061 -0.8170828124
C -2.2270303531 0.2916281365 -1.4257692358
C -1.986588399 1.4407021334 -0.380956944
O -1.0757257824 2.3676404201 -0.9614688806
C -0.8411782355 3.5361619346 -0.0794412642
C 0.3435563107 3.212307222 0.9137388359
O 0.3263003918 1.7499713375 1.1466037973
C 1.641823081 1.1910178856 1.0658284746
C 1.4763495599 -0.3639830017 1.0291471853
C 2.3531415813 -1.045975498 -0.1038634468
C 2.8707320652 0.0026219058 -1.1413234065
O 2.1758761105 0.4987426237 -2.0615827071
O -4.8659156857 0.5318185114 0.1252276108
O 4.2463769913 0.301858492 -0.9229694921
O 2.6839275386 1.8747529026 0.9606801577
C 4.6883641984 1.361421272 -1.8589992286
C 2.1288420135 -1.0235359405 2.3161988256
C 1.7542241268 -2.5594273799 2.3442733697
C 2.7555524908 -3.1426171108 1.2794400793
C 3.4389142277 -1.8173804128 0.7573896547
O 3.5744206994 -1.007681459 1.9902434963
H 0.4076176086 -0.621001678 0.8760244515
H 1.7117506149 -1.7543130545 -0.659638116
H 1.9386499102 -0.4773374754 3.260509798
H 1.9295327382 -2.9852656843 3.3447332328
H 0.7007411237 -2.7231516333 2.0667483846
H 3.5047118069 -3.7997547448 1.7496003661
H 2.2484769912 -3.6999665573 0.4757128596
H 4.4220152054 -1.9428050437 0.2648210228
O -2.4814105089 1.5402494447 0.7643983555
C -5.6422347767 0.9307559465 1.318424838
C -2.0569059393 -2.0208092969 -0.6192677733
C -1.8398851409 -2.7103242937 -2.0202527757
C -1.0580397053 -1.5777764194 -2.786507756
C -0.8595454444 -0.49560722 -1.6518051636
O -0.7753663046 -1.308872393 -0.4139439922
H -3.8787227822 -1.1695139033 -1.557125669
H -2.6379793701 0.7129388335 -2.3601077315
H -4.9970288611 1.4407942495 2.0630869198
H -2.2699301737 -2.694423658 0.2339044801
H -1.227434901 -3.6199497632 -1.9116474499
H -2.7908145208 -2.9786083994 -2.5071353715
H -0.0803014781 -1.9320303796 -3.1500384997
H -1.6259878701 -1.1768959204 -3.6412432995
H 0.0544745643 0.1318965603 -1.7668304016
H -6.1227007232 0.0581509513 1.8066313388
H -6.4191334028 1.6318998487 0.9615701429
H 5.7613156547 1.5244968986 -1.6492787398
H 4.1295414069 2.3041506357 -1.689084139
H 4.5556871256 1.054687213 -2.9167916805
H 1.3315251995 3.4945155742 0.4906972725
H 0.1990438999 3.752673844 1.8738285905
H -1.7632666008 3.7731404027 0.4917517822
H -0.577472671 4.383715012 -0.7430804751
$end

$rem
JOBTYPE                   OPT
METHOD                    B3LYP
DFT_D                     d3_op
BASIS                     STO-3G
GEOM_OPT_MAX_CYCLES       100
GEOM_OPT_TOL_GRADIENT     300
GEOM_OPT_TOL_DISPLACEMENT 1200
GEOM_OPT_TOL_ENERGY       100
SYMMETRY                  False
THRESH                    12
SCF_CONVERGENCE           8
MAX_SUB_FILE_NUM          128
MEM_STATIC                400
MEM_TOTAL                 4000
$end
--------------------------------------------------------------

   16   -1510.2917211970      6.87E-09 Convergence criterion met
 Total energy in the final basis set = -1510.29172120
   15   -1510.2662284822      6.29E-09 Convergence criterion met
 Total energy in the final basis set = -1510.26622848
   14   -1510.2921151514      5.39E-09 Convergence criterion met
 Total energy in the final basis set = -1510.29211515
   15   -1510.2806001419      7.88E-09 Convergence criterion met
 Total energy in the final basis set = -1510.28060014
   14   -1510.2940072056      7.92E-09 Convergence criterion met
 Total energy in the final basis set = -1510.29400721
   13   -1510.2949337929      9.97E-09 Convergence criterion met
 Total energy in the final basis set = -1510.29493379
   14   -1510.2955635632      5.82E-09 Convergence criterion met
 Total energy in the final basis set = -1510.29556356
   13   -1510.2968028066      5.77E-09 Convergence criterion met
   11   -1510.3058910533      8.98E-09 Convergence criterion met
 Total energy in the final basis set = -1510.30589105
   11   -1510.3059057198      6.10E-09 Convergence criterion met
 Total energy in the final basis set = -1510.30590572
   11   -1510.3059206479      5.19E-09 Convergence criterion met
 Total energy in the final basis set = -1510.30592065
   11   -1510.3059250946      5.84E-09 Convergence criterion met
 Total energy in the final basis set = -1510.30592509
   11   -1510.3059298231      3.35E-09 Convergence criterion met
 Total energy in the final basis set = -1510.30592982
    9   -1510.3059303592      8.60E-09 Convergence criterion met
 Total energy in the final basis set = -1510.30593036

             Standard Nuclear Orientation (Angstroms)
    I     Atom           X                Y                Z
 ----------------------------------------------------------------
    1      O      -1.6806988870    -1.1400114102     1.2902619422
    2      C      -2.6833162637    -0.9535349731     0.5585292728
    3      C      -2.7256123058    -0.9248665214    -1.0154220027
    4      C      -1.9410082357     0.3130242462    -1.6166277230
    5      C      -1.8051170159     1.4558569001    -0.5534264028
    6      O      -1.0259677994     2.5416322055    -1.0605354817
    7      C      -1.0724232252     3.6826097031    -0.1064519932
    8      C       0.0812281054     3.5840806894     0.9650662366
    9      O       0.1446255813     2.1949762620     1.4718627114
   10      C       1.2012430374     1.4937380542     0.7998949550
   11      C       1.0561263719    -0.0319938207     1.0518571849
   12      C       1.8924635427    -0.8929163006     0.0177472649
   13      C       2.6261673814    -0.0223782858    -1.0608853693
   14      O       2.1147041733     0.4312031175    -2.1189499536
   15      O      -4.0227352969    -0.8875509927     1.0527005308
   16      O       4.0096832281     0.1139297754    -0.7461780251
   17      O       2.0826507745     2.0664645348     0.1160131456
   18      C       4.6637539045     0.9977330239    -1.7375331095
   19      C       1.7113862415    -0.4938864589     2.4250791096
   20      C       1.1621708089    -1.9417812754     2.7351192074
   21      C       1.9913578535    -2.8014458548     1.7104345609
   22      C       2.8530443588    -1.6851466193     0.9953478274
   23      O       3.1330224062    -0.7144356192     2.0806108093
   24      H      -0.0200927350    -0.3229423419     1.0254295704
   25      H       1.1806016663    -1.5536384424    -0.5193178426
   26      H       1.6160713517     0.2359916340     3.2523642781
   27      H       1.3790490423    -2.2279385397     3.7765905937
   28      H       0.0757528067    -2.0027009958     2.5568082494
   29      H       2.6443925883    -3.5258929764     2.2228993684
   30      H       1.3495556506    -3.3419748041     0.9968706493
   31      H       3.7980191626    -2.0334318048     0.5366355573
   32      O      -2.3989015602     1.4745964592     0.5515125468
   33      C      -4.0097831308    -0.8923104124     2.5336590351
   34      C      -1.8563280664    -2.1213471097    -1.5809325364
   35      C      -1.9912961974    -2.1800583558    -3.1540666477
   36      C      -1.0375087653    -1.0037176931    -3.5902476491
   37      C      -0.6299027903    -0.3973104882    -2.1913837744
   38      O      -0.4852857940    -1.6177131591    -1.3631383015
   39      H      -3.7789428650    -0.9531004006    -1.3444942134
   40      H      -2.5090397013     0.7509123962    -2.4589274824
   41      H      -3.4720682405    -0.0074765885     2.9309916586
   42      H      -2.0069133980    -3.0846824489    -1.0559162173
   43      H      -1.6425032897    -3.1524510479    -3.5364068122
   44      H      -3.0323187941    -2.0270489695    -3.4815770223
   45      H      -0.1435710726    -1.3870005752    -4.1079942608
   46      H      -1.5342582045    -0.2693858537    -4.2436650225
   47      H       0.3470684737     0.1606585003    -2.1764294345
   48      H      -3.5299114637    -1.8082847250     2.9349928672
   49      H      -5.0687075901    -0.8582007808     2.8490286635
   50      H       5.7268077917     1.0551653168    -1.4399884739
   51      H       4.2148513690     2.0117399434    -1.7220370672
   52      H       4.5842679343     0.5896141912    -2.7659538753
   53      H       1.0601650404     3.8410474898     0.5065594981
   54      H      -0.1380146393     4.2561911382     1.8191070430
   55      H      -2.0567345031     3.6964513526     0.4062932702
   56      H      -0.9460252442     4.5999459959    -0.7163172452
 ----------------------------------------------------------------

    9   -1510.3059306352      7.66E-09 Convergence criterion met
 Total energy in the final basis set = -1510.30593064
 Final energy is   -1510.30593063515
 **  OPTIMIZATION CONVERGED  **

                    Orbital Energies (a.u.)
 --------------------------------------------------------------

 Alpha MOs
 -- Occupied --
-18.945 -18.933 -18.930 -18.925 -18.888 -18.885 -18.875 -18.869
-18.868 -18.857 -10.107 -10.100 -10.093 -10.089 -10.076 -10.069
-10.062 -10.060 -10.052 -10.042 -10.040 -10.039 -10.037 -10.036
-10.018 -10.012 -10.008 -10.006 -10.002  -9.998  -1.024  -1.009
 -1.006  -0.997  -0.970  -0.952  -0.945  -0.933  -0.931  -0.921
 -0.762  -0.745  -0.722  -0.715  -0.702  -0.697  -0.685  -0.660
 -0.648  -0.615  -0.591  -0.569  -0.544  -0.535  -0.530  -0.520
 -0.508  -0.499  -0.486  -0.474  -0.459  -0.453  -0.448  -0.433
 -0.430  -0.422  -0.414  -0.413  -0.409  -0.405  -0.399  -0.398
 -0.392  -0.379  -0.367  -0.365  -0.359  -0.355  -0.351  -0.347
 -0.343  -0.340  -0.327  -0.322  -0.318  -0.315  -0.312  -0.308
 -0.300  -0.297  -0.294  -0.288  -0.285  -0.278  -0.273  -0.265
 -0.264  -0.255  -0.249  -0.244  -0.236  -0.228  -0.212  -0.195
 -0.174  -0.168  -0.163  -0.160  -0.154  -0.148  -0.143  -0.137
 -0.126

          Ground-State Mulliken Net Atomic Charges

     Atom                 Charge (a.u.)
  ----------------------------------------
      1 O                    -0.226054
      2 C                     0.222750
      3 C                    -0.079785
      4 C                    -0.081621
      5 C                     0.212233
      6 O                    -0.165697
      7 C                    -0.051755
      8 C                    -0.055938
      9 O                    -0.171203
     10 C                     0.209388
     11 C                    -0.094429
     12 C                    -0.096023
     13 C                     0.220661
     14 O                    -0.230096
     15 O                    -0.167248
     16 O                    -0.163212
     17 O                    -0.213206
     18 C                    -0.126199
     19 C                     0.025491
     20 C                    -0.146736
     21 C                    -0.143556
     22 C                     0.024041
     23 O                    -0.192968
     24 H                     0.113783
     25 H                     0.110315
     26 H                     0.078701
     27 H                     0.070895
     28 H                     0.087189
     29 H                     0.072010
     30 H                     0.073858
     31 H                     0.083319
     32 O                    -0.207585
     33 C                    -0.127679
     34 C                     0.027054
     35 C                    -0.145555
     36 C                    -0.142906
     37 C                     0.005934
     38 O                    -0.196903
     39 H                     0.085920
     40 H                     0.085821
     41 H                     0.094503
     42 H                     0.081453
     43 H                     0.076789
     44 H                     0.072444
     45 H                     0.078140
     46 H                     0.071779
     47 H                     0.119988
     48 H                     0.087575
     49 H                     0.088985
     50 H                     0.088436
     51 H                     0.093979
     52 H                     0.086088
     53 H                     0.101962
     54 H                     0.088462
     55 H                     0.095388
     56 H                     0.091019
  ----------------------------------------
  Sum of atomic charges =    -0.000000

                    Cartesian Multipole Moments
 -----------------------------------------------------------------
    Charge (ESU x 10^10)
                -0.0000
    Dipole Moment (Debye)
         X      -2.7376      Y       0.4459      Z      -1.0208
       Tot       2.9555
    Quadrupole Moments (Debye-Ang)
        XX    -158.1989     XY       0.5443     YY    -146.6470
        XZ      -3.2404     YZ       1.9197     ZZ    -156.2224

 Total job time:  134.21s(wall), 6405.37s(cpu)
        *  Thank you very much for using Q-Chem.  Have a nice day.  *
