 Q-Chem 5.0, Q-Chem, Inc., Pleasanton, CA (2017)
 Q-Chem 5.0.1 for Intel X86 EM64T Linux

User input:
--------------------------------------------------------------
$molecule
0  1
O -3.94934 -3.66094 2.70899
C -3.26408 -4.56952 2.26188
C -3.36658 -6.02376 2.66595
C -2.07204 -6.72116 3.11501
C -0.85359 -5.84008 3.27984
O 0.17887 -6.56833 3.7986
C 1.39313 -5.81931 3.91602
C 1.43681 -5.09592 5.25801
O 0.10298 -4.78219 5.68852
C -0.1683 -5.0515 6.98968
C -1.64062 -4.9639 7.31409
C -2.19437 -6.13985 8.13188
C -1.16115 -7.02531 8.79907
O -0.49585 -7.88434 8.23871
O -2.49363 -4.31619 1.16871
O -1.00758 -6.90489 10.14809
O 0.69555 -5.16919 7.85166
C -0.12468 -7.64497 10.90675
C -1.99123 -3.77788 8.23725
C -3.44978 -3.38001 8.01888
C -4.15705 -4.58031 8.6137
C -2.95863 -5.33389 9.20889
O -2.03571 -4.32308 9.53056
H -2.18279 -4.79318 6.36432
H -2.87973 -6.80424 7.563
H -1.32531 -2.89793 8.09951
H -3.63656 -2.49533 8.66953
H -3.74043 -3.13017 6.97566
H -4.84992 -4.22023 9.40605
H -4.70313 -5.21849 7.88521
H -3.29761 -5.9737 10.05332
O -0.79305 -4.63559 3.06618
C -2.3455 -3.07231 0.59111
C -4.27132 -6.27203 3.88393
C -4.76147 -7.72097 3.89091
C -3.4943 -8.4464 4.29457
C -2.54198 -7.26307 4.48174
O -3.38263 -6.24471 4.96584
H -3.80196 -6.53703 1.77908
H -1.77793 -7.54148 2.42247
H -1.90941 -2.36024 1.32403
H -5.1372 -5.57717 3.93937
H -5.5051 -7.82708 4.71292
H -5.21791 -8.05573 2.9346
H -3.67014 -8.93761 5.2779
H -3.11617 -9.19216 3.56244
H -1.70177 -7.55609 5.14834
H -3.32865 -2.69389 0.23832
H -1.66139 -3.1543 -0.27818
H -0.21126 -7.3369 11.96883
H 0.91695 -7.46398 10.56525
H -0.36451 -8.72678 10.82713
H 1.92146 -5.81326 5.96033
H 2.08188 -4.19371 5.19608
H 1.49105 -5.07823 3.0888
H 2.28223 -6.47457 3.79579
$end

$opt
CONSTRAINT
tors           1           2           3           4    -127.112
tors           3           4           5           6    +174.372
tors           4           5           6           7    +176.777
tors           5           6           7           8     +87.834
tors           6           7           8           9     -29.743
tors           7           8           9          10    +134.770
tors           8           9          10          11    -168.544
tors           9          10          11          12    +133.125
tors          11          12          13          14     -77.793
ENDCONSTRAINT
$end

$rem
JOBTYPE                   OPT
METHOD                    B3LYP
DFT_D                     d3_op
BASIS                     STO-3G
GEOM_OPT_MAX_CYCLES       100
GEOM_OPT_TOL_GRADIENT     300
GEOM_OPT_TOL_DISPLACEMENT 1200
GEOM_OPT_TOL_ENERGY       100
SYMMETRY                  False
THRESH                    12
SCF_CONVERGENCE           8
MAX_SUB_FILE_NUM          128
MEM_STATIC                400
MEM_TOTAL                 4000
$end
--------------------------------------------------------------

   15   -1510.1575347460      9.60E-09 Convergence criterion met
 Total energy in the final basis set = -1510.15753475
   14   -1510.2267956973      5.52E-09 Convergence criterion met
 Total energy in the final basis set = -1510.22679570
   14   -1510.2613131237      2.13E-09 Convergence criterion met
 Total energy in the final basis set = -1510.26131312
   14   -1510.2781267793      6.47E-09 Convergence criterion met
 Total energy in the final basis set = -1510.27812678
   14   -1510.2835293541      2.62E-09 Convergence criterion met
 Total energy in the final basis set = -1510.28352935
   13   -1510.2870164605      4.04E-09 Convergence criterion met
 Total energy in the final basis set = -1510.28701646
   13   -1510.2884280208      5.45E-09 Convergence criterion met
 Total energy in the final basis set = -1510.28842802
   13   -1510.2895637758      3.39E-09 Convergence criterion met
   10   -1510.2918477066      8.22E-09 Convergence criterion met
 Total energy in the final basis set = -1510.29184771
   10   -1510.2918543271      8.99E-09 Convergence criterion met
 Total energy in the final basis set = -1510.29185433
   10   -1510.2918586204      7.41E-09 Convergence criterion met
 Total energy in the final basis set = -1510.29185862
    9   -1510.2918652059      6.50E-09 Convergence criterion met
 Total energy in the final basis set = -1510.29186521
    9   -1510.2918682185      3.65E-09 Convergence criterion met
 Total energy in the final basis set = -1510.29186822
    9   -1510.2918708008      4.53E-09 Convergence criterion met
 Total energy in the final basis set = -1510.29187080

             Standard Nuclear Orientation (Angstroms)
    I     Atom           X                Y                Z
 ----------------------------------------------------------------
    1      O      -3.8995556308    -1.0803510854     1.5810655976
    2      C      -3.9034327594    -0.4737023768     0.4889667714
    3      C      -3.1162994629    -0.8634883061    -0.8170828124
    4      C      -2.2270303531     0.2916281365    -1.4257692358
    5      C      -1.9865883990     1.4407021334    -0.3809569440
    6      O      -1.0757257824     2.3676404201    -0.9614688806
    7      C      -0.8411782355     3.5361619346    -0.0794412642
    8      C       0.3435563107     3.2123072220     0.9137388359
    9      O       0.3263003918     1.7499713375     1.1466037973
   10      C       1.6418230810     1.1910178856     1.0658284746
   11      C       1.4763495599    -0.3639830017     1.0291471853
   12      C       2.3531415813    -1.0459754980    -0.1038634468
   13      C       2.8707320652     0.0026219058    -1.1413234065
   14      O       2.1758761105     0.4987426237    -2.0615827071
   15      O      -4.8659156857     0.5318185114     0.1252276108
   16      O       4.2463769913     0.3018584920    -0.9229694921
   17      O       2.6839275386     1.8747529026     0.9606801577
   18      C       4.6883641984     1.3614212720    -1.8589992286
   19      C       2.1288420135    -1.0235359405     2.3161988256
   20      C       1.7542241268    -2.5594273799     2.3442733697
   21      C       2.7555524908    -3.1426171108     1.2794400793
   22      C       3.4389142277    -1.8173804128     0.7573896547
   23      O       3.5744206994    -1.0076814590     1.9902434963
   24      H       0.4076176086    -0.6210016780     0.8760244515
   25      H       1.7117506149    -1.7543130545    -0.6596381160
   26      H       1.9386499102    -0.4773374754     3.2605097980
   27      H       1.9295327382    -2.9852656843     3.3447332328
   28      H       0.7007411237    -2.7231516333     2.0667483846
   29      H       3.5047118069    -3.7997547448     1.7496003661
   30      H       2.2484769912    -3.6999665573     0.4757128596
   31      H       4.4220152054    -1.9428050437     0.2648210228
   32      O      -2.4814105089     1.5402494447     0.7643983555
   33      C      -5.6422347767     0.9307559465     1.3184248380
   34      C      -2.0569059393    -2.0208092969    -0.6192677733
   35      C      -1.8398851409    -2.7103242937    -2.0202527757
   36      C      -1.0580397053    -1.5777764194    -2.7865077560
   37      C      -0.8595454444    -0.4956072200    -1.6518051636
   38      O      -0.7753663046    -1.3088723930    -0.4139439922
   39      H      -3.8787227822    -1.1695139033    -1.5571256690
   40      H      -2.6379793701     0.7129388335    -2.3601077315
   41      H      -4.9970288611     1.4407942495     2.0630869198
   42      H      -2.2699301737    -2.6944236580     0.2339044801
   43      H      -1.2274349010    -3.6199497632    -1.9116474499
   44      H      -2.7908145208    -2.9786083994    -2.5071353715
   45      H      -0.0803014781    -1.9320303796    -3.1500384997
   46      H      -1.6259878701    -1.1768959204    -3.6412432995
   47      H       0.0544745643     0.1318965603    -1.7668304016
   48      H      -6.1227007232     0.0581509513     1.8066313388
   49      H      -6.4191334028     1.6318998487     0.9615701429
   50      H       5.7613156547     1.5244968986    -1.6492787398
   51      H       4.1295414069     2.3041506357    -1.6890841390
   52      H       4.5556871256     1.0546872130    -2.9167916805
   53      H       1.3315251995     3.4945155742     0.4906972725
   54      H       0.1990438999     3.7526738440     1.8738285905
   55      H      -1.7632666008     3.7731404027     0.4917517822
   56      H      -0.5774726710     4.3837150120    -0.7430804751
 ----------------------------------------------------------------

    9   -1510.2918715432      2.09E-09 Convergence criterion met
 Total energy in the final basis set = -1510.29187154
 Final energy is   -1510.29187154322
 **  OPTIMIZATION CONVERGED  **

                    Orbital Energies (a.u.)
 --------------------------------------------------------------

 Alpha MOs
 -- Occupied --
-18.939 -18.935 -18.929 -18.916 -18.893 -18.883 -18.877 -18.871
-18.866 -18.860 -10.105 -10.096 -10.093 -10.090 -10.078 -10.068
-10.061 -10.060 -10.055 -10.053 -10.050 -10.050 -10.039 -10.033
-10.026 -10.021 -10.019 -10.016 -10.012 -10.010  -1.021  -1.009
 -1.003  -0.996  -0.975  -0.960  -0.943  -0.932  -0.931  -0.923
 -0.764  -0.753  -0.727  -0.717  -0.709  -0.701  -0.692  -0.656
 -0.653  -0.618  -0.594  -0.573  -0.545  -0.538  -0.537  -0.528
 -0.507  -0.505  -0.485  -0.475  -0.461  -0.458  -0.454  -0.436
 -0.429  -0.427  -0.422  -0.412  -0.407  -0.404  -0.402  -0.399
 -0.392  -0.380  -0.371  -0.364  -0.357  -0.353  -0.350  -0.348
 -0.343  -0.337  -0.331  -0.330  -0.323  -0.322  -0.315  -0.311
 -0.307  -0.301  -0.300  -0.295  -0.294  -0.276  -0.274  -0.271
 -0.268  -0.251  -0.250  -0.243  -0.241  -0.237  -0.220  -0.182
 -0.174  -0.172  -0.164  -0.157  -0.152  -0.151  -0.145  -0.141
 -0.133

          Ground-State Mulliken Net Atomic Charges

     Atom                 Charge (a.u.)
  ----------------------------------------
      1 O                    -0.220309
      2 C                     0.216874
      3 C                    -0.081719
      4 C                    -0.076375
      5 C                     0.223926
      6 O                    -0.169691
      7 C                    -0.048219
      8 C                    -0.053814
      9 O                    -0.172362
     10 C                     0.207449
     11 C                    -0.090504
     12 C                    -0.082040
     13 C                     0.209585
     14 O                    -0.226555
     15 O                    -0.177635
     16 O                    -0.159480
     17 O                    -0.214074
     18 C                    -0.125933
     19 C                     0.024826
     20 C                    -0.144259
     21 C                    -0.142484
     22 C                     0.024732
     23 O                    -0.188510
     24 H                     0.115401
     25 H                     0.087177
     26 H                     0.080789
     27 H                     0.075707
     28 H                     0.077911
     29 H                     0.075444
     30 H                     0.071939
     31 H                     0.086536
     32 O                    -0.205035
     33 C                    -0.128474
     34 C                     0.024593
     35 C                    -0.142941
     36 C                    -0.144805
     37 C                     0.019026
     38 O                    -0.198089
     39 H                     0.083602
     40 H                     0.088778
     41 H                     0.090115
     42 H                     0.090439
     43 H                     0.076103
     44 H                     0.074148
     45 H                     0.078348
     46 H                     0.074447
     47 H                     0.105002
     48 H                     0.086868
     49 H                     0.085120
     50 H                     0.091969
     51 H                     0.091435
     52 H                     0.087324
     53 H                     0.096541
     54 H                     0.085273
     55 H                     0.094181
     56 H                     0.091697
  ----------------------------------------
  Sum of atomic charges =    -0.000000

                    Cartesian Multipole Moments
 -----------------------------------------------------------------
    Charge (ESU x 10^10)
                -0.0000
    Dipole Moment (Debye)
         X      -1.2704      Y       0.3490      Z      -2.4328
       Tot       2.7667
    Quadrupole Moments (Debye-Ang)
        XX    -160.6538     XY      -3.3139     YY    -145.7955
        XZ      -2.4318     YZ       3.2223     ZZ    -160.0098

 Total job time:  72.40s(wall), 3451.49s(cpu)
        *  Thank you very much for using Q-Chem.  Have a nice day.  *
