 Q-Chem 5.0, Q-Chem, Inc., Pleasanton, CA (2017)
 Q-Chem 5.0.1 for Intel X86 EM64T Linux

User input:
--------------------------------------------------------------
$molecule
0  1
O -3.94934 -3.66094 2.70899
C -3.26408 -4.56952 2.26188
C -3.36658 -6.02376 2.66595
C -2.12469 -6.66392 3.30763
C -0.97925 -5.73221 3.6362
O -0.08996 -6.36243 4.45926
C 1.06569 -5.56991 4.7519
C 0.84265 -4.7669 6.02923
O -0.53922 -4.39 6.13535
C -1.10091 -4.57109 7.35635
C -2.59063 -4.32336 7.36128
C -3.42352 -5.39991 8.07235
C -2.65092 -6.35172 8.96333
O -2.23971 -7.45488 8.6339
O -2.41715 -4.29949 1.23178
O -2.34423 -5.9168 10.21785
O -0.45264 -4.72029 8.38591
C -1.62721 -6.64339 11.1454
C -3.01195 -3.06633 8.14972
C -4.35562 -2.56287 7.62321
C -5.27944 -3.65977 8.11593
C -4.29704 -4.48486 8.95806
O -3.36549 -3.53825 9.42419
H -2.91216 -4.17282 6.30603
H -4.0411 -6.01899 7.39013
H -2.25351 -2.25372 8.12006
H -4.58524 -1.6262 8.18059
H -4.40583 -2.35693 6.53226
H -6.06599 -3.19584 8.75129
H -5.74481 -4.2817 7.32053
H -4.84008 -5.0601 9.74042
O -0.8948 -4.55108 3.32415
C -2.22936 -3.04611 0.68741
C -4.41916 -6.25734 3.76366
C -4.87831 -7.715 3.75604
C -3.66137 -8.39431 4.3422
C -2.77039 -7.18035 4.61671
O -3.6831 -6.16698 4.95087
H -3.67996 -6.56796 1.74691
H -1.70341 -7.50186 2.70912
H -1.84676 -2.34655 1.46114
H -5.30191 -5.58636 3.68072
H -5.71916 -7.81104 4.47984
H -5.2017 -8.09133 2.7617
H -3.95519 -8.86657 5.30653
H -3.17078 -9.14625 3.68718
H -2.03425 -7.44113 5.40736
H -3.18552 -2.66142 0.27266
H -1.48542 -3.11358 -0.13259
H -1.52841 -6.04775 12.07589
H -0.61174 -6.86689 10.75403
H -2.15692 -7.59102 11.38124
H 1.13809 -5.45228 6.85662
H 1.51842 -3.88569 6.05821
H 1.30523 -4.86478 3.92252
H 1.97488 -6.20303 4.83315
$end

$opt
CONSTRAINT
tors           1           2           3           4    -118.400
tors           3           4           5           6    +166.349
tors           4           5           6           7    +176.498
tors           5           6           7           8     +92.056
tors           6           7           8           9     -33.757
tors           7           8           9          10    +134.770
tors           8           9          10          11    -172.749
tors           9          10          11          12    +133.125
tors          11          12          13          14     -95.681
ENDCONSTRAINT
$end

$rem
JOBTYPE                   OPT
METHOD                    B3LYP
DFT_D                     d3_op
BASIS                     STO-3G
GEOM_OPT_MAX_CYCLES       100
GEOM_OPT_TOL_GRADIENT     300
GEOM_OPT_TOL_DISPLACEMENT 1200
GEOM_OPT_TOL_ENERGY       100
SYMMETRY                  False
THRESH                    12
SCF_CONVERGENCE           8
MAX_SUB_FILE_NUM          128
MEM_STATIC                400
MEM_TOTAL                 4000
$end
--------------------------------------------------------------

   16   -1510.1591775662      2.40E-09 Convergence criterion met
 Total energy in the final basis set = -1510.15917757
   14   -1510.2284625689      4.21E-09 Convergence criterion met
 Total energy in the final basis set = -1510.22846257
   14   -1510.2628798779      3.14E-09 Convergence criterion met
 Total energy in the final basis set = -1510.26287988
   14   -1510.2797509818      5.93E-09 Convergence criterion met
 Total energy in the final basis set = -1510.27975098
   14   -1510.2852344514      2.72E-09 Convergence criterion met
 Total energy in the final basis set = -1510.28523445
   13   -1510.2883966976      4.02E-09 Convergence criterion met
 Total energy in the final basis set = -1510.28839670
   13   -1510.2893098608      5.54E-09 Convergence criterion met
 Total energy in the final basis set = -1510.28930986
   13   -1510.2903927423      3.34E-09 Convergence criterion met
   11   -1510.2911392369      6.41E-09 Convergence criterion met
 Total energy in the final basis set = -1510.29113924
   11   -1510.2911627977      3.19E-09 Convergence criterion met
 Total energy in the final basis set = -1510.29116280
    9   -1510.2911614717      6.35E-09 Convergence criterion met
 Total energy in the final basis set = -1510.29116147
    9   -1510.2911604168      9.59E-09 Convergence criterion met
 Total energy in the final basis set = -1510.29116042
    9   -1510.2911593827      5.55E-09 Convergence criterion met
 Total energy in the final basis set = -1510.29115938
    9   -1510.2911581535      4.83E-09 Convergence criterion met
 Total energy in the final basis set = -1510.29115815

             Standard Nuclear Orientation (Angstroms)
    I     Atom           X                Y                Z
 ----------------------------------------------------------------
    1      O      -3.2470597571    -1.4658873726     1.6466450143
    2      C      -3.6245200373    -0.7907794996     0.6653566073
    3      C      -3.0710985410    -0.8640397849    -0.8061472688
    4      C      -2.4199031289     0.4764936443    -1.3380599123
    5      C      -2.1457505710     1.5058711999    -0.1818421228
    6      O      -1.2840805613     2.5270375487    -0.6863857049
    7      C      -1.0553003282     3.5768624423     0.3374435791
    8      C       0.2391794958     3.2231741664     1.1668371435
    9      O       0.2956846028     1.7468141879     1.2597910399
   10      C       1.6183257708     1.2610678464     0.9885735597
   11      C       1.5209059610    -0.2950069125     0.9287886611
   12      C       2.2593519143    -0.9403901187    -0.3195982011
   13      C       2.9981838189     0.1089224315    -1.2175998192
   14      O       2.5386399249     0.6417910760    -2.2535733373
   15      O      -4.8216052002     0.0030583926     0.6372374575
   16      O       4.3167930837     0.3348490032    -0.7157387298
   17      O       2.6020629839     2.0050516286     0.7812206391
   18      C       4.9815811403     1.3953051646    -1.5052663573
   19      C       2.2524368738    -1.0359633010     2.1289126029
   20      C       1.6772719532    -2.5053553865     2.2001462291
   21      C       2.3783077982    -3.1642906387     0.9546057464
   22      C       3.2358843303    -1.9544793296     0.4076845581
   23      O       3.6349207557    -1.2284084040     1.6365420126
   24      H       0.4463222131    -0.5522339615     0.8694146625
   25      H       1.4981275846    -1.4443885933    -0.9443674209
   26      H       2.2545466591    -0.4817471409     3.0874791715
   27      H       1.9826490343    -2.9925604173     3.1398473535
   28      H       0.5778873793    -2.5245903724     2.1305721112
   29      H       3.0340425307    -3.9974505206     1.2540948114
   30      H       1.6570835130    -3.5333653784     0.2078009075
   31      H       4.1297681377    -2.2366849410    -0.1807721269
   32      O      -2.5781898017     1.4586187551     0.9915524859
   33      C      -5.3741944732     0.1187056658     2.0038822185
   34      C      -1.8835480934    -1.8931549448    -0.9842928162
   35      C      -1.8161341665    -2.3060607977    -2.5046384216
   36      C      -1.2705011666    -0.9762248809    -3.1492153112
   37      C      -1.0269100626    -0.0824398186    -1.8704887012
   38      O      -0.6680729352    -1.0652165472    -0.8200124041
   39      H      -3.9248964563    -1.1411558735    -1.4514000083
   40      H      -3.0172445584     0.9589191652    -2.1323303918
   41      H      -4.6969930255     0.7046783554     2.6588183756
   42      H      -1.8878822721    -2.7233051950    -0.2510379076
   43      H      -1.1078505898    -3.1385653048    -2.6431798491
   44      H      -2.7979865785    -2.6055969104    -2.9042368365
   45      H      -0.3233426882    -1.1420375856    -3.6866679357
   46      H      -1.9927403308    -0.5133843729    -3.8403338025
   47      H      -0.2318583601     0.6829029038    -1.9707877461
   48      H      -5.5388632689    -0.8765142102     2.4650804767
   49      H      -6.3397047941     0.6478195254     1.9028180280
   50      H       6.0142178066     1.4632163793    -1.1167548858
   51      H       4.4708163358     2.3706376998    -1.3708555223
   52      H       5.0030720093     1.1506450578    -2.5870593158
   53      H       1.1659758587     3.5840989337     0.6710370553
   54      H       0.1782524669     3.6668259286     2.1837743055
   55      H      -1.9335299314     3.6402288939     1.0134301784
   56      H      -0.9224812805     4.5327814158    -0.2080434713
 ----------------------------------------------------------------

    9   -1510.2911582594      2.78E-09 Convergence criterion met
 Total energy in the final basis set = -1510.29115826
 Final energy is   -1510.29115825944
 **  OPTIMIZATION CONVERGED  **

                    Orbital Energies (a.u.)
 --------------------------------------------------------------

 Alpha MOs
 -- Occupied --
-18.941 -18.929 -18.923 -18.920 -18.895 -18.886 -18.877 -18.873
-18.862 -18.857 -10.107 -10.094 -10.092 -10.086 -10.078 -10.069
-10.063 -10.062 -10.054 -10.052 -10.050 -10.049 -10.043 -10.035
-10.023 -10.022 -10.020 -10.019 -10.010 -10.009  -1.022  -1.007
 -0.998  -0.997  -0.977  -0.959  -0.945  -0.932  -0.925  -0.922
 -0.766  -0.752  -0.729  -0.718  -0.709  -0.702  -0.691  -0.655
 -0.649  -0.618  -0.594  -0.573  -0.547  -0.540  -0.537  -0.527
 -0.510  -0.503  -0.487  -0.474  -0.460  -0.459  -0.453  -0.435
 -0.428  -0.425  -0.420  -0.410  -0.406  -0.402  -0.401  -0.400
 -0.394  -0.381  -0.369  -0.364  -0.356  -0.355  -0.347  -0.344
 -0.338  -0.337  -0.334  -0.330  -0.328  -0.321  -0.314  -0.313
 -0.309  -0.303  -0.299  -0.295  -0.292  -0.278  -0.274  -0.269
 -0.267  -0.254  -0.247  -0.245  -0.242  -0.238  -0.220  -0.184
 -0.173  -0.167  -0.165  -0.159  -0.153  -0.150  -0.143  -0.139
 -0.132

          Ground-State Mulliken Net Atomic Charges

     Atom                 Charge (a.u.)
  ----------------------------------------
      1 O                    -0.220137
      2 C                     0.216309
      3 C                    -0.081812
      4 C                    -0.076323
      5 C                     0.221253
      6 O                    -0.170201
      7 C                    -0.049633
      8 C                    -0.054759
      9 O                    -0.172505
     10 C                     0.208438
     11 C                    -0.085367
     12 C                    -0.083911
     13 C                     0.206499
     14 O                    -0.226773
     15 O                    -0.175314
     16 O                    -0.161244
     17 O                    -0.213916
     18 C                    -0.126274
     19 C                     0.025404
     20 C                    -0.143034
     21 C                    -0.143782
     22 C                     0.025746
     23 O                    -0.186706
     24 H                     0.106132
     25 H                     0.094289
     26 H                     0.081048
     27 H                     0.075433
     28 H                     0.078391
     29 H                     0.074878
     30 H                     0.072954
     31 H                     0.083382
     32 O                    -0.205094
     33 C                    -0.128230
     34 C                     0.023812
     35 C                    -0.143238
     36 C                    -0.144769
     37 C                     0.024461
     38 O                    -0.195621
     39 H                     0.084356
     40 H                     0.088773
     41 H                     0.091072
     42 H                     0.089449
     43 H                     0.077276
     44 H                     0.074601
     45 H                     0.082100
     46 H                     0.074773
     47 H                     0.098801
     48 H                     0.087278
     49 H                     0.085804
     50 H                     0.089439
     51 H                     0.090480
     52 H                     0.085682
     53 H                     0.098260
     54 H                     0.084986
     55 H                     0.096084
     56 H                     0.091002
  ----------------------------------------
  Sum of atomic charges =    -0.000000

                    Cartesian Multipole Moments
 -----------------------------------------------------------------
    Charge (ESU x 10^10)
                 0.0000
    Dipole Moment (Debye)
         X      -2.3190      Y       0.5239      Z      -1.6250
       Tot       2.8798
    Quadrupole Moments (Debye-Ang)
        XX    -159.8820     XY      -2.1920     YY    -147.5144
        XZ      -0.9800     YZ       5.3375     ZZ    -158.5667

 Total job time:  61.02s(wall), 2907.38s(cpu)
        *  Thank you very much for using Q-Chem.  Have a nice day.  *
