 Q-Chem 5.0, Q-Chem, Inc., Pleasanton, CA (2017)
 Q-Chem 5.0.1 for Intel X86 EM64T Linux

User input:
--------------------------------------------------------------
$molecule
0  1
O -3.2470597571 -1.4658873726 1.6466450143
C -3.6245200373 -0.7907794996 0.6653566073
C -3.071098541 -0.8640397849 -0.8061472688
C -2.4199031289 0.4764936443 -1.3380599123
C -2.145750571 1.5058711999 -0.1818421228
O -1.2840805613 2.5270375487 -0.6863857049
C -1.0553003282 3.5768624423 0.3374435791
C 0.2391794958 3.2231741664 1.1668371435
O 0.2956846028 1.7468141879 1.2597910399
C 1.6183257708 1.2610678464 0.9885735597
C 1.520905961 -0.2950069125 0.9287886611
C 2.2593519143 -0.9403901187 -0.3195982011
C 2.9981838189 0.1089224315 -1.2175998192
O 2.5386399249 0.641791076 -2.2535733373
O -4.8216052002 0.0030583926 0.6372374575
O 4.3167930837 0.3348490032 -0.7157387298
O 2.6020629839 2.0050516286 0.7812206391
C 4.9815811403 1.3953051646 -1.5052663573
C 2.2524368738 -1.035963301 2.1289126029
C 1.6772719532 -2.5053553865 2.2001462291
C 2.3783077982 -3.1642906387 0.9546057464
C 3.2358843303 -1.9544793296 0.4076845581
O 3.6349207557 -1.228408404 1.6365420126
H 0.4463222131 -0.5522339615 0.8694146625
H 1.4981275846 -1.4443885933 -0.9443674209
H 2.2545466591 -0.4817471409 3.0874791715
H 1.9826490343 -2.9925604173 3.1398473535
H 0.5778873793 -2.5245903724 2.1305721112
H 3.0340425307 -3.9974505206 1.2540948114
H 1.657083513 -3.5333653784 0.2078009075
H 4.1297681377 -2.236684941 -0.1807721269
O -2.5781898017 1.4586187551 0.9915524859
C -5.3741944732 0.1187056658 2.0038822185
C -1.8835480934 -1.8931549448 -0.9842928162
C -1.8161341665 -2.3060607977 -2.5046384216
C -1.2705011666 -0.9762248809 -3.1492153112
C -1.0269100626 -0.0824398186 -1.8704887012
O -0.6680729352 -1.0652165472 -0.8200124041
H -3.9248964563 -1.1411558735 -1.4514000083
H -3.0172445584 0.9589191652 -2.1323303918
H -4.6969930255 0.7046783554 2.6588183756
H -1.8878822721 -2.723305195 -0.2510379076
H -1.1078505898 -3.1385653048 -2.6431798491
H -2.7979865785 -2.6055969104 -2.9042368365
H -0.3233426882 -1.1420375856 -3.6866679357
H -1.9927403308 -0.5133843729 -3.8403338025
H -0.2318583601 0.6829029038 -1.9707877461
H -5.5388632689 -0.8765142102 2.4650804767
H -6.3397047941 0.6478195254 1.902818028
H 6.0142178066 1.4632163793 -1.1167548858
H 4.4708163358 2.3706376998 -1.3708555223
H 5.0030720093 1.1506450578 -2.5870593158
H 1.1659758587 3.5840989337 0.6710370553
H 0.1782524669 3.6668259286 2.1837743055
H -1.9335299314 3.6402288939 1.0134301784
H -0.9224812805 4.5327814158 -0.2080434713
$end

$rem
JOBTYPE                   OPT
METHOD                    B3LYP
DFT_D                     d3_op
BASIS                     STO-3G
GEOM_OPT_MAX_CYCLES       100
GEOM_OPT_TOL_GRADIENT     300
GEOM_OPT_TOL_DISPLACEMENT 1200
GEOM_OPT_TOL_ENERGY       100
SYMMETRY                  False
THRESH                    12
SCF_CONVERGENCE           8
MAX_SUB_FILE_NUM          128
MEM_STATIC                400
MEM_TOTAL                 4000
$end
--------------------------------------------------------------

   15   -1510.2912683102      9.96E-09 Convergence criterion met
 Total energy in the final basis set = -1510.29126831
   14   -1510.2924908967      3.89E-09 Convergence criterion met
 Total energy in the final basis set = -1510.29249090
   14   -1510.2944174835      4.80E-09 Convergence criterion met
 Total energy in the final basis set = -1510.29441748
   14   -1510.2907379866      4.07E-09 Convergence criterion met
 Total energy in the final basis set = -1510.29073799
   13   -1510.2938609114      5.31E-09 Convergence criterion met
 Total energy in the final basis set = -1510.29386091
   14   -1510.2889275667      5.68E-09 Convergence criterion met
 Total energy in the final basis set = -1510.28892757
   14   -1510.2939063715      6.00E-09 Convergence criterion met
 Total energy in the final basis set = -1510.29390637
   15   -1510.2935211760      4.94E-09 Convergence criterion met
   12   -1510.3058945903      7.33E-09 Convergence criterion met
 Total energy in the final basis set = -1510.30589459
   12   -1510.3058945390      8.10E-09 Convergence criterion met
 Total energy in the final basis set = -1510.30589454
   12   -1510.3059536878      4.93E-09 Convergence criterion met
 Total energy in the final basis set = -1510.30595369
   12   -1510.3059106592      3.15E-09 Convergence criterion met
 Total energy in the final basis set = -1510.30591066
   12   -1510.3059570254      2.16E-09 Convergence criterion met
 Total energy in the final basis set = -1510.30595703
    9   -1510.3059567583      4.25E-09 Convergence criterion met
 Total energy in the final basis set = -1510.30595676

             Standard Nuclear Orientation (Angstroms)
    I     Atom           X                Y                Z
 ----------------------------------------------------------------
    1      O      -1.7447007836    -1.1320268814     1.2687176916
    2      C      -2.7332222968    -0.9164342163     0.5258987523
    3      C      -2.7527775559    -0.8583359636    -1.0478469572
    4      C      -1.9380618665     0.3765354559    -1.6137152388
    5      C      -1.8011897884     1.4975945296    -0.5279096310
    6      O      -0.9944773870     2.5784114123    -1.0012882492
    7      C      -1.0369239763     3.7020786108    -0.0268344140
    8      C       0.1000823312     3.5644576168     1.0579253826
    9      O       0.1328305479     2.1653113554     1.5397985222
   10      C       1.1836941027     1.4574746312     0.8657257246
   11      C       1.0147087204    -0.0694493193     1.0939811775
   12      C       1.8519638352    -0.9266712730     0.0575424609
   13      C       2.6144034072    -0.0505504191    -0.9968730375
   14      O       2.1270527752     0.4249068627    -2.0566376240
   15      O      -4.0787390974    -0.8387218381     1.0018252210
   16      O       3.9945185317     0.0603894977    -0.6581028447
   17      O       2.0806309735     2.0266261824     0.1991334006
   18      C       4.6782044351     0.9475233576    -1.6260938156
   19      C       1.6497521755    -0.5564247379     2.4681495731
   20      C       1.0797040221    -2.0006481628     2.7564904141
   21      C       1.9054635913    -2.8585439833     1.7275294905
   22      C       2.7896606106    -1.7455012645     1.0351654500
   23      O       3.0717422620    -0.7921199064     2.1353420736
   24      H      -0.0648754993    -0.3464652288     1.0515855816
   25      H       1.1388697871    -1.5692181352    -0.4996168101
   26      H       1.5558131421     0.1649316636     3.3030079958
   27      H       1.2857166065    -2.3019955261     3.7958932684
   28      H      -0.0060990041    -2.0463712634     2.5705786496
   29      H       2.5435213635    -3.5990421902     2.2358399386
   30      H       1.2621981078    -3.3805792420     1.0015328235
   31      H       3.7344877131    -2.1016571112     0.5822241805
   32      O      -2.4129936557     1.5063117871     0.5672953579
   33      C      -4.0879505278    -0.8705827122     2.4823948246
   34      C      -1.8959911651    -2.0588048503    -1.6237967600
   35      C      -2.0079245843    -2.0828801975    -3.1999224785
   36      C      -1.0244490722    -0.9172048176    -3.5973590576
   37      C      -0.6299751476    -0.3453166508    -2.1806698905
   38      O      -0.5198517718    -1.5839040233    -1.3744566711
   39      H      -3.8017442592    -0.8617421972    -1.3916487990
   40      H      -2.4845270263     0.8394499830    -2.4570645199
   41      H      -3.5429268316    -0.0014936334     2.9038300018
   42      H      -2.0716848941    -3.0295874626    -1.1209198847
   43      H      -1.6728385741    -3.0540781336    -3.5971831444
   44      H      -3.0405589855    -1.9019079195    -3.5395537703
   45      H      -0.1290048059    -1.3077930391    -4.1069895214
   46      H      -1.4954594198    -0.1608904804    -4.2447517784
   47      H       0.3561380548     0.1947136114    -2.1397293568
   48      H      -3.6280987122    -1.8010150753     2.8737887777
   49      H      -5.1508229809    -0.8258700074     2.7827905110
   50      H       5.7361853977     0.9872504395    -1.3081717453
   51      H       4.2423313814     1.9671162824    -1.6065218965
   52      H       4.6128484086     0.5528491928    -2.6607630251
   53      H       1.0893838997     3.8124294296     0.6171163241
   54      H      -0.1190731507     4.2242155467     1.9215543971
   55      H      -2.0278506838     3.7213425545     0.4728058149
   56      H      -0.8881731436     4.6286235589    -0.6175270930
 ----------------------------------------------------------------

    9   -1510.3059566185      4.75E-09 Convergence criterion met
 Total energy in the final basis set = -1510.30595662
 Final energy is   -1510.30595661845
 **  OPTIMIZATION CONVERGED  **

                    Orbital Energies (a.u.)
 --------------------------------------------------------------

 Alpha MOs
 -- Occupied --
-18.945 -18.933 -18.930 -18.925 -18.887 -18.885 -18.875 -18.869
-18.867 -18.857 -10.107 -10.100 -10.093 -10.089 -10.076 -10.069
-10.062 -10.060 -10.052 -10.042 -10.041 -10.039 -10.037 -10.036
-10.018 -10.012 -10.009 -10.007 -10.002  -9.999  -1.024  -1.009
 -1.005  -0.997  -0.970  -0.952  -0.945  -0.934  -0.930  -0.921
 -0.762  -0.745  -0.722  -0.715  -0.702  -0.697  -0.685  -0.660
 -0.648  -0.615  -0.591  -0.569  -0.543  -0.535  -0.530  -0.520
 -0.508  -0.499  -0.486  -0.474  -0.459  -0.453  -0.448  -0.433
 -0.430  -0.422  -0.414  -0.413  -0.409  -0.405  -0.399  -0.398
 -0.392  -0.378  -0.368  -0.365  -0.359  -0.355  -0.351  -0.347
 -0.343  -0.340  -0.327  -0.322  -0.318  -0.315  -0.312  -0.308
 -0.300  -0.297  -0.294  -0.288  -0.285  -0.278  -0.273  -0.265
 -0.264  -0.255  -0.249  -0.244  -0.236  -0.228  -0.212  -0.195
 -0.174  -0.168  -0.163  -0.160  -0.154  -0.148  -0.142  -0.137
 -0.126

          Ground-State Mulliken Net Atomic Charges

     Atom                 Charge (a.u.)
  ----------------------------------------
      1 O                    -0.226081
      2 C                     0.222732
      3 C                    -0.079741
      4 C                    -0.081640
      5 C                     0.212212
      6 O                    -0.165734
      7 C                    -0.051776
      8 C                    -0.055934
      9 O                    -0.171119
     10 C                     0.209387
     11 C                    -0.094578
     12 C                    -0.095686
     13 C                     0.220816
     14 O                    -0.230047
     15 O                    -0.167306
     16 O                    -0.163293
     17 O                    -0.213183
     18 C                    -0.126174
     19 C                     0.025450
     20 C                    -0.146442
     21 C                    -0.143583
     22 C                     0.024073
     23 O                    -0.192916
     24 H                     0.114126
     25 H                     0.110056
     26 H                     0.078734
     27 H                     0.071037
     28 H                     0.086718
     29 H                     0.072084
     30 H                     0.073906
     31 H                     0.083365
     32 O                    -0.207669
     33 C                    -0.127679
     34 C                     0.026913
     35 C                    -0.145568
     36 C                    -0.142874
     37 C                     0.005859
     38 O                    -0.196931
     39 H                     0.085915
     40 H                     0.085762
     41 H                     0.094435
     42 H                     0.081403
     43 H                     0.076740
     44 H                     0.072397
     45 H                     0.078145
     46 H                     0.071727
     47 H                     0.120026
     48 H                     0.087533
     49 H                     0.088951
     50 H                     0.088435
     51 H                     0.093986
     52 H                     0.086020
     53 H                     0.101996
     54 H                     0.088508
     55 H                     0.095493
     56 H                     0.091014
  ----------------------------------------
  Sum of atomic charges =    -0.000000

                    Cartesian Multipole Moments
 -----------------------------------------------------------------
    Charge (ESU x 10^10)
                -0.0000
    Dipole Moment (Debye)
         X      -2.6909      Y       0.5127      Z      -1.0258
       Tot       2.9250
    Quadrupole Moments (Debye-Ang)
        XX    -157.9426     XY       0.7071     YY    -146.7170
        XZ      -3.2084     YZ       2.1306     ZZ    -156.2804

 Total job time:  116.54s(wall), 5561.89s(cpu)
        *  Thank you very much for using Q-Chem.  Have a nice day.  *
