 Q-Chem 5.0, Q-Chem, Inc., Pleasanton, CA (2017)
 Q-Chem 5.0.1 for Intel X86 EM64T Linux

User input:
--------------------------------------------------------------
$molecule
0  1
O -3.5980894609 -1.2553946156 1.6608240704
C -3.8287201855 -0.6367724148 0.5998675885
C -3.1523550118 -0.8705348457 -0.8007700094
C -2.451359861 0.4017280372 -1.4286037334
C -2.2024851533 1.5313133036 -0.3608761733
O -1.2294266155 2.4418402612 -0.8770374064
C -0.9661972746 3.5298235946 0.0972394648
C 0.2795421722 3.1767069518 0.9957011656
O 0.2865578084 1.7098792194 1.1982044125
C 1.6079029358 1.1823531146 1.0089471793
C 1.4933267171 -0.3674885738 0.8815643714
C 2.4387472156 -0.9627086733 -0.246932171
C 3.1724790341 0.148949633 -1.0761848583
O 2.6390600906 0.8906935772 -1.9323672157
O -4.9623985095 0.2197416159 0.3897520358
O 4.5586569089 0.1923762887 -0.7306682692
O 2.6282736211 1.8958796545 0.8783646683
C 5.213950698 1.3167869299 -1.4357211878
C 2.0499280271 -1.1258787752 2.1584395396
C 1.582050486 -2.6329738265 2.0820922975
C 2.5580329898 -3.2008044663 0.9858922824
C 3.381300457 -1.9047368968 0.6105105093
O 3.507941857 -1.1952383815 1.9057368722
H 0.4392474906 -0.6186684736 0.6393248904
H 1.8184924437 -1.5438999682 -0.9543100722
H 1.8458607215 -0.6205295775 3.1223339556
H 1.7265798705 -3.1336341651 3.0527233439
H 0.5225759893 -2.7200156163 1.7925843382
H 3.2241927904 -3.9745143911 1.3996838899
H 2.0239496973 -3.6199082473 0.1183157812
H 4.3798648042 -2.0843259585 0.1689973032
O -2.7111072723 1.6151053073 0.7794555911
C -5.6365148497 0.4809256383 1.6796010523
C -1.9746272875 -1.9239431978 -0.79108993
C -1.8418748866 -2.5101979893 -2.2485409626
C -1.2591163514 -1.2641950914 -3.0173321981
C -1.0512351963 -0.2319866252 -1.8390280206
O -0.7543185987 -1.0974755662 -0.6723708903
H -3.957706333 -1.2100453767 -1.4782702697
H -3.0048281893 0.8141127892 -2.2912080723
H -4.9865585348 1.072828006 2.3564035891
H -2.0280418805 -2.660697046 0.0341715746
H -1.1336220746 -3.3543174024 -2.2579682631
H -2.8074147662 -2.8519188624 -2.6540304084
H -0.2972644524 -1.4964476829 -3.5009980256
H -1.9532118586 -0.8787149372 -3.7813459557
H -0.2382264358 0.50694669 -1.9848222549
H -5.918598263 -0.4608304741 2.1935433481
H -6.5464763419 1.0616388089 1.4406451132
H 6.283690589 1.2683833699 -1.161404967
H 4.7910708883 2.2899934834 -1.1125635209
H 5.1057874624 1.2308075506 -2.536454287
H 1.2371449546 3.4731615377 0.5162364857
H 0.19659495 3.6982245434 1.9737080734
H -1.8622098797 3.6743277044 0.7366046428
H -0.7670870834 4.4473283238 -0.4927171646
$end

$rem
JOBTYPE                   OPT
METHOD                    B3LYP
DFT_D                     d3_op
BASIS                     STO-3G
GEOM_OPT_MAX_CYCLES       100
GEOM_OPT_TOL_GRADIENT     300
GEOM_OPT_TOL_DISPLACEMENT 1200
GEOM_OPT_TOL_ENERGY       100
SYMMETRY                  False
THRESH                    12
SCF_CONVERGENCE           8
MAX_SUB_FILE_NUM          128
MEM_STATIC                400
MEM_TOTAL                 4000
$end
--------------------------------------------------------------

   16   -1510.2900807115      7.36E-09 Convergence criterion met
 Total energy in the final basis set = -1510.29008071
   14   -1510.2915913710      1.69E-09 Convergence criterion met
 Total energy in the final basis set = -1510.29159137
   14   -1510.2957681075      2.57E-09 Convergence criterion met
 Total energy in the final basis set = -1510.29576811
   14   -1510.2876591082      9.13E-09 Convergence criterion met
 Total energy in the final basis set = -1510.28765911
   14   -1510.2838434909      5.70E-09 Convergence criterion met
 Total energy in the final basis set = -1510.28384349
   14   -1510.2833626183      9.86E-09 Convergence criterion met
 Total energy in the final basis set = -1510.28336262
   14   -1510.2863284530      6.14E-09 Convergence criterion met
 Total energy in the final basis set = -1510.28632845
   14   -1510.2891308566      1.90E-09 Convergence criterion met
   12   -1510.3059049901      5.56E-09 Convergence criterion met
 Total energy in the final basis set = -1510.30590499
   11   -1510.3059211349      4.93E-09 Convergence criterion met
 Total energy in the final basis set = -1510.30592113
   10   -1510.3059218551      6.48E-09 Convergence criterion met
 Total energy in the final basis set = -1510.30592186
   10   -1510.3059194669      6.94E-09 Convergence criterion met
 Total energy in the final basis set = -1510.30591947
    9   -1510.3059216180      6.12E-09 Convergence criterion met
 Total energy in the final basis set = -1510.30592162
    9   -1510.3059222689      6.84E-09 Convergence criterion met
 Total energy in the final basis set = -1510.30592227

             Standard Nuclear Orientation (Angstroms)
    I     Atom           X                Y                Z
 ----------------------------------------------------------------
    1      O      -1.7071613912    -1.1646614462     1.2616212110
    2      C      -2.7051624773    -0.9556189563     0.5296502622
    3      C      -2.7409997035    -0.8913305840    -1.0435749022
    4      C      -1.9437479545     0.3533225648    -1.6129384143
    5      C      -1.8058307695     1.4709538567    -0.5236976735
    6      O      -1.0135506534     2.5610637771    -1.0001847450
    7      C      -1.0565127717     3.6798287790    -0.0201386240
    8      C       0.0919981244     3.5475437336     1.0531947034
    9      O       0.1423379853     2.1464248802     1.5277154683
   10      C       1.1953514816     1.4524970434     0.8425991527
   11      C       1.0416256888    -0.0773406022     1.0621279144
   12      C       1.8753581546    -0.9201661230     0.0109541060
   13      C       2.6179420073    -0.0303972835    -1.0460549337
   14      O       2.1135920659     0.4489598436    -2.0961584749
   15      O      -4.0464833691    -0.8934475969     1.0194198494
   16      O       4.0011123329     0.0900460751    -0.7235190267
   17      O       2.0819672254     2.0338281807     0.1727117663
   18      C       4.6649746907     0.9898430301    -1.6936768283
   19      C       1.6943696252    -0.5697951339     2.4260715630
   20      C       1.1392517333    -2.0211799954     2.7082500323
   21      C       1.9625930418    -2.8637678289     1.6646389188
   22      C       2.8302487534    -1.7377275674     0.9727867907
   23      O       3.1149831490    -0.7905088111     2.0774540718
   24      H      -0.0360709414    -0.3627428886     1.0286670529
   25      H       1.1617388782    -1.5652149637    -0.5426634129
   26      H       1.6025885243     0.1440334426     3.2676085511
   27      H       1.3576952133    -2.3289919629     3.7432248068
   28      H       0.0521132185    -2.0744153664     2.5321961360
   29      H       2.6116856321    -3.6026538408     2.1611658337
   30      H       1.3169967438    -3.3856103513     0.9405789318
   31      H       3.7734934620    -2.0817988955     0.5074158567
   32      O      -2.4067976700     1.4693300342     0.5775323791
   33      C      -4.0403672867    -0.9340657922     2.4998269298
   34      C      -1.8787379765    -2.0814398815    -1.6326012263
   35      C      -2.0062190530    -2.1015746619    -3.2074792031
   36      C      -1.0387272987    -0.9246671943    -3.6109592959
   37      C      -0.6348529897    -0.3539586262    -2.1963468740
   38      O      -0.5048048523    -1.5942052838    -1.3956905723
   39      H      -3.7932174393    -0.9034515491    -1.3771351745
   40      H      -2.5035450414     0.8145084234    -2.4484181949
   41      H      -3.4987376398    -0.0627165250     2.9209628650
   42      H      -2.0399790774    -3.0555581810    -1.1313177360
   43      H      -1.6650011289    -3.0680172371    -3.6110714292
   44      H      -3.0439923340    -1.9304406201    -3.5363984489
   45      H      -0.1449802664    -1.3046244996    -4.1314547761
   46      H      -1.5240414243    -0.1708573357    -4.2506318172
   47      H       0.3463308688     0.1957495281    -2.1634171034
   48      H      -3.5683939912    -1.8626777425     2.8809517563
   49      H      -5.1004907780    -0.9005574538     2.8112155196
   50      H       5.7259604112     1.0385125439    -1.3872739938
   51      H       4.2189716266     2.0047677899    -1.6632175532
   52      H       4.5921416843     0.6005712455    -2.7298987546
   53      H       1.0747602197     3.8067449433     0.6042811594
   54      H      -0.1249648841     4.2012172216     1.9220172380
   55      H      -2.0428048584     3.6881253203     0.4888812355
   56      H      -0.9214551478     4.6103558001    -0.6078239152
 ----------------------------------------------------------------

    9   -1510.3059220710      3.55E-09 Convergence criterion met
 Total energy in the final basis set = -1510.30592207
 Final energy is   -1510.30592207099
 **  OPTIMIZATION CONVERGED  **

                    Orbital Energies (a.u.)
 --------------------------------------------------------------

 Alpha MOs
 -- Occupied --
-18.945 -18.933 -18.930 -18.925 -18.887 -18.885 -18.875 -18.869
-18.867 -18.857 -10.107 -10.100 -10.093 -10.089 -10.076 -10.069
-10.062 -10.060 -10.052 -10.042 -10.041 -10.039 -10.037 -10.036
-10.018 -10.012 -10.009 -10.007 -10.002  -9.999  -1.024  -1.009
 -1.005  -0.997  -0.970  -0.952  -0.945  -0.934  -0.930  -0.921
 -0.762  -0.745  -0.722  -0.715  -0.702  -0.697  -0.685  -0.660
 -0.648  -0.615  -0.591  -0.569  -0.543  -0.535  -0.530  -0.520
 -0.508  -0.499  -0.486  -0.474  -0.459  -0.453  -0.448  -0.433
 -0.430  -0.422  -0.414  -0.413  -0.409  -0.405  -0.399  -0.398
 -0.392  -0.378  -0.368  -0.365  -0.359  -0.355  -0.351  -0.347
 -0.343  -0.340  -0.327  -0.322  -0.318  -0.315  -0.312  -0.308
 -0.300  -0.297  -0.294  -0.288  -0.285  -0.278  -0.273  -0.265
 -0.264  -0.255  -0.249  -0.244  -0.236  -0.228  -0.212  -0.195
 -0.174  -0.168  -0.163  -0.160  -0.154  -0.148  -0.142  -0.137
 -0.126

          Ground-State Mulliken Net Atomic Charges

     Atom                 Charge (a.u.)
  ----------------------------------------
      1 O                    -0.226106
      2 C                     0.222715
      3 C                    -0.079743
      4 C                    -0.081633
      5 C                     0.212237
      6 O                    -0.165707
      7 C                    -0.051771
      8 C                    -0.055952
      9 O                    -0.171121
     10 C                     0.209391
     11 C                    -0.094545
     12 C                    -0.095789
     13 C                     0.220781
     14 O                    -0.230030
     15 O                    -0.167303
     16 O                    -0.163225
     17 O                    -0.213200
     18 C                    -0.126164
     19 C                     0.025469
     20 C                    -0.146471
     21 C                    -0.143579
     22 C                     0.024060
     23 O                    -0.192920
     24 H                     0.114063
     25 H                     0.110175
     26 H                     0.078719
     27 H                     0.071021
     28 H                     0.086788
     29 H                     0.072069
     30 H                     0.073912
     31 H                     0.083362
     32 O                    -0.207641
     33 C                    -0.127672
     34 C                     0.026963
     35 C                    -0.145568
     36 C                    -0.142903
     37 C                     0.005785
     38 O                    -0.196986
     39 H                     0.085906
     40 H                     0.085754
     41 H                     0.094438
     42 H                     0.081406
     43 H                     0.076742
     44 H                     0.072413
     45 H                     0.078108
     46 H                     0.071747
     47 H                     0.120074
     48 H                     0.087517
     49 H                     0.088950
     50 H                     0.088465
     51 H                     0.094038
     52 H                     0.085998
     53 H                     0.101998
     54 H                     0.088481
     55 H                     0.095482
     56 H                     0.091002
  ----------------------------------------
  Sum of atomic charges =    -0.000000

                    Cartesian Multipole Moments
 -----------------------------------------------------------------
    Charge (ESU x 10^10)
                -0.0000
    Dipole Moment (Debye)
         X      -2.7059      Y       0.4866      Z      -1.0054
       Tot       2.9274
    Quadrupole Moments (Debye-Ang)
        XX    -158.1180     XY       0.6990     YY    -146.7438
        XZ      -3.1927     YZ       2.1462     ZZ    -156.1366

 Total job time:  125.24s(wall), 5975.56s(cpu)
        *  Thank you very much for using Q-Chem.  Have a nice day.  *
