 Q-Chem 5.0, Q-Chem, Inc., Pleasanton, CA (2017)
 Q-Chem 5.0.1 for Intel X86 EM64T Linux

User input:
--------------------------------------------------------------
$molecule
0  1
O -3.94934 -3.66094 2.70899
C -3.26408 -4.56952 2.26188
C -3.36658 -6.02376 2.66595
C -2.09096 -6.6965 3.19894
C -0.90075 -5.79347 3.43563
O 0.00015 -6.41732 4.25086
C 1.16123 -5.62385 4.5184
C 0.98161 -4.85211 5.82158
O -0.39752 -4.48726 5.9882
C -0.91176 -4.70036 7.22484
C -2.41939 -4.6187 7.25721
C -3.10696 -5.68463 8.12285
C -2.20961 -6.42946 9.09067
O -1.38875 -7.28177 8.78355
O -2.46619 -4.30882 1.19025
O -2.36004 -6.1649 10.41933
O -0.22345 -4.71039 8.23922
C -1.62999 -6.7617 11.42617
C -2.93905 -3.3312 7.93788
C -4.33112 -3.0015 7.40123
C -5.13449 -4.13828 7.99892
C -4.07201 -4.76998 8.91065
O -3.22965 -3.70094 9.26139
H -2.77405 -4.55786 6.2139
H -3.65289 -6.4512 7.53323
H -2.26109 -2.45857 7.81244
H -4.63826 -2.04905 7.89069
H -4.42357 -2.88724 6.29953
H -5.97571 -3.70276 8.58208
H -5.51667 -4.88402 7.26804
H -4.56579 -5.30157 9.75368
O -0.81382 -4.61574 3.11338
C -2.30733 -3.06161 0.62272
C -4.36173 -6.30279 3.8009
C -4.82139 -7.76055 3.75246
C -3.57478 -8.46397 4.24795
C -2.66545 -7.2623 4.5224
O -3.56555 -6.27387 4.94793
H -3.72717 -6.54005 1.74777
H -1.72873 -7.52709 2.55324
H -1.89251 -2.35166 1.36989
H -5.24119 -5.62292 3.79304
H -5.62605 -7.89183 4.51094
H -5.19281 -8.09261 2.75911
H -3.8187 -8.96933 5.20943
H -3.12495 -9.19539 3.54248
H -1.88643 -7.55284 5.25934
H -3.28246 -2.68465 0.24684
H -1.60104 -3.13715 -0.22925
H -1.96113 -6.35669 12.40429
H -0.54871 -6.54238 11.29541
H -1.79492 -7.86032 11.41929
H 1.30434 -5.55219 6.62733
H 1.65342 -3.9677 5.84765
H 1.37038 -4.89278 3.7039
H 2.07681 -6.25211 4.54757
$end

$opt
CONSTRAINT
tors           1           2           3           4    -123.361
tors           3           4           5           6    +162.427
tors           4           5           6           7    +179.794
tors           5           6           7           8     +94.361
tors           6           7           8           9     -33.757
tors           7           8           9          10    +134.770
tors           8           9          10          11    -166.141
tors           9          10          11          12    +138.825
tors          11          12          13          14     -73.266
ENDCONSTRAINT
$end

$rem
JOBTYPE                   OPT
METHOD                    B3LYP
DFT_D                     d3_op
BASIS                     STO-3G
GEOM_OPT_MAX_CYCLES       100
GEOM_OPT_TOL_GRADIENT     300
GEOM_OPT_TOL_DISPLACEMENT 1200
GEOM_OPT_TOL_ENERGY       100
SYMMETRY                  False
THRESH                    12
SCF_CONVERGENCE           8
MAX_SUB_FILE_NUM          128
MEM_STATIC                400
MEM_TOTAL                 4000
$end
--------------------------------------------------------------

   15   -1510.1524266553      9.42E-09 Convergence criterion met
 Total energy in the final basis set = -1510.15242666
   14   -1510.2220708468      5.11E-09 Convergence criterion met
 Total energy in the final basis set = -1510.22207085
   14   -1510.2553246164      3.23E-09 Convergence criterion met
 Total energy in the final basis set = -1510.25532462
   14   -1510.2761788245      3.68E-09 Convergence criterion met
 Total energy in the final basis set = -1510.27617882
   13   -1510.2824723255      6.51E-09 Convergence criterion met
 Total energy in the final basis set = -1510.28247233
   13   -1510.2847578317      8.89E-09 Convergence criterion met
 Total energy in the final basis set = -1510.28475783
   13   -1510.2870290991      3.82E-09 Convergence criterion met
 Total energy in the final basis set = -1510.28702910
   13   -1510.2878023060      5.02E-09 Convergence criterion met
   12   -1510.2897887586      9.20E-09 Convergence criterion met
 Total energy in the final basis set = -1510.28978876
   12   -1510.2899287502      5.12E-09 Convergence criterion met
 Total energy in the final basis set = -1510.28992875
   12   -1510.2900221573      4.52E-09 Convergence criterion met
 Total energy in the final basis set = -1510.29002216
   11   -1510.2900822068      9.11E-09 Convergence criterion met
 Total energy in the final basis set = -1510.29008221
   11   -1510.2901121808      6.87E-09 Convergence criterion met
 Total energy in the final basis set = -1510.29011218
   11   -1510.2901224621      4.26E-09 Convergence criterion met
 Total energy in the final basis set = -1510.29012246

             Standard Nuclear Orientation (Angstroms)
    I     Atom           X                Y                Z
 ----------------------------------------------------------------
    1      O      -3.5980894609    -1.2553946156     1.6608240704
    2      C      -3.8287201855    -0.6367724148     0.5998675885
    3      C      -3.1523550118    -0.8705348457    -0.8007700094
    4      C      -2.4513598610     0.4017280372    -1.4286037334
    5      C      -2.2024851533     1.5313133036    -0.3608761733
    6      O      -1.2294266155     2.4418402612    -0.8770374064
    7      C      -0.9661972746     3.5298235946     0.0972394648
    8      C       0.2795421722     3.1767069518     0.9957011656
    9      O       0.2865578084     1.7098792194     1.1982044125
   10      C       1.6079029358     1.1823531146     1.0089471793
   11      C       1.4933267171    -0.3674885738     0.8815643714
   12      C       2.4387472156    -0.9627086733    -0.2469321710
   13      C       3.1724790341     0.1489496330    -1.0761848583
   14      O       2.6390600906     0.8906935772    -1.9323672157
   15      O      -4.9623985095     0.2197416159     0.3897520358
   16      O       4.5586569089     0.1923762887    -0.7306682692
   17      O       2.6282736211     1.8958796545     0.8783646683
   18      C       5.2139506980     1.3167869299    -1.4357211878
   19      C       2.0499280271    -1.1258787752     2.1584395396
   20      C       1.5820504860    -2.6329738265     2.0820922975
   21      C       2.5580329898    -3.2008044663     0.9858922824
   22      C       3.3813004570    -1.9047368968     0.6105105093
   23      O       3.5079418570    -1.1952383815     1.9057368722
   24      H       0.4392474906    -0.6186684736     0.6393248904
   25      H       1.8184924437    -1.5438999682    -0.9543100722
   26      H       1.8458607215    -0.6205295775     3.1223339556
   27      H       1.7265798705    -3.1336341651     3.0527233439
   28      H       0.5225759893    -2.7200156163     1.7925843382
   29      H       3.2241927904    -3.9745143911     1.3996838899
   30      H       2.0239496973    -3.6199082473     0.1183157812
   31      H       4.3798648042    -2.0843259585     0.1689973032
   32      O      -2.7111072723     1.6151053073     0.7794555911
   33      C      -5.6365148497     0.4809256383     1.6796010523
   34      C      -1.9746272875    -1.9239431978    -0.7910899300
   35      C      -1.8418748866    -2.5101979893    -2.2485409626
   36      C      -1.2591163514    -1.2641950914    -3.0173321981
   37      C      -1.0512351963    -0.2319866252    -1.8390280206
   38      O      -0.7543185987    -1.0974755662    -0.6723708903
   39      H      -3.9577063330    -1.2100453767    -1.4782702697
   40      H      -3.0048281893     0.8141127892    -2.2912080723
   41      H      -4.9865585348     1.0728280060     2.3564035891
   42      H      -2.0280418805    -2.6606970460     0.0341715746
   43      H      -1.1336220746    -3.3543174024    -2.2579682631
   44      H      -2.8074147662    -2.8519188624    -2.6540304084
   45      H      -0.2972644524    -1.4964476829    -3.5009980256
   46      H      -1.9532118586    -0.8787149372    -3.7813459557
   47      H      -0.2382264358     0.5069466900    -1.9848222549
   48      H      -5.9185982630    -0.4608304741     2.1935433481
   49      H      -6.5464763419     1.0616388089     1.4406451132
   50      H       6.2836905890     1.2683833699    -1.1614049670
   51      H       4.7910708883     2.2899934834    -1.1125635209
   52      H       5.1057874624     1.2308075506    -2.5364542870
   53      H       1.2371449546     3.4731615377     0.5162364857
   54      H       0.1965949500     3.6982245434     1.9737080734
   55      H      -1.8622098797     3.6743277044     0.7366046428
   56      H      -0.7670870834     4.4473283238    -0.4927171646
 ----------------------------------------------------------------

   10   -1510.2901231116      9.08E-09 Convergence criterion met
 Total energy in the final basis set = -1510.29012311
 Final energy is   -1510.29012311161
 **  OPTIMIZATION CONVERGED  **

                    Orbital Energies (a.u.)
 --------------------------------------------------------------

 Alpha MOs
 -- Occupied --
-18.941 -18.927 -18.924 -18.921 -18.900 -18.886 -18.875 -18.870
-18.864 -18.855 -10.107 -10.094 -10.091 -10.087 -10.076 -10.067
-10.066 -10.065 -10.055 -10.053 -10.048 -10.047 -10.044 -10.037
-10.026 -10.025 -10.022 -10.012 -10.010 -10.009  -1.021  -1.006
 -1.000  -0.997  -0.981  -0.957  -0.945  -0.930  -0.926  -0.922
 -0.768  -0.750  -0.730  -0.718  -0.710  -0.703  -0.690  -0.656
 -0.650  -0.617  -0.594  -0.572  -0.550  -0.542  -0.535  -0.526
 -0.510  -0.502  -0.486  -0.473  -0.463  -0.459  -0.453  -0.438
 -0.428  -0.425  -0.420  -0.410  -0.407  -0.402  -0.401  -0.400
 -0.393  -0.380  -0.370  -0.366  -0.356  -0.355  -0.348  -0.346
 -0.340  -0.338  -0.335  -0.329  -0.329  -0.319  -0.316  -0.313
 -0.310  -0.304  -0.299  -0.292  -0.290  -0.279  -0.275  -0.272
 -0.266  -0.254  -0.248  -0.245  -0.238  -0.238  -0.217  -0.184
 -0.171  -0.169  -0.163  -0.160  -0.156  -0.150  -0.145  -0.139
 -0.131

          Ground-State Mulliken Net Atomic Charges

     Atom                 Charge (a.u.)
  ----------------------------------------
      1 O                    -0.218538
      2 C                     0.216704
      3 C                    -0.081522
      4 C                    -0.075585
      5 C                     0.220532
      6 O                    -0.168873
      7 C                    -0.050365
      8 C                    -0.054113
      9 O                    -0.172673
     10 C                     0.209799
     11 C                    -0.094029
     12 C                    -0.081110
     13 C                     0.209639
     14 O                    -0.228339
     15 O                    -0.174802
     16 O                    -0.165028
     17 O                    -0.215004
     18 C                    -0.126696
     19 C                     0.024638
     20 C                    -0.143268
     21 C                    -0.143523
     22 C                     0.024341
     23 O                    -0.189376
     24 H                     0.115960
     25 H                     0.083928
     26 H                     0.080572
     27 H                     0.075284
     28 H                     0.076298
     29 H                     0.074866
     30 H                     0.071087
     31 H                     0.087026
     32 O                    -0.205517
     33 C                    -0.128011
     34 C                     0.025013
     35 C                    -0.142487
     36 C                    -0.144740
     37 C                     0.025002
     38 O                    -0.194389
     39 H                     0.084571
     40 H                     0.089226
     41 H                     0.091360
     42 H                     0.091341
     43 H                     0.077614
     44 H                     0.075276
     45 H                     0.080542
     46 H                     0.075495
     47 H                     0.101415
     48 H                     0.087257
     49 H                     0.086135
     50 H                     0.088762
     51 H                     0.092307
     52 H                     0.085716
     53 H                     0.098532
     54 H                     0.084502
     55 H                     0.096685
     56 H                     0.090561
  ----------------------------------------
  Sum of atomic charges =    -0.000000

                    Cartesian Multipole Moments
 -----------------------------------------------------------------
    Charge (ESU x 10^10)
                -0.0000
    Dipole Moment (Debye)
         X      -2.1915      Y       0.0939      Z      -2.3331
       Tot       3.2023
    Quadrupole Moments (Debye-Ang)
        XX    -158.8884     XY      -2.0981     YY    -147.5605
        XZ      -1.5250     YZ       5.1545     ZZ    -159.3744

 Total job time:  58.30s(wall), 2774.58s(cpu)
        *  Thank you very much for using Q-Chem.  Have a nice day.  *
