 Q-Chem 5.0, Q-Chem, Inc., Pleasanton, CA (2017)
 Q-Chem 5.0.1 for Intel X86 EM64T Linux

User input:
--------------------------------------------------------------
$molecule
0  1
O -3.94934 -3.66094 2.70899
C -3.26408 -4.56952 2.26188
C -3.36658 -6.02376 2.66595
C -2.06645 -6.73032 3.08342
C -0.83874 -5.85747 3.22103
O 0.21652 -6.60649 3.65786
C 1.45915 -5.89616 3.63467
C 1.82042 -5.42304 5.03887
O 0.62667 -5.09492 5.76701
C 0.56997 -5.56711 7.03703
C -0.78349 -5.37125 7.67769
C -1.34298 -6.60609 8.39909
C -0.34769 -7.71323 8.68251
O 0.17815 -8.42636 7.84019
O -2.50473 -4.31997 1.16029
O -0.02563 -7.949 9.98539
O 1.55643 -5.92155 7.67314
C 0.86195 -8.91509 10.41163
C -0.78478 -4.34271 8.82762
C -2.18492 -3.75112 8.97353
C -2.94178 -4.95277 9.50282
C -1.78 -5.93334 9.72003
O -0.67649 -5.10793 10.0021
H -1.48214 -5.00328 6.89023
H -2.19612 -7.07078 7.85776
H -0.03302 -3.5336 8.69834
H -2.12104 -2.98491 9.77961
H -2.6182 -3.28364 8.0632
H -3.42285 -4.66679 10.46425
H -3.6958 -5.38239 8.80791
H -2.05373 -6.67269 10.50432
O -0.79845 -4.6417 3.07881
C -2.36026 -3.0777 0.5784
C -4.21278 -6.22941 3.9395
C -4.73325 -7.6657 3.99992
C -3.46405 -8.41194 4.35007
C -2.48118 -7.24622 4.47687
O -3.27029 -6.19668 4.98254
H -3.84729 -6.54344 1.80687
H -1.80118 -7.55064 2.37935
H -1.91527 -2.36489 1.30521
H -5.06441 -5.52001 4.02502
H -5.43288 -7.737 4.86335
H -5.24919 -8.00918 3.07756
H -3.60267 -8.89385 5.34383
H -3.13372 -9.16791 3.60529
H -1.61658 -7.54872 5.10774
H -3.34625 -2.69815 0.23486
H -1.68529 -3.16293 -0.2977
H 0.93147 -8.88198 11.51819
H 1.8693 -8.72382 9.9838
H 0.50777 -9.92247 10.10512
H 2.35079 -6.28456 5.50619
H 2.5303 -4.56934 4.99548
H 1.43098 -4.99103 2.98634
H 2.2676 -6.51356 3.1884
$end

$opt
CONSTRAINT
tors           1           2           3           4    -128.510
tors           3           4           5           6    +177.050
tors           4           5           6           7    +171.755
tors           5           6           7           8    +101.481
tors           6           7           8           9     -33.757
tors           7           8           9          10    +134.770
tors           8           9          10          11    -171.360
tors           9          10          11          12    +133.125
tors          11          12          13          14     -68.887
ENDCONSTRAINT
$end

$rem
JOBTYPE                   OPT
METHOD                    B3LYP
DFT_D                     d3_op
BASIS                     STO-3G
GEOM_OPT_MAX_CYCLES       100
GEOM_OPT_TOL_GRADIENT     300
GEOM_OPT_TOL_DISPLACEMENT 1200
GEOM_OPT_TOL_ENERGY       100
SYMMETRY                  False
THRESH                    12
SCF_CONVERGENCE           8
MAX_SUB_FILE_NUM          128
MEM_STATIC                400
MEM_TOTAL                 4000
$end
--------------------------------------------------------------

   15   -1510.1551904622      7.01E-09 Convergence criterion met
 Total energy in the final basis set = -1510.15519046
   14   -1510.2244698955      4.66E-09 Convergence criterion met
 Total energy in the final basis set = -1510.22446990
   14   -1510.2615243387      3.96E-09 Convergence criterion met
 Total energy in the final basis set = -1510.26152434
   14   -1510.2776323297      3.05E-09 Convergence criterion met
 Total energy in the final basis set = -1510.27763233
   14   -1510.2804083617      2.88E-09 Convergence criterion met
 Total energy in the final basis set = -1510.28040836
   14   -1510.2834585177      2.71E-09 Convergence criterion met
 Total energy in the final basis set = -1510.28345852
   13   -1510.2851719395      6.86E-09 Convergence criterion met
 Total energy in the final basis set = -1510.28517194
   13   -1510.2866149559      4.02E-09 Convergence criterion met
   11   -1510.2915892239      5.49E-09 Convergence criterion met
 Total energy in the final basis set = -1510.29158922
   11   -1510.2917073931      8.41E-09 Convergence criterion met
 Total energy in the final basis set = -1510.29170739
   11   -1510.2917447649      5.68E-09 Convergence criterion met
 Total energy in the final basis set = -1510.29174476
   11   -1510.2917616027      7.01E-09 Convergence criterion met
 Total energy in the final basis set = -1510.29176160
   10   -1510.2917655328      9.94E-09 Convergence criterion met
 Total energy in the final basis set = -1510.29176553
    9   -1510.2917669436      7.12E-09 Convergence criterion met
 Total energy in the final basis set = -1510.29176694

             Standard Nuclear Orientation (Angstroms)
    I     Atom           X                Y                Z
 ----------------------------------------------------------------
    1      O      -4.2668080932    -0.7633013225     1.6078827340
    2      C      -4.0986442102    -0.3310405752     0.4478157144
    3      C      -3.1796625141    -0.9512442412    -0.6683477341
    4      C      -2.1754125287     0.0572119213    -1.3445305137
    5      C      -1.9698995781     1.3091214286    -0.4225619047
    6      O      -1.0094569979     2.1563297976    -1.0346612138
    7      C      -0.8916913207     3.4587798652    -0.3363780169
    8      C       0.4111803406     3.3682859295     0.5502115447
    9      O       0.4714337573     1.9472807943     0.9738923951
   10      C       1.7724959203     1.3815814442     0.8434359557
   11      C       1.6255636521    -0.1582984627     1.1101647551
   12      C       2.3785160548    -1.0314441274     0.0211452389
   13      C       2.7278820056    -0.1865948842    -1.2465831970
   14      O       1.8800430127     0.2578133467    -2.0620348110
   15      O      -4.9338676405     0.6619733445    -0.1758439921
   16      O       4.1306959697     0.0027831125    -1.3759737410
   17      O       2.7911780869     2.0228445029     0.5033416469
   18      C       4.4200414937     0.8672653867    -2.5447784874
   19      C       2.4435691321    -0.5713640808     2.4052891305
   20      C       2.1366873812    -2.0838492954     2.7493769208
   21      C       3.0339081732    -2.8312360254     1.6935248624
   22      C       3.5914367148    -1.6111204856     0.8629364999
   23      O       3.8394746649    -0.5884531880     1.9056830206
   24      H       0.5504712066    -0.4276660754     1.1450562564
   25      H       1.7051242700    -1.8444264924    -0.3076886668
   26      H       2.3453696286     0.1322088903     3.2546227496
   27      H       2.4420867808    -2.3171320126     3.7815597652
   28      H       1.0660003309    -2.3177165730     2.6346652836
   29      H       3.8611443724    -3.3727276570     2.1800594819
   30      H       2.4636847240    -3.5394274014     1.0712800064
   31      H       4.5117210766    -1.8030225933     0.2789000773
   32      O      -2.5412431949     1.5464764614     0.6667152845
   33      C      -5.8203224886     1.2723805673     0.8372272040
   34      C      -2.1771299808    -2.0583522810    -0.1250383554
   35      C      -1.8645984995    -3.0304042786    -1.3245318764
   36      C      -1.0167711270    -2.0786500792    -2.2496014572
   37      C      -0.8412083149    -0.8020923495    -1.3327269162
   38      O      -0.8831567847    -1.3499585577     0.0481576134
   39      H      -3.8501187340    -1.3850702395    -1.4325227610
   40      H      -2.4848822832     0.3788192862    -2.3549656293
   41      H      -5.2390900844     1.8724720571     1.5675597353
   42      H      -2.4962857182    -2.5304179719     0.8248698337
   43      H      -1.2678903225    -3.8894752942    -0.9774892505
   44      H      -2.7766947002    -3.4071101643    -1.8140671744
   45      H      -0.0348478092    -2.5134953054    -2.4945504511
   46      H      -1.5345903217    -1.8355170182    -3.1911438529
   47      H       0.1040887095    -0.2337809968    -1.5264955986
   48      H      -6.3986834174     0.5061500491     1.3927751768
   49      H      -6.5127544531     1.9341391071     0.2847869605
   50      H       5.5214955938     0.9360845089    -2.6061127765
   51      H       3.9903768546     1.8803453326    -2.4080026809
   52      H       4.0176556178     0.4329367853    -3.4826557400
   53      H       1.3287729597     3.6196431118    -0.0237235341
   54      H       0.3432526526     4.0312534902     1.4391853268
   55      H      -1.7846789154     3.6267829452     0.3015170717
   56      H      -0.8059943267     4.2499040351    -1.1084457489
 ----------------------------------------------------------------

    9   -1510.2917673078      3.33E-09 Convergence criterion met
 Total energy in the final basis set = -1510.29176731
 Final energy is   -1510.29176730780
 **  OPTIMIZATION CONVERGED  **

                    Orbital Energies (a.u.)
 --------------------------------------------------------------

 Alpha MOs
 -- Occupied --
-18.944 -18.937 -18.930 -18.913 -18.883 -18.881 -18.880 -18.875
-18.871 -18.856 -10.104 -10.103 -10.095 -10.087 -10.076 -10.071
-10.065 -10.054 -10.053 -10.053 -10.051 -10.043 -10.034 -10.031
-10.028 -10.023 -10.016 -10.014 -10.014 -10.013  -1.021  -1.015
 -1.005  -0.993  -0.966  -0.963  -0.943  -0.939  -0.930  -0.920
 -0.759  -0.757  -0.726  -0.717  -0.710  -0.699  -0.692  -0.661
 -0.650  -0.617  -0.593  -0.574  -0.543  -0.539  -0.532  -0.530
 -0.509  -0.504  -0.486  -0.477  -0.463  -0.455  -0.452  -0.437
 -0.429  -0.426  -0.422  -0.414  -0.411  -0.404  -0.400  -0.398
 -0.393  -0.378  -0.377  -0.363  -0.359  -0.355  -0.353  -0.350
 -0.343  -0.335  -0.331  -0.325  -0.324  -0.317  -0.317  -0.307
 -0.304  -0.301  -0.298  -0.296  -0.294  -0.280  -0.274  -0.271
 -0.266  -0.255  -0.247  -0.242  -0.240  -0.234  -0.223  -0.181
 -0.178  -0.173  -0.161  -0.158  -0.155  -0.149  -0.144  -0.138
 -0.137

          Ground-State Mulliken Net Atomic Charges

     Atom                 Charge (a.u.)
  ----------------------------------------
      1 O                    -0.221885
      2 C                     0.216469
      3 C                    -0.082021
      4 C                    -0.076110
      5 C                     0.225989
      6 O                    -0.168953
      7 C                    -0.048448
      8 C                    -0.051190
      9 O                    -0.171722
     10 C                     0.209248
     11 C                    -0.085619
     12 C                    -0.081390
     13 C                     0.214684
     14 O                    -0.221519
     15 O                    -0.179288
     16 O                    -0.158530
     17 O                    -0.216251
     18 C                    -0.126012
     19 C                     0.024782
     20 C                    -0.144459
     21 C                    -0.142422
     22 C                     0.024186
     23 O                    -0.188333
     24 H                     0.111126
     25 H                     0.088582
     26 H                     0.081524
     27 H                     0.076440
     28 H                     0.078877
     29 H                     0.076205
     30 H                     0.072536
     31 H                     0.088322
     32 O                    -0.207315
     33 C                    -0.128797
     34 C                     0.023263
     35 C                    -0.142959
     36 C                    -0.145936
     37 C                     0.009191
     38 O                    -0.202178
     39 H                     0.082424
     40 H                     0.087688
     41 H                     0.088494
     42 H                     0.089121
     43 H                     0.074175
     44 H                     0.072816
     45 H                     0.073768
     46 H                     0.072898
     47 H                     0.108511
     48 H                     0.087225
     49 H                     0.084476
     50 H                     0.093140
     51 H                     0.094146
     52 H                     0.089341
     53 H                     0.096941
     54 H                     0.085923
     55 H                     0.098395
     56 H                     0.090429
  ----------------------------------------
  Sum of atomic charges =     0.000000

                    Cartesian Multipole Moments
 -----------------------------------------------------------------
    Charge (ESU x 10^10)
                -0.0000
    Dipole Moment (Debye)
         X      -0.4693      Y       0.1081      Z      -2.3702
       Tot       2.4186
    Quadrupole Moments (Debye-Ang)
        XX    -163.0869     XY      -5.5469     YY    -145.3328
        XZ      -1.1554     YZ       1.3296     ZZ    -158.5336

 Total job time:  66.00s(wall), 3144.17s(cpu)
        *  Thank you very much for using Q-Chem.  Have a nice day.  *
