 Q-Chem 5.0, Q-Chem, Inc., Pleasanton, CA (2017)
 Q-Chem 5.0.1 for Intel X86 EM64T Linux

User input:
--------------------------------------------------------------
$molecule
0  1
O -4.2668080932 -0.7633013225 1.607882734
C -4.0986442102 -0.3310405752 0.4478157144
C -3.1796625141 -0.9512442412 -0.6683477341
C -2.1754125287 0.0572119213 -1.3445305137
C -1.9698995781 1.3091214286 -0.4225619047
O -1.0094569979 2.1563297976 -1.0346612138
C -0.8916913207 3.4587798652 -0.3363780169
C 0.4111803406 3.3682859295 0.5502115447
O 0.4714337573 1.9472807943 0.9738923951
C 1.7724959203 1.3815814442 0.8434359557
C 1.6255636521 -0.1582984627 1.1101647551
C 2.3785160548 -1.0314441274 0.0211452389
C 2.7278820056 -0.1865948842 -1.246583197
O 1.8800430127 0.2578133467 -2.062034811
O -4.9338676405 0.6619733445 -0.1758439921
O 4.1306959697 0.0027831125 -1.375973741
O 2.7911780869 2.0228445029 0.5033416469
C 4.4200414937 0.8672653867 -2.5447784874
C 2.4435691321 -0.5713640808 2.4052891305
C 2.1366873812 -2.0838492954 2.7493769208
C 3.0339081732 -2.8312360254 1.6935248624
C 3.5914367148 -1.6111204856 0.8629364999
O 3.8394746649 -0.588453188 1.9056830206
H 0.5504712066 -0.4276660754 1.1450562564
H 1.70512427 -1.8444264924 -0.3076886668
H 2.3453696286 0.1322088903 3.2546227496
H 2.4420867808 -2.3171320126 3.7815597652
H 1.0660003309 -2.317716573 2.6346652836
H 3.8611443724 -3.372727657 2.1800594819
H 2.463684724 -3.5394274014 1.0712800064
H 4.5117210766 -1.8030225933 0.2789000773
O -2.5412431949 1.5464764614 0.6667152845
C -5.8203224886 1.2723805673 0.837227204
C -2.1771299808 -2.058352281 -0.1250383554
C -1.8645984995 -3.0304042786 -1.3245318764
C -1.016771127 -2.0786500792 -2.2496014572
C -0.8412083149 -0.8020923495 -1.3327269162
O -0.8831567847 -1.3499585577 0.0481576134
H -3.850118734 -1.3850702395 -1.432522761
H -2.4848822832 0.3788192862 -2.3549656293
H -5.2390900844 1.8724720571 1.5675597353
H -2.4962857182 -2.5304179719 0.8248698337
H -1.2678903225 -3.8894752942 -0.9774892505
H -2.7766947002 -3.4071101643 -1.8140671744
H -0.0348478092 -2.5134953054 -2.4945504511
H -1.5345903217 -1.8355170182 -3.1911438529
H 0.1040887095 -0.2337809968 -1.5264955986
H -6.3986834174 0.5061500491 1.3927751768
H -6.5127544531 1.9341391071 0.2847869605
H 5.5214955938 0.9360845089 -2.6061127765
H 3.9903768546 1.8803453326 -2.4080026809
H 4.0176556178 0.4329367853 -3.48265574
H 1.3287729597 3.6196431118 -0.0237235341
H 0.3432526526 4.0312534902 1.4391853268
H -1.7846789154 3.6267829452 0.3015170717
H -0.8059943267 4.2499040351 -1.1084457489
$end

$rem
JOBTYPE                   OPT
METHOD                    B3LYP
DFT_D                     d3_op
BASIS                     STO-3G
GEOM_OPT_MAX_CYCLES       100
GEOM_OPT_TOL_GRADIENT     300
GEOM_OPT_TOL_DISPLACEMENT 1200
GEOM_OPT_TOL_ENERGY       100
SYMMETRY                  False
THRESH                    12
SCF_CONVERGENCE           8
MAX_SUB_FILE_NUM          128
MEM_STATIC                400
MEM_TOTAL                 4000
$end
--------------------------------------------------------------

   16   -1510.2915522092      5.53E-09 Convergence criterion met
 Total energy in the final basis set = -1510.29155221
   16   -1510.2101543641      2.17E-09 Convergence criterion met
 Total energy in the final basis set = -1510.21015436
   15   -1510.2933597811      3.59E-09 Convergence criterion met
 Total energy in the final basis set = -1510.29335978
   15   -1510.2777708402      5.67E-09 Convergence criterion met
 Total energy in the final basis set = -1510.27777084
   15   -1510.2904763340      6.36E-09 Convergence criterion met
 Total energy in the final basis set = -1510.29047633
   15   -1510.2943582630      4.78E-09 Convergence criterion met
 Total energy in the final basis set = -1510.29435826
   13   -1510.2963761691      3.82E-09 Convergence criterion met
 Total energy in the final basis set = -1510.29637617
   13   -1510.2978892023      3.15E-09 Convergence criterion met
   12   -1510.3055753309      4.34E-09 Convergence criterion met
 Total energy in the final basis set = -1510.30557533
   12   -1510.3056075995      3.63E-09 Convergence criterion met
 Total energy in the final basis set = -1510.30560760
   11   -1510.3055802768      7.88E-09 Convergence criterion met
 Total energy in the final basis set = -1510.30558028
   12   -1510.3056161321      3.75E-09 Convergence criterion met
 Total energy in the final basis set = -1510.30561613
   10   -1510.3056092788      7.64E-09 Convergence criterion met
 Total energy in the final basis set = -1510.30560928
   10   -1510.3056162712      6.30E-09 Convergence criterion met
 Total energy in the final basis set = -1510.30561627

             Standard Nuclear Orientation (Angstroms)
    I     Atom           X                Y                Z
 ----------------------------------------------------------------
    1      O      -1.6041175010    -1.0533561335     1.4394739981
    2      C      -2.6266249310    -0.9394243843     0.7207470410
    3      C      -2.7093993717    -1.0611153448    -0.8470569572
    4      C      -1.9725056689     0.1307145001    -1.5876617862
    5      C      -1.8201572755     1.3661067095    -0.6358305295
    6      O      -1.0876993821     2.4180617767    -1.2673389461
    7      C      -1.1278469512     3.6397776287    -0.4185824796
    8      C       0.0646011317     3.6677266821     0.6134812961
    9      O       0.1660113315     2.3402794291     1.2608465556
   10      C       1.2299779167     1.5947430007     0.6505602556
   11      C       1.1046451649     0.0942336515     1.0336691978
   12      C       1.9150633379    -0.8420929147     0.0451975752
   13      C       2.6058986901    -0.0592907072    -1.1248547223
   14      O       2.0544979947     0.3000898879    -2.1991913081
   15      O      -3.9539048357    -0.8331316560     1.2406865288
   16      O       3.9983168580     0.1100718965    -0.8714537150
   17      O       2.0946846032     2.1137309340    -0.0949282704
   18      C       4.6105221838     0.9108485740    -1.9558251810
   19      C       1.7958738125    -0.2671127283     2.4195242070
   20      C       1.2564555147    -1.6914204256     2.8393567774
   21      C       2.0750788996    -2.6205839013     1.8689966161
   22      C       2.9082098259    -1.5546636218     1.0507410960
   23      O       3.2093119249    -0.5076437016     2.0568754690
   24      H       0.0301293802    -0.2004294257     1.0582024988
   25      H       1.1894458942    -1.5445182589    -0.4156993033
   26      H       1.7174903636     0.5181926683     3.1964170184
   27      H       1.4854450428    -1.9017823149     3.8960789668
   28      H       0.1683197666    -1.7664779547     2.6769431594
   29      H       2.7487462171    -3.2936126658     2.4233972470
   30      H       1.4268687922    -3.2248342592     1.2147889974
   31      H       3.8436251170    -1.9295978107     0.5933236131
   32      O      -2.3707974257     1.4711569629     0.4866840201
   33      C      -3.9025540944    -0.6869190740     2.7135725863
   34      C      -1.8293353809    -2.2877864307    -1.3232492838
   35      C      -2.0183390688    -2.5051272090    -2.8766407494
   36      C      -1.1141630425    -1.3553401349    -3.4619047995
   37      C      -0.6688485678    -0.6060012262    -2.1454270984
   38      O      -0.4639273034    -1.7364795926    -1.2096811046
   39      H      -3.7700030921    -1.1432606212    -1.1416079595
   40      H      -2.5807477196     0.4782305170    -2.4434741685
   41      H      -3.3716308347     0.2428173099     3.0030739456
   42      H      -1.9356616186    -3.1974256785    -0.7006327882
   43      H      -1.6562632104    -3.5017936077    -3.1748521627
   44      H      -3.0739663090    -2.4100546122    -3.1780025228
   45      H      -0.2304268686    -1.7660087629    -3.9762600318
   46      H      -1.6556354691    -0.6998746317    -4.1622657065
   47      H       0.2942356511    -0.0275159176    -2.2181757968
   48      H      -3.3945666859    -1.5490656697     3.1921988575
   49      H      -4.9532788768    -0.6379723248     3.0535178870
   50      H       5.6854238948     0.9866267762    -1.7093296452
   51      H       4.1640752705     1.9251338076    -1.9997952654
   52      H       4.4862589663     0.4246309084    -2.9450562760
   53      H       1.0237621643     3.8844651373     0.0959352921
   54      H      -0.1350573647     4.4259273237     1.3974786019
   55      H      -2.0934160542     3.6792362930     0.1275256446
   56      H      -1.0468133052     4.5002419355    -1.1131767677
 ----------------------------------------------------------------

    9   -1510.3056157783      4.47E-09 Convergence criterion met
 Total energy in the final basis set = -1510.30561578
 Final energy is   -1510.30561577832
 **  OPTIMIZATION CONVERGED  **

                    Orbital Energies (a.u.)
 --------------------------------------------------------------

 Alpha MOs
 -- Occupied --
-18.945 -18.932 -18.930 -18.925 -18.889 -18.886 -18.875 -18.868
-18.867 -18.856 -10.108 -10.100 -10.094 -10.089 -10.076 -10.069
-10.062 -10.060 -10.052 -10.042 -10.040 -10.039 -10.038 -10.036
-10.019 -10.013 -10.009 -10.005 -10.001  -9.998  -1.024  -1.009
 -1.005  -0.997  -0.971  -0.952  -0.945  -0.933  -0.931  -0.921
 -0.762  -0.745  -0.722  -0.715  -0.702  -0.697  -0.685  -0.660
 -0.648  -0.616  -0.591  -0.569  -0.544  -0.536  -0.529  -0.520
 -0.508  -0.499  -0.486  -0.474  -0.459  -0.453  -0.448  -0.433
 -0.430  -0.422  -0.414  -0.412  -0.409  -0.405  -0.399  -0.399
 -0.392  -0.379  -0.367  -0.365  -0.359  -0.355  -0.351  -0.347
 -0.344  -0.340  -0.327  -0.323  -0.318  -0.314  -0.312  -0.307
 -0.300  -0.297  -0.294  -0.288  -0.285  -0.278  -0.274  -0.265
 -0.264  -0.255  -0.249  -0.244  -0.235  -0.227  -0.212  -0.195
 -0.174  -0.168  -0.163  -0.160  -0.154  -0.149  -0.143  -0.138
 -0.126

          Ground-State Mulliken Net Atomic Charges

     Atom                 Charge (a.u.)
  ----------------------------------------
      1 O                    -0.226679
      2 C                     0.222773
      3 C                    -0.079997
      4 C                    -0.081606
      5 C                     0.212474
      6 O                    -0.165535
      7 C                    -0.051552
      8 C                    -0.056148
      9 O                    -0.171247
     10 C                     0.209400
     11 C                    -0.093703
     12 C                    -0.097281
     13 C                     0.220359
     14 O                    -0.230601
     15 O                    -0.167517
     16 O                    -0.163069
     17 O                    -0.213017
     18 C                    -0.126227
     19 C                     0.025626
     20 C                    -0.147508
     21 C                    -0.143463
     22 C                     0.023999
     23 O                    -0.193016
     24 H                     0.112386
     25 H                     0.111595
     26 H                     0.078614
     27 H                     0.070524
     28 H                     0.088337
     29 H                     0.071853
     30 H                     0.073721
     31 H                     0.083217
     32 O                    -0.207107
     33 C                    -0.127742
     34 C                     0.027241
     35 C                    -0.145472
     36 C                    -0.142995
     37 C                     0.006207
     38 O                    -0.196646
     39 H                     0.085901
     40 H                     0.085979
     41 H                     0.094410
     42 H                     0.081764
     43 H                     0.076922
     44 H                     0.072583
     45 H                     0.078191
     46 H                     0.071850
     47 H                     0.120159
     48 H                     0.087721
     49 H                     0.088846
     50 H                     0.088407
     51 H                     0.093704
     52 H                     0.086279
     53 H                     0.102291
     54 H                     0.088303
     55 H                     0.095427
     56 H                     0.091065
  ----------------------------------------
  Sum of atomic charges =    -0.000000

                    Cartesian Multipole Moments
 -----------------------------------------------------------------
    Charge (ESU x 10^10)
                -0.0000
    Dipole Moment (Debye)
         X      -2.8346      Y       0.3361      Z      -1.0627
       Tot       3.0458
    Quadrupole Moments (Debye-Ang)
        XX    -158.6061     XY       0.0880     YY    -146.3993
        XZ      -3.3644     YZ       1.0854     ZZ    -156.3283

 Total job time:  112.56s(wall), 5369.61s(cpu)
        *  Thank you very much for using Q-Chem.  Have a nice day.  *
