 Q-Chem 5.0, Q-Chem, Inc., Pleasanton, CA (2017)
 Q-Chem 5.0.1 for Intel X86 EM64T Linux

User input:
--------------------------------------------------------------
$molecule
0  1
O -3.94934 -3.66094 2.70899
C -3.26408 -4.56952 2.26188
C -3.36658 -6.02376 2.66595
C -2.24917 -6.58485 3.56062
C -1.24884 -5.58511 4.09722
O -0.51374 -6.1553 5.09718
C 0.55333 -5.31984 5.55828
C 0.12538 -4.56481 6.81244
O -1.27651 -4.25965 6.74553
C -1.98082 -4.50228 7.87877
C -3.44942 -4.17911 7.73932
C -4.39695 -5.36904 7.95031
C -3.78694 -6.59114 8.60687
O -3.08032 -7.41759 8.04809
O -2.3119 -4.27829 1.33583
O -4.09899 -6.82346 9.91299
O -1.49448 -4.89861 8.9321
C -3.6395 -7.8946 10.65073
C -3.96867 -3.17401 8.78098
C -5.20091 -2.4604 8.22988
C -6.20787 -3.59202 8.24233
C -5.38245 -4.68638 8.93397
O -4.52224 -3.97608 9.79209
H -3.59981 -3.7486 6.72143
H -4.94654 -5.70432 7.05078
H -3.20113 -2.43638 9.10233
H -5.50217 -1.70523 8.99116
H -5.06841 -1.95603 7.24853
H -7.07139 -3.28348 8.87248
H -6.56275 -3.92436 7.24269
H -6.06652 -5.41541 9.4218
O -1.17001 -4.40464 3.78021
C -2.06631 -3.01275 0.84557
C -4.59506 -6.27715 3.56224
C -5.00268 -7.74798 3.50004
C -3.88226 -8.38069 4.29165
C -3.10733 -7.13096 4.71909
O -4.09692 -6.14785 4.86445
H -3.50611 -6.60176 1.725
H -1.66681 -7.39644 3.07104
H -1.76634 -2.33343 1.67197
H -5.46935 -5.63876 3.30698
H -5.94856 -7.85552 4.07816
H -5.14973 -8.1523 2.47548
H -4.32229 -8.88188 5.18281
H -3.24496 -9.09663 3.72896
H -2.51534 -7.36405 5.62556
H -2.97332 -2.61469 0.3424
H -1.24038 -3.06288 0.10684
H -4.05016 -7.8305 11.67914
H -2.53008 -7.87222 10.70614
H -3.97435 -8.84859 10.1903
H 0.3611 -5.25417 7.65349
H 0.74268 -3.65068 6.94544
H 0.8595 -4.56376 4.79925
H 1.48012 -5.90779 5.72982
$end

$opt
CONSTRAINT
tors           1           2           3           4    -106.108
tors           3           4           5           6    +166.349
tors           4           5           6           7    +173.597
tors           5           6           7           8     +97.241
tors           6           7           8           9     -33.494
tors           7           8           9          10    +134.770
tors           8           9          10          11    -179.232
tors           9          10          11          12    +119.375
tors          11          12          13          14     -78.322
ENDCONSTRAINT
$end

$rem
JOBTYPE                   OPT
METHOD                    B3LYP
DFT_D                     d3_op
BASIS                     STO-3G
GEOM_OPT_MAX_CYCLES       100
GEOM_OPT_TOL_GRADIENT     300
GEOM_OPT_TOL_DISPLACEMENT 1200
GEOM_OPT_TOL_ENERGY       100
SYMMETRY                  False
THRESH                    12
SCF_CONVERGENCE           8
MAX_SUB_FILE_NUM          128
MEM_STATIC                400
MEM_TOTAL                 4000
$end
--------------------------------------------------------------

   16   -1510.1595445543      2.25E-09 Convergence criterion met
 Total energy in the final basis set = -1510.15954455
   14   -1510.2293195504      2.40E-09 Convergence criterion met
 Total energy in the final basis set = -1510.22931955
   14   -1510.2627751910      4.07E-09 Convergence criterion met
 Total energy in the final basis set = -1510.26277519
   14   -1510.2841915147      5.83E-09 Convergence criterion met
 Total energy in the final basis set = -1510.28419151
   14   -1510.2897802721      4.99E-09 Convergence criterion met
 Total energy in the final basis set = -1510.28978027
    2   -1510.2897802720      3.27E-09 Convergence criterion met
 Total energy in the final basis set = -1510.28978027
   14   -1510.2917281938      5.85E-09 Convergence criterion met
 Total energy in the final basis set = -1510.29172819
   13   -1510.2940459591      4.91E-09 Convergence criterion met
   12   -1510.2954528162      3.49E-09 Convergence criterion met
 Total energy in the final basis set = -1510.29545282
   11   -1510.2954811790      4.33E-09 Convergence criterion met
 Total energy in the final basis set = -1510.29548118
   11   -1510.2954940649      3.05E-09 Convergence criterion met
 Total energy in the final basis set = -1510.29549406
   10   -1510.2955047827      7.58E-09 Convergence criterion met
 Total energy in the final basis set = -1510.29550478
    9   -1510.2955096733      7.50E-09 Convergence criterion met
 Total energy in the final basis set = -1510.29550967
    9   -1510.2955182711      7.34E-09 Convergence criterion met
 Total energy in the final basis set = -1510.29551827

             Standard Nuclear Orientation (Angstroms)
    I     Atom           X                Y                Z
 ----------------------------------------------------------------
    1      O      -2.9877323185    -0.1701703874     2.2018945728
    2      C      -3.5071647081    -0.3220522246     1.0755491557
    3      C      -3.0155594689    -1.2743888680    -0.0778874134
    4      C      -2.3192296731    -0.5320252701    -1.2959551590
    5      C      -2.1120290431     0.9985380183    -1.0183158759
    6      O      -1.2132126430     1.5371754282    -1.9905270409
    7      C      -1.1229416421     3.0140435118    -1.8413809860
    8      C       0.1600279913     3.3372006253    -0.9827540258
    9      O       0.2823183756     2.2121212056    -0.0282942983
   10      C       1.6308831170     1.7411152127     0.0482135058
   11      C       1.6355737476     0.5539223550     1.0592707983
   12      C       2.1170796186    -0.8063322278     0.3858113422
   13      C       2.5521015713    -0.5886395535    -1.1042974220
   14      O       1.7860158274    -0.4670119865    -2.0939144863
   15      O      -4.7946105776     0.1913120352     0.6969951885
   16      O       3.9707171321    -0.5315834710    -1.2101112306
   17      O       2.5787557059     2.2071451497    -0.6223459045
   18      C       4.3638869245    -0.2262135922    -2.6054208661
   19      C       2.7013967362     0.7017151180     2.2268642346
   20      C       2.2855378072    -0.3034319819     3.3725883816
   21      C       2.6934808868    -1.6792649244     2.7263121650
   22      C       3.3052613453    -1.2069737693     1.3472169307
   23      O       3.9323600962     0.0983803337     1.6700627934
   24      H       0.6081616306     0.4440933872     1.4488504394
   25      H       1.2548323739    -1.5086141705     0.3878035287
   26      H       2.8931784815     1.7421047310     2.5536074728
   27      H       2.8616483118    -0.1009196357     4.2897983549
   28      H       1.2108323625    -0.2451707270     3.6075155985
   29      H       3.4549209184    -2.1997641558     3.3286112283
   30      H       1.8327522102    -2.3523111946     2.5852122429
   31      H       4.0502441135    -1.8920286184     0.8999386774
   32      O      -2.6419654635     1.6703362097    -0.1037802830
   33      C      -5.2828109196     1.1232444668     1.7358737153
   34      C      -1.8703772949    -2.2532586694     0.3998899827
   35      C      -1.7976834307    -3.4619421473    -0.6117726616
   36      C      -1.1530518723    -2.7610222247    -1.8662328978
   37      C      -0.9195838282    -1.2929697975    -1.3317178007
   38      O      -0.6344621090    -1.4964149921     0.1097859985
   39      H      -3.8972665981    -1.8360012063    -0.4355145378
   40      H      -2.8832900847    -0.6531621421    -2.2385721337
   41      H      -4.6195488935     2.0080827040     1.8236120735
   42      H      -1.9197829589    -2.5197904446     1.4735519527
   43      H      -1.1470224742    -4.2581719370    -0.2159274619
   44      H      -2.7905632861    -3.8895994488    -0.8232244892
   45      H      -0.1911955943    -3.2240058141    -2.1379524533
   46      H      -1.8128201081    -2.7798974819    -2.7482566788
   47      H      -0.0533367361    -0.7567544316    -1.7948407121
   48      H      -5.3508610060     0.6326524708     2.7286383644
   49      H      -6.2895680358     1.4462477542     1.4123177968
   50      H       5.4691542733    -0.2169630624    -2.6134821938
   51      H       3.9805668743     0.7656340913    -2.9205726046
   52      H       3.9903398789    -0.9939012960    -3.3136725697
   53      H       1.0818855687     3.3837796213    -1.6016493693
   54      H       0.0385862214     4.2927165054    -0.4291882304
   55      H      -2.0313843338     3.3924788746    -1.3284338089
   56      H      -1.0426496645     3.4427307389    -2.8605446423
 ----------------------------------------------------------------

    9   -1510.2955185802      2.32E-09 Convergence criterion met
 Total energy in the final basis set = -1510.29551858
 Final energy is   -1510.29551858018
 **  OPTIMIZATION CONVERGED  **

                    Orbital Energies (a.u.)
 --------------------------------------------------------------

 Alpha MOs
 -- Occupied --
-18.938 -18.936 -18.931 -18.916 -18.887 -18.882 -18.878 -18.871
-18.870 -18.856 -10.103 -10.097 -10.095 -10.087 -10.073 -10.068
-10.060 -10.057 -10.052 -10.051 -10.050 -10.042 -10.036 -10.030
-10.025 -10.019 -10.017 -10.014 -10.011 -10.010  -1.020  -1.010
 -1.004  -0.994  -0.969  -0.960  -0.942  -0.932  -0.930  -0.921
 -0.759  -0.753  -0.724  -0.715  -0.708  -0.699  -0.691  -0.656
 -0.651  -0.615  -0.592  -0.573  -0.542  -0.537  -0.533  -0.528
 -0.506  -0.505  -0.485  -0.475  -0.460  -0.453  -0.450  -0.434
 -0.427  -0.423  -0.421  -0.411  -0.407  -0.404  -0.401  -0.398
 -0.393  -0.377  -0.374  -0.362  -0.354  -0.354  -0.352  -0.349
 -0.342  -0.335  -0.328  -0.325  -0.323  -0.322  -0.313  -0.309
 -0.301  -0.298  -0.297  -0.295  -0.291  -0.277  -0.273  -0.270
 -0.267  -0.251  -0.249  -0.243  -0.241  -0.234  -0.219  -0.179
 -0.175  -0.172  -0.162  -0.157  -0.154  -0.148  -0.144  -0.138
 -0.134

          Ground-State Mulliken Net Atomic Charges

     Atom                 Charge (a.u.)
  ----------------------------------------
      1 O                    -0.222365
      2 C                     0.215596
      3 C                    -0.081603
      4 C                    -0.077627
      5 C                     0.220574
      6 O                    -0.166148
      7 C                    -0.050704
      8 C                    -0.054039
      9 O                    -0.170136
     10 C                     0.209370
     11 C                    -0.080672
     12 C                    -0.090280
     13 C                     0.212809
     14 O                    -0.223546
     15 O                    -0.175222
     16 O                    -0.159053
     17 O                    -0.216798
     18 C                    -0.126185
     19 C                     0.025338
     20 C                    -0.142938
     21 C                    -0.143934
     22 C                     0.024030
     23 O                    -0.187449
     24 H                     0.097721
     25 H                     0.110239
     26 H                     0.081463
     27 H                     0.075691
     28 H                     0.077677
     29 H                     0.075091
     30 H                     0.074867
     31 H                     0.085290
     32 O                    -0.208324
     33 C                    -0.127977
     34 C                     0.024962
     35 C                    -0.144593
     36 C                    -0.145675
     37 C                     0.009808
     38 O                    -0.199434
     39 H                     0.083066
     40 H                     0.086813
     41 H                     0.091188
     42 H                     0.086296
     43 H                     0.075039
     44 H                     0.072979
     45 H                     0.076135
     46 H                     0.072374
     47 H                     0.115008
     48 H                     0.085423
     49 H                     0.085058
     50 H                     0.091881
     51 H                     0.094150
     52 H                     0.087435
     53 H                     0.099211
     54 H                     0.084842
     55 H                     0.097678
     56 H                     0.089600
  ----------------------------------------
  Sum of atomic charges =    -0.000000

                    Cartesian Multipole Moments
 -----------------------------------------------------------------
    Charge (ESU x 10^10)
                -0.0000
    Dipole Moment (Debye)
         X      -1.5205      Y      -0.6533      Z      -1.4972
       Tot       2.2317
    Quadrupole Moments (Debye-Ang)
        XX    -161.6468     XY      -3.6234     YY    -146.7732
        XZ      -0.4819     YZ      -1.6798     ZZ    -155.8374

 Total job time:  60.88s(wall), 2900.22s(cpu)
        *  Thank you very much for using Q-Chem.  Have a nice day.  *
