 Q-Chem 5.0, Q-Chem, Inc., Pleasanton, CA (2017)
 Q-Chem 5.0.1 for Intel X86 EM64T Linux

User input:
--------------------------------------------------------------
$molecule
0  1
O -2.9877323185 -0.1701703874 2.2018945728
C -3.5071647081 -0.3220522246 1.0755491557
C -3.0155594689 -1.274388868 -0.0778874134
C -2.3192296731 -0.5320252701 -1.295955159
C -2.1120290431 0.9985380183 -1.0183158759
O -1.213212643 1.5371754282 -1.9905270409
C -1.1229416421 3.0140435118 -1.841380986
C 0.1600279913 3.3372006253 -0.9827540258
O 0.2823183756 2.2121212056 -0.0282942983
C 1.630883117 1.7411152127 0.0482135058
C 1.6355737476 0.553922355 1.0592707983
C 2.1170796186 -0.8063322278 0.3858113422
C 2.5521015713 -0.5886395535 -1.104297422
O 1.7860158274 -0.4670119865 -2.0939144863
O -4.7946105776 0.1913120352 0.6969951885
O 3.9707171321 -0.531583471 -1.2101112306
O 2.5787557059 2.2071451497 -0.6223459045
C 4.3638869245 -0.2262135922 -2.6054208661
C 2.7013967362 0.701715118 2.2268642346
C 2.2855378072 -0.3034319819 3.3725883816
C 2.6934808868 -1.6792649244 2.726312165
C 3.3052613453 -1.2069737693 1.3472169307
O 3.9323600962 0.0983803337 1.6700627934
H 0.6081616306 0.4440933872 1.4488504394
H 1.2548323739 -1.5086141705 0.3878035287
H 2.8931784815 1.742104731 2.5536074728
H 2.8616483118 -0.1009196357 4.2897983549
H 1.2108323625 -0.245170727 3.6075155985
H 3.4549209184 -2.1997641558 3.3286112283
H 1.8327522102 -2.3523111946 2.5852122429
H 4.0502441135 -1.8920286184 0.8999386774
O -2.6419654635 1.6703362097 -0.103780283
C -5.2828109196 1.1232444668 1.7358737153
C -1.8703772949 -2.2532586694 0.3998899827
C -1.7976834307 -3.4619421473 -0.6117726616
C -1.1530518723 -2.7610222247 -1.8662328978
C -0.9195838282 -1.2929697975 -1.3317178007
O -0.634462109 -1.4964149921 0.1097859985
H -3.8972665981 -1.8360012063 -0.4355145378
H -2.8832900847 -0.6531621421 -2.2385721337
H -4.6195488935 2.008082704 1.8236120735
H -1.9197829589 -2.5197904446 1.4735519527
H -1.1470224742 -4.258171937 -0.2159274619
H -2.7905632861 -3.8895994488 -0.8232244892
H -0.1911955943 -3.2240058141 -2.1379524533
H -1.8128201081 -2.7798974819 -2.7482566788
H -0.0533367361 -0.7567544316 -1.7948407121
H -5.350861006 0.6326524708 2.7286383644
H -6.2895680358 1.4462477542 1.4123177968
H 5.4691542733 -0.2169630624 -2.6134821938
H 3.9805668743 0.7656340913 -2.9205726046
H 3.9903398789 -0.993901296 -3.3136725697
H 1.0818855687 3.3837796213 -1.6016493693
H 0.0385862214 4.2927165054 -0.4291882304
H -2.0313843338 3.3924788746 -1.3284338089
H -1.0426496645 3.4427307389 -2.8605446423
$end

$rem
JOBTYPE                   OPT
METHOD                    B3LYP
DFT_D                     d3_op
BASIS                     STO-3G
GEOM_OPT_MAX_CYCLES       100
GEOM_OPT_TOL_GRADIENT     300
GEOM_OPT_TOL_DISPLACEMENT 1200
GEOM_OPT_TOL_ENERGY       100
SYMMETRY                  False
THRESH                    12
SCF_CONVERGENCE           8
MAX_SUB_FILE_NUM          128
MEM_STATIC                400
MEM_TOTAL                 4000
$end
--------------------------------------------------------------

   16   -1510.2955833060      7.10E-09 Convergence criterion met
 Total energy in the final basis set = -1510.29558331
   15   -1510.2759622284      4.92E-09 Convergence criterion met
 Total energy in the final basis set = -1510.27596223
   14   -1510.2874666608      3.60E-09 Convergence criterion met
 Total energy in the final basis set = -1510.28746666
   15   -1510.2938607058      7.50E-09 Convergence criterion met
 Total energy in the final basis set = -1510.29386071
   14   -1510.2943189128      5.00E-09 Convergence criterion met
 Total energy in the final basis set = -1510.29431891
   14   -1510.2961351044      4.77E-09 Convergence criterion met
 Total energy in the final basis set = -1510.29613510
   13   -1510.2976298072      4.14E-09 Convergence criterion met
 Total energy in the final basis set = -1510.29762981
   13   -1510.2987141112      6.32E-09 Convergence criterion met
   12   -1510.3056798099      1.94E-09 Convergence criterion met
 Total energy in the final basis set = -1510.30567981
   11   -1510.3056777582      8.65E-09 Convergence criterion met
 Total energy in the final basis set = -1510.30567776
   11   -1510.3056877798      6.13E-09 Convergence criterion met
 Total energy in the final basis set = -1510.30568778
   10   -1510.3056903031      7.22E-09 Convergence criterion met
 Total energy in the final basis set = -1510.30569030
   10   -1510.3056912742      7.57E-09 Convergence criterion met
 Total energy in the final basis set = -1510.30569127
    9   -1510.3056933131      8.43E-09 Convergence criterion met
 Total energy in the final basis set = -1510.30569331

             Standard Nuclear Orientation (Angstroms)
    I     Atom           X                Y                Z
 ----------------------------------------------------------------
    1      O      -1.6149394118    -1.0629400482     1.4786806574
    2      C      -2.6521637197    -0.9163403893     0.7872311534
    3      C      -2.7725756828    -0.9879526802    -0.7810998597
    4      C      -2.0313151573     0.2133837525    -1.5016974884
    5      C      -1.8401651235     1.4169105392    -0.5167314858
    6      O      -1.0982436244     2.4742607059    -1.1282036960
    7      C      -1.1000006474     3.6684400731    -0.2402321612
    8      C       0.1069221801     3.6371081378     0.7756144730
    9      O       0.2019990586     2.2826148602     1.3649367446
   10      C       1.2375180566     1.5471384253     0.6964325825
   11      C       1.1061450841     0.0360894734     1.0325106226
   12      C       1.8828599527    -0.8751368700    -0.0054180601
   13      C       2.5528847252    -0.0601735895    -1.1657289924
   14      O       1.9790168521     0.3408294536    -2.2133207200
   15      O      -3.9658431606    -0.8134642859     1.3410147462
   16      O       3.9526751831     0.0876494454    -0.9419462787
   17      O       2.0870858384     2.0824323982    -0.0548685980
   18      C       4.5458442335     0.9171887523    -2.0152704958
   19      C       1.8319264041    -0.3716974905     2.3878201002
   20      C       1.2926813619    -1.8027386247     2.7832213421
   21      C       2.0703691132    -2.7095177059     1.7590227938
   22      C       2.8938508347    -1.6275700531     0.9517888179
   23      O       3.2325466607    -0.6138724034     1.9794669420
   24      H       0.0293686230    -0.2492749795     1.0777162450
   25      H       1.1396006773    -1.5557720836    -0.4705121677
   26      H       1.7826763691     0.3916246372     3.1887071139
   27      H       1.5551169569    -2.0464392405     3.8249845085
   28      H       0.1989775799    -1.8640848004     2.6565753332
   29      H       2.7499202619    -3.4093469409     2.2712261194
   30      H       1.3949662021    -3.2825184883     1.1043747367
   31      H       3.8125434230    -1.9980065689     0.4583067740
   32      O      -2.3702439600     1.4979524967     0.6176030863
   33      C      -3.8796730521    -0.7172808067     2.8164287821
   34      C      -1.9244043242    -2.2138672687    -1.3135906479
   35      C      -2.1497346848    -2.3789139222    -2.8684477532
   36      C      -1.2358322600    -1.2286731934    -3.4370510051
   37      C      -0.7516483429    -0.5273372647    -2.1079443326
   38      O      -0.5480397136    -1.6889294963    -1.2111244320
   39      H      -3.8408374643    -1.0431350649    -1.0538016892
   40      H      -2.6513028397     0.5963360130    -2.3337919928
   41      H      -3.3275336509     0.1937987335     3.1248590820
   42      H      -2.0339868712    -3.1405614541    -0.7172053836
   43      H      -1.8138900442    -3.3724133586    -3.2056260227
   44      H      -3.2094620541    -2.2546398716    -3.1438786748
   45      H      -0.3695569494    -1.6398715086    -3.9798734391
   46      H      -1.7775236170    -0.5432328535    -4.1077686550
   47      H       0.2196923994     0.0369568717    -2.1845331774
   48      H      -3.3755798093    -1.6027523459     3.2549101567
   49      H      -4.9217912902    -0.6636003273     3.1812550906
   50      H       5.6237634480     0.9920030771    -1.7820063678
   51      H       4.0943462930     1.9300460541    -2.0294686536
   52      H       4.4104828628     0.4535724458    -3.0139347396
   53      H       1.0608779479     3.8653224125     0.2535146168
   54      H      -0.0720094674     4.3621988740     1.5950935802
   55      H      -2.0571058277     3.7116654767     0.3202459758
   56      H      -1.0087417155     4.5488205693    -0.9079695445
 ----------------------------------------------------------------

    9   -1510.3056927321      4.83E-09 Convergence criterion met
 Total energy in the final basis set = -1510.30569273
 Final energy is   -1510.30569273213
 **  OPTIMIZATION CONVERGED  **

                    Orbital Energies (a.u.)
 --------------------------------------------------------------

 Alpha MOs
 -- Occupied --
-18.945 -18.932 -18.930 -18.925 -18.888 -18.885 -18.875 -18.869
-18.867 -18.857 -10.107 -10.100 -10.093 -10.089 -10.076 -10.069
-10.062 -10.060 -10.052 -10.042 -10.040 -10.039 -10.038 -10.036
-10.018 -10.013 -10.009 -10.006 -10.002  -9.998  -1.024  -1.009
 -1.005  -0.997  -0.971  -0.952  -0.945  -0.933  -0.930  -0.921
 -0.762  -0.745  -0.722  -0.715  -0.702  -0.697  -0.685  -0.660
 -0.648  -0.615  -0.591  -0.569  -0.544  -0.536  -0.530  -0.520
 -0.508  -0.499  -0.486  -0.474  -0.459  -0.453  -0.448  -0.433
 -0.430  -0.422  -0.414  -0.413  -0.409  -0.405  -0.399  -0.399
 -0.392  -0.379  -0.367  -0.365  -0.359  -0.355  -0.351  -0.347
 -0.343  -0.340  -0.327  -0.323  -0.318  -0.315  -0.312  -0.307
 -0.300  -0.297  -0.294  -0.288  -0.285  -0.278  -0.273  -0.265
 -0.264  -0.255  -0.249  -0.244  -0.236  -0.227  -0.212  -0.195
 -0.174  -0.168  -0.163  -0.160  -0.154  -0.148  -0.143  -0.138
 -0.126

          Ground-State Mulliken Net Atomic Charges

     Atom                 Charge (a.u.)
  ----------------------------------------
      1 O                    -0.226513
      2 C                     0.222717
      3 C                    -0.079896
      4 C                    -0.081615
      5 C                     0.212407
      6 O                    -0.165432
      7 C                    -0.051608
      8 C                    -0.056094
      9 O                    -0.171076
     10 C                     0.209361
     11 C                    -0.094012
     12 C                    -0.097002
     13 C                     0.220519
     14 O                    -0.230372
     15 O                    -0.167490
     16 O                    -0.162995
     17 O                    -0.213159
     18 C                    -0.126148
     19 C                     0.025660
     20 C                    -0.147055
     21 C                    -0.143536
     22 C                     0.024024
     23 O                    -0.193019
     24 H                     0.113024
     25 H                     0.111358
     26 H                     0.078625
     27 H                     0.070715
     28 H                     0.087704
     29 H                     0.071944
     30 H                     0.073826
     31 H                     0.083230
     32 O                    -0.207235
     33 C                    -0.127719
     34 C                     0.027237
     35 C                    -0.145508
     36 C                    -0.143039
     37 C                     0.005913
     38 O                    -0.196936
     39 H                     0.085864
     40 H                     0.085900
     41 H                     0.094430
     42 H                     0.081654
     43 H                     0.076810
     44 H                     0.072523
     45 H                     0.078083
     46 H                     0.071848
     47 H                     0.120268
     48 H                     0.087619
     49 H                     0.088848
     50 H                     0.088500
     51 H                     0.094001
     52 H                     0.085994
     53 H                     0.102120
     54 H                     0.088361
     55 H                     0.095294
     56 H                     0.091080
  ----------------------------------------
  Sum of atomic charges =    -0.000000

                    Cartesian Multipole Moments
 -----------------------------------------------------------------
    Charge (ESU x 10^10)
                -0.0000
    Dipole Moment (Debye)
         X      -2.8128      Y       0.3959      Z      -0.9555
       Tot       2.9969
    Quadrupole Moments (Debye-Ang)
        XX    -158.6019     XY       0.4030     YY    -146.4743
        XZ      -3.3282     YZ       1.4421     ZZ    -156.1100

 Total job time:  122.14s(wall), 5828.61s(cpu)
        *  Thank you very much for using Q-Chem.  Have a nice day.  *
