 Q-Chem 5.0, Q-Chem, Inc., Pleasanton, CA (2017)
 Q-Chem 5.0.1 for Intel X86 EM64T Linux

User input:
--------------------------------------------------------------
$molecule
0  1
O -3.0933995924 -0.9972173138 1.8279369974
C -3.5759730565 -0.7077887771 0.7121346857
C -3.0068386288 -1.0983245588 -0.702636488
C -2.2521923617 0.0749945863 -1.459493206
C -2.1145511117 1.359482277 -0.5688575116
O -1.1405289848 2.2291863827 -1.1443619511
C -1.0490764638 3.4956051748 -0.3719698719
C 0.1720543138 3.3816724821 0.620500124
O 0.275626564 1.944124 0.9609958597
C 1.6291183342 1.487592914 0.9015530179
C 1.5985063095 -0.043513156 1.2074966998
C 2.1666768599 -0.9085743396 -0.0008893943
C 2.6149018117 -0.0015408772 -1.1962647088
O 1.8674987294 0.4650851586 -2.0933587049
O -4.8763883227 -0.1300438881 0.5136838807
O 4.0168326837 0.2366485542 -1.1454703841
O 2.6044659954 2.2136324312 0.6075073399
C 4.4106336239 1.1817443122 -2.2163535011
C 2.5911099329 -0.4718755583 2.370081114
C 2.1835156098 -1.924530664 2.8383513691
C 2.726731196 -2.791369457 1.6425300617
C 3.3504100925 -1.6769700303 0.7117768652
O 3.8802658705 -0.6790876585 1.6723641574
H 0.5515669465 -0.3258192901 1.4178182033
H 1.347876514 -1.5668456177 -0.3582304006
H 2.7043645294 0.2739886342 3.1804587584
H 2.6877794015 -2.1788883127 3.7841659495
H 1.0951148908 -2.024845678 2.9770897001
H 3.5065464653 -3.4951586489 1.9748862177
H 1.9307254085 -3.359675627 1.1350363603
H 4.1532974995 -2.022286246 0.0328550892
O -2.7449871356 1.6106003834 0.4840162363
C -5.4343642993 0.2966232241 1.8147684177
C -1.8711596755 -2.1968976105 -0.6078408647
C -1.7298256023 -2.8781703656 -2.0228120877
C -1.0326427562 -1.7252558956 -2.8373761561
C -0.843314332 -0.6131705448 -1.7295345748
O -0.6300296993 -1.4006882126 -0.4906953617
H -3.8569352985 -1.4531120134 -1.3123655294
H -2.7583907302 0.351038449 -2.4024578944
H -4.8205474633 1.1021017647 2.2676017236
H -1.9747645289 -2.8830072804 0.254952776
H -1.0906327265 -3.7733688713 -1.9592855985
H -2.705573706 -3.1694120284 -2.4429189358
H -0.0525230479 -2.0415486865 -3.2286613027
H -1.6480796138 -1.3706371512 -3.6794539908
H 0.0363349723 0.0580068391 -1.8973612146
H -5.4954865929 -0.5470616383 2.5326815501
H -6.4501653089 0.6792869569 1.6047845826
H 5.5038844201 1.3118315322 -2.1185503996
H 3.9057065661 2.1608370388 -2.0895590428
H 4.1687396841 0.783218057 -3.2229465061
H 1.1265525287 3.7079811441 0.1543462155
H -0.0084585912 3.9765280427 1.5412261409
H -1.9904665197 3.6500832921 0.1955066965
H -0.895568296 4.3155545692 -1.1018605392
$end

$rem
JOBTYPE                   OPT
METHOD                    B3LYP
DFT_D                     d3_op
BASIS                     STO-3G
GEOM_OPT_MAX_CYCLES       100
GEOM_OPT_TOL_GRADIENT     300
GEOM_OPT_TOL_DISPLACEMENT 1200
GEOM_OPT_TOL_ENERGY       100
SYMMETRY                  False
THRESH                    12
SCF_CONVERGENCE           8
MAX_SUB_FILE_NUM          128
MEM_STATIC                400
MEM_TOTAL                 4000
$end
--------------------------------------------------------------

   16   -1510.2955948088      6.31E-09 Convergence criterion met
 Total energy in the final basis set = -1510.29559481
   15   -1510.2433078904      5.85E-09 Convergence criterion met
 Total energy in the final basis set = -1510.24330789
   14   -1510.2950281093      9.33E-09 Convergence criterion met
 Total energy in the final basis set = -1510.29502811
   15   -1510.2893943947      5.56E-09 Convergence criterion met
 Total energy in the final basis set = -1510.28939439
   14   -1510.2916701814      6.06E-09 Convergence criterion met
 Total energy in the final basis set = -1510.29167018
   14   -1510.2950999428      3.81E-09 Convergence criterion met
 Total energy in the final basis set = -1510.29509994
   14   -1510.2968638063      2.94E-09 Convergence criterion met
 Total energy in the final basis set = -1510.29686381
   13   -1510.2983891431      3.34E-09 Convergence criterion met
   11   -1510.3056733700      7.49E-09 Convergence criterion met
 Total energy in the final basis set = -1510.30567337
   11   -1510.3056879822      2.16E-09 Convergence criterion met
 Total energy in the final basis set = -1510.30568798
   11   -1510.3057298010      9.56E-09 Convergence criterion met
 Total energy in the final basis set = -1510.30572980
   11   -1510.3057472453      7.11E-09 Convergence criterion met
 Total energy in the final basis set = -1510.30574725
   11   -1510.3057402372      6.77E-09 Convergence criterion met
 Total energy in the final basis set = -1510.30574024
   10   -1510.3057501880      7.77E-09 Convergence criterion met
 Total energy in the final basis set = -1510.30575019

             Standard Nuclear Orientation (Angstroms)
    I     Atom           X                Y                Z
 ----------------------------------------------------------------
    1      O      -1.6247477365    -1.1168049582     1.4243558870
    2      C      -2.6565195872    -0.9570804104     0.7276528199
    3      C      -2.7613525712    -0.9792321930    -0.8432658830
    4      C      -2.0170894376     0.2468058902    -1.5170001624
    5      C      -1.8437934633     1.4212269865    -0.4943946283
    6      O      -1.0978655945     2.4982093633    -1.0657718528
    7      C      -1.1137540469     3.6656214631    -0.1431393875
    8      C       0.0812951427     3.6059221764     0.8854350516
    9      O       0.1759931948     2.2325931016     1.4292462379
   10      C       1.2209928291     1.5239154394     0.7468196407
   11      C       1.0952134277     0.0029257318     1.0363906137
   12      C       1.8903802196    -0.8736279477    -0.0173899145
   13      C       2.5671573123    -0.0207468703    -1.1460708317
   14      O       2.0018123597     0.4101672559    -2.1863506386
   15      O      -3.9759501511    -0.8816507646     1.2718469178
   16      O       3.9636752802     0.1278137203    -0.9033065616
   17      O       2.0754554244     2.0867671348     0.0217146559
   18      C       4.5628196239     0.9936651054    -1.9441220478
   19      C       1.8097185504    -0.4353818724     2.3879348624
   20      C       1.2800193384    -1.8810953453     2.7406334541
   21      C       2.0740947910    -2.7531597512     1.6986824546
   22      C       2.8974304923    -1.6433235609     0.9303642183
   23      O       3.2167149775    -0.6545104385     1.9880073102
   24      H       0.0199386353    -0.2908499480     1.0616482563
   25      H       1.1580862069    -1.5473798946    -0.5089452769
   26      H       1.7454145464     0.3059862869     3.2080542593
   27      H       1.5368739524    -2.1503626621     3.7775298481
   28      H       0.1878946508    -1.9488520914     2.6040686629
   29      H       2.7531255520    -3.4630642000     2.1974960021
   30      H       1.4089714043    -3.3112985960     1.0210279824
   31      H       3.8242758085    -1.9927997177     0.4369092156
   32      O      -2.3883389807     1.4672707122     0.6349529549
   33      C      -3.9045973287    -0.8351480228     2.7504982049
   34      C      -1.9025591832    -2.1845389772    -1.4054549304
   35      C      -2.1072456737    -2.2996748014    -2.9676730916
   36      C      -1.1906407971    -1.1279472917    -3.4866481821
   37      C      -0.7262756312    -0.4692122758    -2.1291545394
   38      O      -0.5296768509    -1.6586905771    -1.2679177767
   39      H      -3.8265529412    -1.0294879978    -1.1286656374
   40      H      -2.6281141333     0.6530642234    -2.3447362869
   41      H      -3.3587344517     0.0665265539     3.0954318615
   42      H      -2.0166670731    -3.1306029683    -0.8411609903
   43      H      -1.7626640929    -3.2804182700    -3.3322093448
   44      H      -3.1638819710    -2.1708823552    -3.2528302731
   45      H      -0.3162506023    -1.5181490763    -4.0319024587
   46      H      -1.7266254773    -0.4226230341    -4.1410472233
   47      H       0.2436159360     0.1005511937    -2.1757813980
   48      H      -3.4018848884    -1.7334206307     3.1637413458
   49      H      -4.9504914097    -0.7972492640     3.1063783409
   50      H       5.6374142282     1.0690326559    -1.6962133684
   51      H       4.1038646851     2.0031979951    -1.9330175636
   52      H       4.4422624821     0.5594895934    -2.9578059773
   53      H       1.0400792525     3.8559654646     0.3825635048
   54      H      -0.1105119898     4.3016628682     1.7271309617
   55      H      -2.0775643710     3.6898626490     0.4068526104
   56      H      -1.0168047673     4.5656124137    -0.7833695807
 ----------------------------------------------------------------

    9   -1510.3057430346      2.60E-09 Convergence criterion met
 Total energy in the final basis set = -1510.30574303
 Final energy is   -1510.30574303460
 **  OPTIMIZATION CONVERGED  **

                    Orbital Energies (a.u.)
 --------------------------------------------------------------

 Alpha MOs
 -- Occupied --
-18.945 -18.932 -18.930 -18.925 -18.888 -18.885 -18.875 -18.869
-18.867 -18.857 -10.107 -10.100 -10.093 -10.089 -10.076 -10.069
-10.062 -10.060 -10.052 -10.042 -10.040 -10.039 -10.037 -10.036
-10.018 -10.013 -10.009 -10.006 -10.002  -9.998  -1.024  -1.009
 -1.005  -0.997  -0.971  -0.952  -0.945  -0.933  -0.930  -0.921
 -0.762  -0.745  -0.722  -0.715  -0.702  -0.697  -0.685  -0.660
 -0.648  -0.615  -0.591  -0.569  -0.544  -0.535  -0.530  -0.520
 -0.508  -0.499  -0.486  -0.474  -0.459  -0.453  -0.448  -0.433
 -0.430  -0.422  -0.414  -0.413  -0.409  -0.405  -0.399  -0.399
 -0.392  -0.379  -0.368  -0.365  -0.359  -0.355  -0.351  -0.347
 -0.343  -0.340  -0.327  -0.323  -0.318  -0.315  -0.312  -0.307
 -0.300  -0.297  -0.294  -0.288  -0.285  -0.278  -0.273  -0.265
 -0.264  -0.255  -0.249  -0.244  -0.236  -0.228  -0.212  -0.195
 -0.174  -0.168  -0.163  -0.160  -0.154  -0.148  -0.143  -0.138
 -0.126

          Ground-State Mulliken Net Atomic Charges

     Atom                 Charge (a.u.)
  ----------------------------------------
      1 O                    -0.226274
      2 C                     0.222685
      3 C                    -0.079855
      4 C                    -0.081625
      5 C                     0.212355
      6 O                    -0.165542
      7 C                    -0.051644
      8 C                    -0.056058
      9 O                    -0.171113
     10 C                     0.209385
     11 C                    -0.094129
     12 C                    -0.096658
     13 C                     0.220565
     14 O                    -0.230210
     15 O                    -0.167380
     16 O                    -0.163009
     17 O                    -0.213218
     18 C                    -0.126142
     19 C                     0.025622
     20 C                    -0.146899
     21 C                    -0.143533
     22 C                     0.023994
     23 O                    -0.193012
     24 H                     0.113305
     25 H                     0.111059
     26 H                     0.078647
     27 H                     0.070807
     28 H                     0.087482
     29 H                     0.071972
     30 H                     0.073834
     31 H                     0.083305
     32 O                    -0.207387
     33 C                    -0.127705
     34 C                     0.027215
     35 C                    -0.145539
     36 C                    -0.143017
     37 C                     0.005831
     38 O                    -0.197017
     39 H                     0.085872
     40 H                     0.085851
     41 H                     0.094490
     42 H                     0.081553
     43 H                     0.076790
     44 H                     0.072500
     45 H                     0.078035
     46 H                     0.071828
     47 H                     0.120196
     48 H                     0.087574
     49 H                     0.088902
     50 H                     0.088520
     51 H                     0.094089
     52 H                     0.085983
     53 H                     0.102042
     54 H                     0.088372
     55 H                     0.095260
     56 H                     0.091044
  ----------------------------------------
  Sum of atomic charges =    -0.000000

                    Cartesian Multipole Moments
 -----------------------------------------------------------------
    Charge (ESU x 10^10)
                -0.0000
    Dipole Moment (Debye)
         X      -2.7885      Y       0.3964      Z      -0.9575
       Tot       2.9749
    Quadrupole Moments (Debye-Ang)
        XX    -158.5157     XY       0.4489     YY    -146.5715
        XZ      -3.3333     YZ       1.6835     ZZ    -156.0574

 Total job time:  118.91s(wall), 5672.44s(cpu)
        *  Thank you very much for using Q-Chem.  Have a nice day.  *
