 Q-Chem 5.0, Q-Chem, Inc., Pleasanton, CA (2017)
 Q-Chem 5.0.1 for Intel X86 EM64T Linux

User input:
--------------------------------------------------------------
$molecule
0  1
O -3.94934 -3.66094 2.70899
C -3.26408 -4.56952 2.26188
C -3.36658 -6.02376 2.66595
C -2.29141 -6.56464 3.62267
C -1.33708 -5.54788 4.2088
O -0.6771 -6.09113 5.27405
C 0.30705 -5.21477 5.83324
C -0.26309 -4.4917 7.04907
O -1.67855 -4.30745 6.88966
C -2.43128 -4.60264 7.97843
C -3.9129 -4.45242 7.72768
C -4.73376 -5.73749 7.90951
C -4.0396 -6.86655 8.6444
O -3.27018 -7.6724 8.14125
O -2.29067 -4.27402 1.35975
O -4.35503 -7.04707 9.95802
O -1.98018 -4.91936 9.07355
C -3.82803 -8.03575 10.76267
C -4.61272 -3.4872 8.69828
C -5.87784 -2.93526 8.04495
C -6.74933 -4.17408 8.03337
C -5.85154 -5.14788 8.80949
O -5.13757 -4.32167 9.69744
H -4.03623 -4.06429 6.68968
H -5.19257 -6.15936 6.99518
H -3.95736 -2.65777 9.0433
H -6.3134 -2.19829 8.75747
H -5.73609 -2.44744 7.05653
H -7.67995 -3.95115 8.60101
H -7.00108 -4.56976 7.02552
H -6.47733 -5.93997 9.27719
O -1.24482 -4.37375 3.87247
C -2.03353 -3.00614 0.88164
C -4.64005 -6.28218 3.49363
C -5.02733 -7.75826 3.42812
C -3.94826 -8.36672 4.29173
C -3.21076 -7.10274 4.74165
O -4.21656 -6.12793 4.81771
H -3.454 -6.60828 1.72278
H -1.67593 -7.37849 3.17991
H -1.75222 -2.33104 1.71799
H -5.50556 -5.65727 3.18095
H -6.00418 -7.8703 3.9513
H -5.10896 -8.17664 2.40191
H -4.4338 -8.85646 5.16557
H -3.27407 -9.08619 3.77881
H -2.67558 -7.31756 5.68807
H -2.92874 -2.6052 0.35996
H -1.19101 -3.05291 0.16164
H -4.25935 -7.94432 11.78051
H -2.72457 -7.92521 10.83014
H -4.08193 -9.03746 10.35489
H -0.0286 -5.15795 7.90914
H 0.2668 -3.52986 7.21815
H 0.64727 -4.43653 5.11269
H 1.24235 -5.76132 6.07959
$end

$opt
CONSTRAINT
tors           1           2           3           4    -102.851
tors           3           4           5           6    +164.614
tors           4           5           6           7    +176.362
tors           5           6           7           8     +97.789
tors           6           7           8           9     -30.584
tors           7           8           9          10    +134.770
tors           8           9          10          11    -177.246
tors           9          10          11          12    +119.375
tors          11          12          13          14     -83.237
ENDCONSTRAINT
$end

$rem
JOBTYPE                   OPT
METHOD                    B3LYP
DFT_D                     d3_op
BASIS                     STO-3G
GEOM_OPT_MAX_CYCLES       100
GEOM_OPT_TOL_GRADIENT     300
GEOM_OPT_TOL_DISPLACEMENT 1200
GEOM_OPT_TOL_ENERGY       100
SYMMETRY                  False
THRESH                    12
SCF_CONVERGENCE           8
MAX_SUB_FILE_NUM          128
MEM_STATIC                400
MEM_TOTAL                 4000
$end
--------------------------------------------------------------

   15   -1510.1588850778      4.62E-09 Convergence criterion met
 Total energy in the final basis set = -1510.15888508
   14   -1510.2282455981      2.51E-09 Convergence criterion met
 Total energy in the final basis set = -1510.22824560
   14   -1510.2608378275      3.63E-09 Convergence criterion met
 Total energy in the final basis set = -1510.26083783
   14   -1510.2820634451      4.47E-09 Convergence criterion met
 Total energy in the final basis set = -1510.28206345
   14   -1510.2850118645      5.47E-09 Convergence criterion met
 Total energy in the final basis set = -1510.28501186
   14   -1510.2913403354      2.15E-09 Convergence criterion met
 Total energy in the final basis set = -1510.29134034
   13   -1510.2934441245      3.13E-09 Convergence criterion met
 Total energy in the final basis set = -1510.29344412
   13   -1510.2949100916      5.83E-09 Convergence criterion met
   12   -1510.2955781134      3.33E-09 Convergence criterion met
 Total energy in the final basis set = -1510.29557811
   12   -1510.2956572414      2.95E-09 Convergence criterion met
 Total energy in the final basis set = -1510.29565724
   11   -1510.2957085084      5.92E-09 Convergence criterion met
 Total energy in the final basis set = -1510.29570851
   10   -1510.2957443630      7.15E-09 Convergence criterion met
 Total energy in the final basis set = -1510.29574436
    9   -1510.2957549322      6.70E-09 Convergence criterion met
 Total energy in the final basis set = -1510.29575493
   11   -1510.2957629324      2.76E-09 Convergence criterion met
 Total energy in the final basis set = -1510.29576293

             Standard Nuclear Orientation (Angstroms)
    I     Atom           X                Y                Z
 ----------------------------------------------------------------
    1      O      -3.0933995924    -0.9972173138     1.8279369974
    2      C      -3.5759730565    -0.7077887771     0.7121346857
    3      C      -3.0068386288    -1.0983245588    -0.7026364880
    4      C      -2.2521923617     0.0749945863    -1.4594932060
    5      C      -2.1145511117     1.3594822770    -0.5688575116
    6      O      -1.1405289848     2.2291863827    -1.1443619511
    7      C      -1.0490764638     3.4956051748    -0.3719698719
    8      C       0.1720543138     3.3816724821     0.6205001240
    9      O       0.2756265640     1.9441240000     0.9609958597
   10      C       1.6291183342     1.4875929140     0.9015530179
   11      C       1.5985063095    -0.0435131560     1.2074966998
   12      C       2.1666768599    -0.9085743396    -0.0008893943
   13      C       2.6149018117    -0.0015408772    -1.1962647088
   14      O       1.8674987294     0.4650851586    -2.0933587049
   15      O      -4.8763883227    -0.1300438881     0.5136838807
   16      O       4.0168326837     0.2366485542    -1.1454703841
   17      O       2.6044659954     2.2136324312     0.6075073399
   18      C       4.4106336239     1.1817443122    -2.2163535011
   19      C       2.5911099329    -0.4718755583     2.3700811140
   20      C       2.1835156098    -1.9245306640     2.8383513691
   21      C       2.7267311960    -2.7913694570     1.6425300617
   22      C       3.3504100925    -1.6769700303     0.7117768652
   23      O       3.8802658705    -0.6790876585     1.6723641574
   24      H       0.5515669465    -0.3258192901     1.4178182033
   25      H       1.3478765140    -1.5668456177    -0.3582304006
   26      H       2.7043645294     0.2739886342     3.1804587584
   27      H       2.6877794015    -2.1788883127     3.7841659495
   28      H       1.0951148908    -2.0248456780     2.9770897001
   29      H       3.5065464653    -3.4951586489     1.9748862177
   30      H       1.9307254085    -3.3596756270     1.1350363603
   31      H       4.1532974995    -2.0222862460     0.0328550892
   32      O      -2.7449871356     1.6106003834     0.4840162363
   33      C      -5.4343642993     0.2966232241     1.8147684177
   34      C      -1.8711596755    -2.1968976105    -0.6078408647
   35      C      -1.7298256023    -2.8781703656    -2.0228120877
   36      C      -1.0326427562    -1.7252558956    -2.8373761561
   37      C      -0.8433143320    -0.6131705448    -1.7295345748
   38      O      -0.6300296993    -1.4006882126    -0.4906953617
   39      H      -3.8569352985    -1.4531120134    -1.3123655294
   40      H      -2.7583907302     0.3510384490    -2.4024578944
   41      H      -4.8205474633     1.1021017647     2.2676017236
   42      H      -1.9747645289    -2.8830072804     0.2549527760
   43      H      -1.0906327265    -3.7733688713    -1.9592855985
   44      H      -2.7055737060    -3.1694120284    -2.4429189358
   45      H      -0.0525230479    -2.0415486865    -3.2286613027
   46      H      -1.6480796138    -1.3706371512    -3.6794539908
   47      H       0.0363349723     0.0580068391    -1.8973612146
   48      H      -5.4954865929    -0.5470616383     2.5326815501
   49      H      -6.4501653089     0.6792869569     1.6047845826
   50      H       5.5038844201     1.3118315322    -2.1185503996
   51      H       3.9057065661     2.1608370388    -2.0895590428
   52      H       4.1687396841     0.7832180570    -3.2229465061
   53      H       1.1265525287     3.7079811441     0.1543462155
   54      H      -0.0084585912     3.9765280427     1.5412261409
   55      H      -1.9904665197     3.6500832921     0.1955066965
   56      H      -0.8955682960     4.3155545692    -1.1018605392
 ----------------------------------------------------------------

    9   -1510.2957632315      4.74E-09 Convergence criterion met
 Total energy in the final basis set = -1510.29576323
 Final energy is   -1510.29576323155
 **  OPTIMIZATION CONVERGED  **

                    Orbital Energies (a.u.)
 --------------------------------------------------------------

 Alpha MOs
 -- Occupied --
-18.938 -18.938 -18.931 -18.915 -18.885 -18.881 -18.879 -18.872
-18.872 -18.855 -10.103 -10.098 -10.096 -10.087 -10.074 -10.068
-10.061 -10.056 -10.052 -10.051 -10.051 -10.041 -10.036 -10.029
-10.026 -10.022 -10.017 -10.013 -10.012 -10.011  -1.020  -1.012
 -1.005  -0.993  -0.968  -0.961  -0.942  -0.934  -0.931  -0.920
 -0.759  -0.754  -0.724  -0.715  -0.709  -0.699  -0.691  -0.657
 -0.651  -0.615  -0.592  -0.573  -0.542  -0.538  -0.533  -0.529
 -0.507  -0.504  -0.484  -0.475  -0.460  -0.453  -0.449  -0.435
 -0.427  -0.424  -0.422  -0.411  -0.409  -0.403  -0.401  -0.398
 -0.394  -0.377  -0.375  -0.361  -0.355  -0.355  -0.351  -0.350
 -0.342  -0.335  -0.328  -0.324  -0.324  -0.321  -0.314  -0.309
 -0.301  -0.299  -0.297  -0.295  -0.293  -0.276  -0.273  -0.269
 -0.267  -0.251  -0.249  -0.244  -0.240  -0.235  -0.220  -0.179
 -0.176  -0.173  -0.162  -0.157  -0.155  -0.148  -0.143  -0.138
 -0.135

          Ground-State Mulliken Net Atomic Charges

     Atom                 Charge (a.u.)
  ----------------------------------------
      1 O                    -0.222224
      2 C                     0.215103
      3 C                    -0.081730
      4 C                    -0.077570
      5 C                     0.220730
      6 O                    -0.166259
      7 C                    -0.050975
      8 C                    -0.054084
      9 O                    -0.170070
     10 C                     0.208526
     11 C                    -0.080366
     12 C                    -0.087712
     13 C                     0.212225
     14 O                    -0.222328
     15 O                    -0.174931
     16 O                    -0.157651
     17 O                    -0.216171
     18 C                    -0.125847
     19 C                     0.025339
     20 C                    -0.143228
     21 C                    -0.143549
     22 C                     0.024666
     23 O                    -0.186854
     24 H                     0.100852
     25 H                     0.106088
     26 H                     0.081694
     27 H                     0.075899
     28 H                     0.078090
     29 H                     0.075308
     30 H                     0.074635
     31 H                     0.084890
     32 O                    -0.209440
     33 C                    -0.128050
     34 C                     0.024568
     35 C                    -0.144704
     36 C                    -0.145537
     37 C                     0.009241
     38 O                    -0.199808
     39 H                     0.083064
     40 H                     0.086436
     41 H                     0.091064
     42 H                     0.085539
     43 H                     0.074617
     44 H                     0.072807
     45 H                     0.075753
     46 H                     0.072068
     47 H                     0.114110
     48 H                     0.085580
     49 H                     0.085057
     50 H                     0.092714
     51 H                     0.093543
     52 H                     0.087646
     53 H                     0.098180
     54 H                     0.085320
     55 H                     0.098104
     56 H                     0.089635
  ----------------------------------------
  Sum of atomic charges =    -0.000000

                    Cartesian Multipole Moments
 -----------------------------------------------------------------
    Charge (ESU x 10^10)
                -0.0000
    Dipole Moment (Debye)
         X      -1.2627      Y       0.0510      Z      -1.7439
       Tot       2.1537
    Quadrupole Moments (Debye-Ang)
        XX    -161.7767     XY      -2.7245     YY    -146.6408
        XZ      -2.6936     YZ       1.6272     ZZ    -156.4145

 Total job time:  57.28s(wall), 2722.04s(cpu)
        *  Thank you very much for using Q-Chem.  Have a nice day.  *
