 Q-Chem 5.0, Q-Chem, Inc., Pleasanton, CA (2017)
 Q-Chem 5.0.1 for Intel X86 EM64T Linux

User input:
--------------------------------------------------------------
$molecule
0  1
O -2.7919993926 -1.0940053716 1.8740177661
C -3.4113126871 -0.7855980605 0.8331525403
C -2.9925918334 -1.0962956971 -0.6519987744
C -2.3623592615 0.1404513086 -1.4275675078
C -2.1682744353 1.3908549268 -0.4977769559
O -1.2067238474 2.276496195 -1.076536785
C -1.1015891163 3.5168558661 -0.2619360065
C 0.1446165284 3.3650317226 0.6938518989
O 0.248765033 1.9147263991 0.970950617
C 1.6089877983 1.4745426538 0.9021312097
C 1.6013330064 -0.0567611235 1.1955978555
C 2.1158874828 -0.8953084819 -0.0576260968
C 2.5667763202 0.0382074868 -1.2331020265
O 1.8211075417 0.5467161553 -2.1070850992
O -4.7495245229 -0.2650170436 0.8076297306
O 3.976229586 0.2438765622 -1.1932175276
O 2.5738182605 2.2170219292 0.6143865062
C 4.3781213349 1.2066031665 -2.2446299859
C 2.6391509548 -0.5144494102 2.306550696
C 2.2178429058 -1.9625858753 2.777001529
C 2.6673422711 -2.8233197187 1.5382757551
C 3.2938243451 -1.7155970863 0.6005033608
O 3.8917161904 -0.7483583479 1.5534456764
H 0.5653505891 -0.345549892 1.4473638136
H 1.2641393588 -1.5060327557 -0.4261319843
H 2.8059399746 0.2200699179 3.1180165965
H 2.7696326784 -2.2455898655 3.6875642495
H 1.1371307353 -2.0365238302 2.9780862742
H 3.4291161355 -3.5683352708 1.8182580178
H 1.8235235651 -3.3433546018 1.0568796523
H 4.060003264 -2.0779776413 -0.1112216561
O -2.7506159091 1.6058199469 0.5900623363
C -5.1710828621 0.091924952 2.1794453666
C -1.8300943973 -2.1610077215 -0.7404522425
C -1.8003483833 -2.7502570015 -2.2034791322
C -1.1964607819 -1.5361261176 -3.0040063584
C -0.9563592105 -0.4811754323 -1.8533087667
O -0.6125806667 -1.3276934338 -0.6847151604
H -3.8986043767 -1.4461407696 -1.1786727811
H -2.9687187613 0.4339600413 -2.3036110557
H -4.5567252568 0.923817326 2.5806874035
H -1.8295213734 -2.9045208138 0.0802489649
H -1.1410590384 -3.6317773504 -2.2489767767
H -2.8029536271 -3.0401439865 -2.5561354442
H -0.2396337095 -1.8027944874 -3.4801875346
H -1.8810039169 -1.1573356606 -3.779682457
H -0.1129764618 0.2283604908 -2.0305731184
H -5.092289798 -0.7719897679 2.8707450509
H -6.2261621167 0.4137014849 2.1046549237
H 5.4769151644 1.2986502859 -2.1678246304
H 3.9091430905 2.1977870322 -2.0787637976
H 4.1018047175 0.8471992866 -3.2570965712
H 1.0878954437 3.7070499335 0.21644004
H -0.0102740347 3.9236753128 1.641596591
H -2.0285850611 3.6475865164 0.3339991344
H -0.9670918121 4.3622698311 -0.966034366
$end

$rem
JOBTYPE                   OPT
METHOD                    B3LYP
DFT_D                     d3_op
BASIS                     STO-3G
GEOM_OPT_MAX_CYCLES       100
GEOM_OPT_TOL_GRADIENT     300
GEOM_OPT_TOL_DISPLACEMENT 1200
GEOM_OPT_TOL_ENERGY       100
SYMMETRY                  False
THRESH                    12
SCF_CONVERGENCE           8
MAX_SUB_FILE_NUM          128
MEM_STATIC                400
MEM_TOTAL                 4000
$end
--------------------------------------------------------------

   16   -1510.2938509256      6.77E-09 Convergence criterion met
 Total energy in the final basis set = -1510.29385093
   14   -1510.2863380714      9.83E-09 Convergence criterion met
 Total energy in the final basis set = -1510.28633807
   15   -1510.2848761108      3.59E-09 Convergence criterion met
 Total energy in the final basis set = -1510.28487611
   15   -1510.2937522766      6.55E-09 Convergence criterion met
 Total energy in the final basis set = -1510.29375228
   14   -1510.2940276191      4.47E-09 Convergence criterion met
 Total energy in the final basis set = -1510.29402762
   13   -1510.2957987942      5.87E-09 Convergence criterion met
 Total energy in the final basis set = -1510.29579879
   14   -1510.2978650284      2.02E-09 Convergence criterion met
 Total energy in the final basis set = -1510.29786503
   13   -1510.2987602324      9.92E-09 Convergence criterion met
   12   -1510.3055097295      8.19E-09 Convergence criterion met
 Total energy in the final basis set = -1510.30550973
   12   -1510.3056080297      7.98E-09 Convergence criterion met
 Total energy in the final basis set = -1510.30560803
   13   -1510.3054691023      2.10E-09 Convergence criterion met
 Total energy in the final basis set = -1510.30546910
   12   -1510.3056354198      5.00E-09 Convergence criterion met
 Total energy in the final basis set = -1510.30563542
   11   -1510.3056332778      3.80E-09 Convergence criterion met
 Total energy in the final basis set = -1510.30563328
   11   -1510.3056354994      1.73E-09 Convergence criterion met
 Total energy in the final basis set = -1510.30563550

             Standard Nuclear Orientation (Angstroms)
    I     Atom           X                Y                Z
 ----------------------------------------------------------------
    1      O      -1.6150226212    -1.1882937837     1.3951516760
    2      C      -2.6567951168    -0.9908813185     0.7232727956
    3      C      -2.7862510183    -0.9217437197    -0.8444708476
    4      C      -2.0480003156     0.3391091863    -1.4568083409
    5      C      -1.8556688233     1.4525696956    -0.3716234217
    6      O      -1.1053991668     2.5539241618    -0.8883958259
    7      C      -1.1044083460     3.6676701656     0.0981724352
    8      C       0.1001843094     3.5408952665     1.1096349266
    9      O       0.1958051700     2.1357957386     1.5657606730
   10      C       1.2264634360     1.4674174638     0.8238483237
   11      C       1.1053604491    -0.0683579294     1.0230859851
   12      C       1.8858718831    -0.8754116319    -0.0953212838
   13      C       2.5381103709     0.0469512044    -1.1836951584
   14      O       1.9529055235     0.5390521795    -2.1852061191
   15      O      -3.9680289470    -0.9465084177     1.2900995287
   16      O       3.9396365183     0.1812490256    -0.9616219482
   17      O       2.0702520281     2.0716601719     0.1195586701
   18      C       4.5185668021     1.1053244526    -1.9629145663
   19      C       1.8473859920    -0.5825556904     2.3322024165
   20      C       1.3375372686    -2.0525981239     2.6070537673
   21      C       2.1196448376    -2.8528761844     1.5000869392
   22      C       2.9175862272    -1.6906081794     0.7854498379
   23      O       3.2487345204    -0.7639020507     1.8942905356
   24      H       0.0308368038    -0.3663068700     1.0509998931
   25      H       1.1502678972    -1.5256189403    -0.6127513433
   26      H       1.7923985806     0.1069639642     3.1968978060
   27      H       1.6177620241    -2.3806847605     3.6207920417
   28      H       0.2435250061    -2.1239514286     2.4892497330
   29      H       2.8135847970    -3.5848934884     1.9432648782
   30      H       1.4467546098    -3.3757436277     0.8020770954
   31      H       3.8373293734    -2.0000950786     0.2536719117
   32      O      -2.3891418149     1.4387765353     0.7638101176
   33      C      -3.8762403512    -0.9897326989     2.7677304633
   34      C      -1.9419286779    -2.0942476021    -1.4917948770
   35      C      -2.1721526832    -2.1141832827    -3.0547954994
   36      C      -1.2595167517    -0.9154932057    -3.5173160351
   37      C      -0.7696331688    -0.3426314561    -2.1302340995
   38      O      -0.5647551519    -1.5826146371    -1.3451412286
   39      H      -3.8560391060    -0.9518439268    -1.1150078744
   40      H      -2.6701817316     0.7949388382    -2.2498620513
   41      H      -3.3211443126    -0.1130368118     3.1591555865
   42      H      -2.0518208303    -3.0722496365    -0.9840777617
   43      H      -1.8361507305    -3.0720593854    -3.4824729670
   44      H      -3.2327476337    -1.9662250918    -3.3150449642
   45      H      -0.3968532170    -1.2743025924    -4.1012753774
   46      H      -1.8042004552    -0.1688730527    -4.1163714602
   47      H       0.2014965115     0.2263878348    -2.1582244809
   48      H      -3.3727876618    -1.9135877910     3.1188771877
   49      H      -4.9170262231    -0.9688137645     3.1396648352
   50      H       5.5947061611     1.1803807407    -1.7216358333
   51      H       4.0486458965     2.1076469862    -1.8975490866
   52      H       4.3933098049     0.7206755548    -2.9959336364
   53      H       1.0546915881     3.8186459027     0.6132814809
   54      H      -0.0801462639     4.1827210814     1.9955489323
   55      H      -2.0627920935     3.6675204581     0.6580336980
   56      H      -1.0068004593     4.6015109711    -0.4915534544
 ----------------------------------------------------------------

    9   -1510.3056355774      4.73E-09 Convergence criterion met
 Total energy in the final basis set = -1510.30563558
 Final energy is   -1510.30563557737
 **  OPTIMIZATION CONVERGED  **

                    Orbital Energies (a.u.)
 --------------------------------------------------------------

 Alpha MOs
 -- Occupied --
-18.945 -18.932 -18.930 -18.925 -18.887 -18.885 -18.875 -18.869
-18.867 -18.857 -10.107 -10.100 -10.093 -10.089 -10.076 -10.069
-10.062 -10.060 -10.052 -10.043 -10.041 -10.038 -10.037 -10.036
-10.018 -10.012 -10.009 -10.007 -10.002  -9.999  -1.024  -1.009
 -1.005  -0.997  -0.970  -0.952  -0.944  -0.933  -0.930  -0.921
 -0.762  -0.745  -0.722  -0.715  -0.702  -0.697  -0.686  -0.660
 -0.648  -0.615  -0.591  -0.569  -0.543  -0.535  -0.530  -0.520
 -0.508  -0.499  -0.486  -0.474  -0.459  -0.453  -0.448  -0.433
 -0.430  -0.422  -0.414  -0.413  -0.409  -0.405  -0.400  -0.399
 -0.392  -0.378  -0.368  -0.364  -0.359  -0.355  -0.351  -0.347
 -0.343  -0.340  -0.327  -0.322  -0.318  -0.315  -0.312  -0.308
 -0.300  -0.297  -0.294  -0.288  -0.285  -0.278  -0.273  -0.265
 -0.264  -0.255  -0.249  -0.244  -0.236  -0.228  -0.212  -0.195
 -0.174  -0.168  -0.163  -0.159  -0.154  -0.148  -0.143  -0.138
 -0.126

          Ground-State Mulliken Net Atomic Charges

     Atom                 Charge (a.u.)
  ----------------------------------------
      1 O                    -0.226036
      2 C                     0.222634
      3 C                    -0.079823
      4 C                    -0.081640
      5 C                     0.212281
      6 O                    -0.165616
      7 C                    -0.051648
      8 C                    -0.056066
      9 O                    -0.170872
     10 C                     0.209519
     11 C                    -0.094277
     12 C                    -0.096038
     13 C                     0.220862
     14 O                    -0.230081
     15 O                    -0.167275
     16 O                    -0.163095
     17 O                    -0.213157
     18 C                    -0.126055
     19 C                     0.025562
     20 C                    -0.146498
     21 C                    -0.143537
     22 C                     0.023984
     23 O                    -0.192981
     24 H                     0.113885
     25 H                     0.110540
     26 H                     0.078722
     27 H                     0.071012
     28 H                     0.086837
     29 H                     0.072103
     30 H                     0.073829
     31 H                     0.083542
     32 O                    -0.207666
     33 C                    -0.127694
     34 C                     0.027083
     35 C                    -0.145554
     36 C                    -0.143026
     37 C                     0.005320
     38 O                    -0.197319
     39 H                     0.085854
     40 H                     0.085692
     41 H                     0.094510
     42 H                     0.081382
     43 H                     0.076696
     44 H                     0.072418
     45 H                     0.077863
     46 H                     0.071703
     47 H                     0.120396
     48 H                     0.087497
     49 H                     0.088925
     50 H                     0.088587
     51 H                     0.094249
     52 H                     0.085711
     53 H                     0.102058
     54 H                     0.088430
     55 H                     0.095244
     56 H                     0.091024
  ----------------------------------------
  Sum of atomic charges =    -0.000000

                    Cartesian Multipole Moments
 -----------------------------------------------------------------
    Charge (ESU x 10^10)
                -0.0000
    Dipole Moment (Debye)
         X      -2.7580      Y       0.4387      Z      -0.8649
       Tot       2.9235
    Quadrupole Moments (Debye-Ang)
        XX    -158.5619     XY       0.6856     YY    -146.7838
        XZ      -3.2818     YZ       2.1358     ZZ    -155.7051

 Total job time:  117.61s(wall), 5611.51s(cpu)
        *  Thank you very much for using Q-Chem.  Have a nice day.  *
