 Q-Chem 5.0, Q-Chem, Inc., Pleasanton, CA (2017)
 Q-Chem 5.0.1 for Intel X86 EM64T Linux

User input:
--------------------------------------------------------------
$molecule
0  1
O -3.94934 -3.66094 2.70899
C -3.26408 -4.56952 2.26188
C -3.36658 -6.02376 2.66595
C -2.30137 -6.56016 3.63624
C -1.35775 -5.53967 4.23311
O -0.78731 -6.04286 5.3675
C 0.20221 -5.17622 5.93233
C -0.40378 -4.35447 7.0653
O -1.79734 -4.11996 6.80866
C -2.62037 -4.27163 7.87579
C -4.07151 -4.02292 7.53966
C -4.99308 -5.23949 7.70981
C -4.42384 -6.39266 8.51159
O -3.70291 -7.27556 8.06965
O -2.28937 -4.27349 1.3613
O -4.80509 -6.49797 9.81591
O -2.25062 -4.56514 9.00723
C -4.39293 -7.49482 10.67561
C -4.74807 -2.97616 8.43815
C -5.93472 -2.36025 7.70032
C -6.89374 -3.53246 7.68642
C -6.107 -4.54099 8.53526
O -5.38061 -3.73686 9.43366
H -4.10917 -3.66911 6.48264
H -5.44536 -5.64688 6.78628
H -4.05235 -2.18359 8.7907
H -6.35045 -1.56601 8.36123
H -5.70605 -1.92417 6.70403
H -7.82913 -3.22374 8.20394
H -7.13081 -3.94221 6.68071
H -6.81106 -5.27017 8.99401
O -1.22384 -4.38181 3.85682
C -2.03211 -3.00542 0.88368
C -4.65097 -6.2883 3.47489
C -5.03641 -7.7633 3.39158
C -3.96415 -8.37813 4.25853
C -3.2379 -7.11612 4.73494
O -4.24649 -6.14649 4.80643
H -3.43948 -6.60804 1.72134
H -1.67573 -7.37417 3.20862
H -1.75251 -2.33021 1.72051
H -5.51274 -5.66117 3.15631
H -6.01749 -7.87891 3.90609
H -5.11044 -8.1741 2.36174
H -4.45773 -8.88572 5.11751
H -3.27907 -9.08491 3.74238
H -2.72127 -7.34633 5.68855
H -2.92672 -2.60493 0.36061
H -1.18844 -3.05171 0.16502
H -4.8556 -7.33111 11.67036
H -3.28771 -7.47048 10.7864
H -4.71116 -8.48757 10.29173
H -0.25594 -4.98257 7.97206
H 0.16034 -3.40921 7.2162
H 0.61597 -4.45906 5.1869
H 1.09628 -5.74499 6.26607
$end

$opt
CONSTRAINT
tors           1           2           3           4    -102.121
tors           3           4           5           6    +159.898
tors           4           5           6           7    +175.220
tors           5           6           7           8     +97.789
tors           6           7           8           9     -30.584
tors           7           8           9          10    +136.815
tors           8           9          10          11    -179.527
tors           9          10          11          12    +116.738
tors          11          12          13          14     -84.160
ENDCONSTRAINT
$end

$rem
JOBTYPE                   OPT
METHOD                    B3LYP
DFT_D                     d3_op
BASIS                     STO-3G
GEOM_OPT_MAX_CYCLES       100
GEOM_OPT_TOL_GRADIENT     300
GEOM_OPT_TOL_DISPLACEMENT 1200
GEOM_OPT_TOL_ENERGY       100
SYMMETRY                  False
THRESH                    12
SCF_CONVERGENCE           8
MAX_SUB_FILE_NUM          128
MEM_STATIC                400
MEM_TOTAL                 4000
$end
--------------------------------------------------------------

   15   -1510.1564799385      4.95E-09 Convergence criterion met
 Total energy in the final basis set = -1510.15647994
   14   -1510.2259649135      2.28E-09 Convergence criterion met
 Total energy in the final basis set = -1510.22596491
   14   -1510.2587714712      3.75E-09 Convergence criterion met
 Total energy in the final basis set = -1510.25877147
   14   -1510.2802554443      3.57E-09 Convergence criterion met
 Total energy in the final basis set = -1510.28025544
   14   -1510.2816118772      5.96E-09 Convergence criterion met
 Total energy in the final basis set = -1510.28161188
   14   -1510.2893618919      2.83E-09 Convergence criterion met
 Total energy in the final basis set = -1510.28936189
   13   -1510.2914914642      3.82E-09 Convergence criterion met
 Total energy in the final basis set = -1510.29149146
   13   -1510.2931896327      4.91E-09 Convergence criterion met
   11   -1510.2938216335      5.65E-09 Convergence criterion met
 Total energy in the final basis set = -1510.29382163
   11   -1510.2938463691      3.00E-09 Convergence criterion met
 Total energy in the final basis set = -1510.29384637
    9   -1510.2938531818      8.37E-09 Convergence criterion met
 Total energy in the final basis set = -1510.29385318
    9   -1510.2938675942      9.33E-09 Convergence criterion met
 Total energy in the final basis set = -1510.29386759
    9   -1510.2938712573      5.90E-09 Convergence criterion met
 Total energy in the final basis set = -1510.29387126
    9   -1510.2938726844      3.34E-09 Convergence criterion met
 Total energy in the final basis set = -1510.29387268

             Standard Nuclear Orientation (Angstroms)
    I     Atom           X                Y                Z
 ----------------------------------------------------------------
    1      O      -2.7919993926    -1.0940053716     1.8740177661
    2      C      -3.4113126871    -0.7855980605     0.8331525403
    3      C      -2.9925918334    -1.0962956971    -0.6519987744
    4      C      -2.3623592615     0.1404513086    -1.4275675078
    5      C      -2.1682744353     1.3908549268    -0.4977769559
    6      O      -1.2067238474     2.2764961950    -1.0765367850
    7      C      -1.1015891163     3.5168558661    -0.2619360065
    8      C       0.1446165284     3.3650317226     0.6938518989
    9      O       0.2487650330     1.9147263991     0.9709506170
   10      C       1.6089877983     1.4745426538     0.9021312097
   11      C       1.6013330064    -0.0567611235     1.1955978555
   12      C       2.1158874828    -0.8953084819    -0.0576260968
   13      C       2.5667763202     0.0382074868    -1.2331020265
   14      O       1.8211075417     0.5467161553    -2.1070850992
   15      O      -4.7495245229    -0.2650170436     0.8076297306
   16      O       3.9762295860     0.2438765622    -1.1932175276
   17      O       2.5738182605     2.2170219292     0.6143865062
   18      C       4.3781213349     1.2066031665    -2.2446299859
   19      C       2.6391509548    -0.5144494102     2.3065506960
   20      C       2.2178429058    -1.9625858753     2.7770015290
   21      C       2.6673422711    -2.8233197187     1.5382757551
   22      C       3.2938243451    -1.7155970863     0.6005033608
   23      O       3.8917161904    -0.7483583479     1.5534456764
   24      H       0.5653505891    -0.3455498920     1.4473638136
   25      H       1.2641393588    -1.5060327557    -0.4261319843
   26      H       2.8059399746     0.2200699179     3.1180165965
   27      H       2.7696326784    -2.2455898655     3.6875642495
   28      H       1.1371307353    -2.0365238302     2.9780862742
   29      H       3.4291161355    -3.5683352708     1.8182580178
   30      H       1.8235235651    -3.3433546018     1.0568796523
   31      H       4.0600032640    -2.0779776413    -0.1112216561
   32      O      -2.7506159091     1.6058199469     0.5900623363
   33      C      -5.1710828621     0.0919249520     2.1794453666
   34      C      -1.8300943973    -2.1610077215    -0.7404522425
   35      C      -1.8003483833    -2.7502570015    -2.2034791322
   36      C      -1.1964607819    -1.5361261176    -3.0040063584
   37      C      -0.9563592105    -0.4811754323    -1.8533087667
   38      O      -0.6125806667    -1.3276934338    -0.6847151604
   39      H      -3.8986043767    -1.4461407696    -1.1786727811
   40      H      -2.9687187613     0.4339600413    -2.3036110557
   41      H      -4.5567252568     0.9238173260     2.5806874035
   42      H      -1.8295213734    -2.9045208138     0.0802489649
   43      H      -1.1410590384    -3.6317773504    -2.2489767767
   44      H      -2.8029536271    -3.0401439865    -2.5561354442
   45      H      -0.2396337095    -1.8027944874    -3.4801875346
   46      H      -1.8810039169    -1.1573356606    -3.7796824570
   47      H      -0.1129764618     0.2283604908    -2.0305731184
   48      H      -5.0922897980    -0.7719897679     2.8707450509
   49      H      -6.2261621167     0.4137014849     2.1046549237
   50      H       5.4769151644     1.2986502859    -2.1678246304
   51      H       3.9091430905     2.1977870322    -2.0787637976
   52      H       4.1018047175     0.8471992866    -3.2570965712
   53      H       1.0878954437     3.7070499335     0.2164400400
   54      H      -0.0102740347     3.9236753128     1.6415965910
   55      H      -2.0285850611     3.6475865164     0.3339991344
   56      H      -0.9670918121     4.3622698311    -0.9660343660
 ----------------------------------------------------------------

    9   -1510.2938732105      1.60E-09 Convergence criterion met
 Total energy in the final basis set = -1510.29387321
 Final energy is   -1510.29387321050
 **  OPTIMIZATION CONVERGED  **

                    Orbital Energies (a.u.)
 --------------------------------------------------------------

 Alpha MOs
 -- Occupied --
-18.938 -18.933 -18.930 -18.917 -18.888 -18.881 -18.877 -18.871
-18.867 -18.858 -10.104 -10.094 -10.093 -10.088 -10.073 -10.067
-10.059 -10.058 -10.052 -10.051 -10.049 -10.046 -10.038 -10.031
-10.024 -10.018 -10.016 -10.015 -10.011 -10.010  -1.020  -1.008
 -1.003  -0.995  -0.971  -0.959  -0.942  -0.930  -0.929  -0.922
 -0.760  -0.752  -0.724  -0.715  -0.708  -0.699  -0.690  -0.654
 -0.652  -0.614  -0.592  -0.572  -0.543  -0.538  -0.534  -0.527
 -0.506  -0.504  -0.484  -0.475  -0.460  -0.454  -0.450  -0.433
 -0.428  -0.423  -0.421  -0.409  -0.406  -0.404  -0.401  -0.398
 -0.393  -0.377  -0.372  -0.362  -0.353  -0.353  -0.350  -0.348
 -0.343  -0.334  -0.331  -0.325  -0.323  -0.321  -0.313  -0.310
 -0.302  -0.298  -0.297  -0.295  -0.290  -0.275  -0.274  -0.269
 -0.268  -0.251  -0.247  -0.243  -0.242  -0.234  -0.218  -0.179
 -0.173  -0.171  -0.164  -0.157  -0.153  -0.147  -0.143  -0.139
 -0.133

          Ground-State Mulliken Net Atomic Charges

     Atom                 Charge (a.u.)
  ----------------------------------------
      1 O                    -0.221884
      2 C                     0.214898
      3 C                    -0.081145
      4 C                    -0.077488
      5 C                     0.219861
      6 O                    -0.165327
      7 C                    -0.051286
      8 C                    -0.054252
      9 O                    -0.170005
     10 C                     0.208702
     11 C                    -0.080394
     12 C                    -0.090536
     13 C                     0.210167
     14 O                    -0.224913
     15 O                    -0.173624
     16 O                    -0.159169
     17 O                    -0.216360
     18 C                    -0.126171
     19 C                     0.025244
     20 C                    -0.143073
     21 C                    -0.143762
     22 C                     0.024256
     23 O                    -0.186920
     24 H                     0.098237
     25 H                     0.109886
     26 H                     0.081448
     27 H                     0.075494
     28 H                     0.077663
     29 H                     0.074851
     30 H                     0.074124
     31 H                     0.084156
     32 O                    -0.209950
     33 C                    -0.128028
     34 C                     0.025256
     35 C                    -0.144585
     36 C                    -0.145332
     37 C                     0.013418
     38 O                    -0.197653
     39 H                     0.083431
     40 H                     0.086943
     41 H                     0.091395
     42 H                     0.085740
     43 H                     0.075508
     44 H                     0.073299
     45 H                     0.077536
     46 H                     0.072644
     47 H                     0.114511
     48 H                     0.086087
     49 H                     0.085523
     50 H                     0.091581
     51 H                     0.092514
     52 H                     0.086762
     53 H                     0.098548
     54 H                     0.084654
     55 H                     0.098136
     56 H                     0.089383
  ----------------------------------------
  Sum of atomic charges =    -0.000000

                    Cartesian Multipole Moments
 -----------------------------------------------------------------
    Charge (ESU x 10^10)
                -0.0000
    Dipole Moment (Debye)
         X      -1.7931      Y      -0.0026      Z      -1.6067
       Tot       2.4076
    Quadrupole Moments (Debye-Ang)
        XX    -162.0957     XY      -2.1262     YY    -146.9526
        XZ      -2.5681     YZ       2.0479     ZZ    -155.2930

 Total job time:  58.37s(wall), 2780.81s(cpu)
        *  Thank you very much for using Q-Chem.  Have a nice day.  *
