 Q-Chem 5.0, Q-Chem, Inc., Pleasanton, CA (2017)
 Q-Chem 5.0.1 for Intel X86 EM64T Linux

User input:
--------------------------------------------------------------
$molecule
0  1
O -3.94934 -3.66094 2.70899
C -3.26408 -4.56952 2.26188
C -3.36658 -6.02376 2.66595
C -2.38109 -6.52764 3.73308
C -1.52153 -5.48022 4.40552
O -0.99379 -5.98437 5.55997
C -0.12269 -5.06625 6.22892
C -0.89504 -4.28444 7.28645
O -2.25925 -4.11474 6.87049
C -3.19554 -4.42466 7.80133
C -4.60761 -4.28916 7.2833
C -5.39975 -5.60281 7.21188
C -4.81557 -6.76945 7.98284
O -3.98359 -7.55638 7.55492
O -2.25494 -4.26688 1.4028
O -5.27136 -6.98189 9.25032
O -2.95164 -4.78785 8.9466
C -4.84103 -7.99674 10.07954
C -5.48781 -3.39584 8.16548
C -6.65042 -2.84489 7.34267
C -7.4796 -4.09709 7.16429
C -6.65424 -5.09416 7.99069
O -6.11845 -4.30434 9.02461
H -4.53664 -3.84648 6.26252
H -5.85045 -5.9351 6.26804
H -4.92389 -2.56828 8.64913
H -7.2124 -2.13233 7.98797
H -6.35331 -2.33501 6.40087
H -8.46798 -3.93108 7.64836
H -7.62524 -4.42867 6.11361
H -7.31596 -5.92832 8.31574
O -1.42143 -4.30805 4.06375
C -1.97787 -2.99502 0.94698
C -4.69402 -6.34346 3.35683
C -5.03996 -7.82128 3.19533
C -3.98639 -8.45148 4.07667
C -3.34675 -7.19465 4.68208
O -4.37566 -6.25613 4.71146
H -3.34471 -6.61184 1.7205
H -1.66917 -7.27961 3.32617
H -1.7293 -2.32784 1.79988
H -5.5442 -5.71553 3.01021
H -6.03629 -7.96934 3.67112
H -5.07378 -8.19963 2.15113
H -4.4979 -9.05639 4.85802
H -3.23343 -9.07273 3.54488
H -2.8375 -7.45402 5.6204
H -2.85143 -2.58833 0.39394
H -1.10759 -3.03626 0.26044
H -5.37915 -7.9283 11.04707
H -3.75061 -7.89881 10.26864
H -5.05623 -8.98459 9.61909
H -0.8072 -4.88855 8.21613
H -0.39928 -3.30982 7.4827
H 0.33692 -4.33576 5.52385
H 0.75404 -5.58841 6.66805
$end

$opt
CONSTRAINT
tors           1           2           3           4     -96.690
tors           3           4           5           6    +162.713
tors           4           5           6           7    +177.675
tors           5           6           7           8     +94.361
tors           6           7           8           9     -31.192
tors           7           8           9          10    +131.451
tors           8           9          10          11    -177.246
tors           9          10          11          12    +115.190
tors          11          12          13          14     -87.113
ENDCONSTRAINT
$end

$rem
JOBTYPE                   OPT
METHOD                    B3LYP
DFT_D                     d3_op
BASIS                     STO-3G
GEOM_OPT_MAX_CYCLES       100
GEOM_OPT_TOL_GRADIENT     300
GEOM_OPT_TOL_DISPLACEMENT 1200
GEOM_OPT_TOL_ENERGY       100
SYMMETRY                  False
THRESH                    12
SCF_CONVERGENCE           8
MAX_SUB_FILE_NUM          128
MEM_STATIC                400
MEM_TOTAL                 4000
$end
--------------------------------------------------------------

   16   -1510.1412066126      2.19E-09 Convergence criterion met
 Total energy in the final basis set = -1510.14120661
   14   -1510.2133326660      2.43E-09 Convergence criterion met
 Total energy in the final basis set = -1510.21333267
   14   -1510.2397714637      7.01E-09 Convergence criterion met
 Total energy in the final basis set = -1510.23977146
   14   -1510.2749538601      3.73E-09 Convergence criterion met
 Total energy in the final basis set = -1510.27495386
   14   -1510.2848672891      4.36E-09 Convergence criterion met
 Total energy in the final basis set = -1510.28486729
   13   -1510.2908723265      5.24E-09 Convergence criterion met
 Total energy in the final basis set = -1510.29087233
   13   -1510.2938665281      4.59E-09 Convergence criterion met
 Total energy in the final basis set = -1510.29386653
   13   -1510.2952235473      6.75E-09 Convergence criterion met
   11   -1510.2964126699      8.57E-09 Convergence criterion met
 Total energy in the final basis set = -1510.29641267
   11   -1510.2964310715      4.37E-09 Convergence criterion met
 Total energy in the final basis set = -1510.29643107
   11   -1510.2964442446      2.96E-09 Convergence criterion met
 Total energy in the final basis set = -1510.29644424
    9   -1510.2964524568      7.86E-09 Convergence criterion met
 Total energy in the final basis set = -1510.29645246
    9   -1510.2964594379      3.41E-09 Convergence criterion met
 Total energy in the final basis set = -1510.29645944
    9   -1510.2964622379      2.93E-09 Convergence criterion met
 Total energy in the final basis set = -1510.29646224

             Standard Nuclear Orientation (Angstroms)
    I     Atom           X                Y                Z
 ----------------------------------------------------------------
    1      O      -2.7390848603    -0.9826968858     1.8453712210
    2      C      -3.3837154720    -0.7870087352     0.7924689242
    3      C      -2.9600588214    -1.1853293718    -0.6704713972
    4      C      -2.2797223413    -0.0112685381    -1.4990694373
    5      C      -2.1509898943     1.3103950132    -0.6632516591
    6      O      -1.2013091496     2.1914702777    -1.2725475557
    7      C      -1.1333727370     3.4602853488    -0.4999542808
    8      C       0.0401703144     3.3853773527     0.5505387049
    9      O       0.1676394072     1.9675296849     0.9589653029
   10      C       1.5406040605     1.5562509633     0.8929083161
   11      C       1.5943202607     0.0443527358     1.2645799578
   12      C       2.0812968482    -0.8450412905     0.0356530530
   13      C       2.5283879390     0.0411037900    -1.1773288418
   14      O       1.7884363963     0.4886118022    -2.0909108376
   15      O      -4.7430911529    -0.3261845277     0.7451482181
   16      O       3.9289730333     0.2877084998    -1.1260815206
   17      O       2.4781517715     2.3082298973     0.5431691078
   18      C       4.3232289671     1.2086920504    -2.2175124824
   19      C       2.6776699559    -0.3360302875     2.3617263756
   20      C       2.2820166506    -1.7544275124     2.9338844634
   21      C       2.6707581249    -2.6831235139     1.7237780590
   22      C       3.2747172664    -1.6337995889     0.7062036193
   23      O       3.9038235899    -0.6147224403     1.5818537720
   24      H       0.5770956975    -0.2592861820     1.5706662101
   25      H       1.2246294943    -1.4731908181    -0.2943196821
   26      H       2.8688046065     0.4479194653     3.1197597206
   27      H       2.8791965864    -1.9872148190     3.8301357113
   28      H       1.2128569995    -1.8163285634     3.1923336191
   29      H       3.4306796628    -3.4271655967     2.0111498923
   30      H       1.8004106717    -3.2098576444     1.3007603895
   31      H       4.0181243177    -2.0414047424    -0.0051722562
   32      O      -2.7776175523     1.5811914330     0.3872771909
   33      C      -5.1660795199     0.1119422257     2.0928524191
   34      C      -1.8177312108    -2.2773389043    -0.6710320385
   35      C      -1.7464546253    -2.9324583548    -2.1041350332
   36      C      -1.0755432522    -1.7729505765    -2.9321463864
   37      C      -0.8661250720    -0.6656585247    -1.8248439627
   38      O      -0.5882334705    -1.4615852138    -0.6049881268
   39      H      -3.8652814186    -1.5437133211    -1.1922455434
   40      H      -2.8422064757     0.2133934881    -2.4241000692
   41      H      -4.5657061632     0.9788310332     2.4369035458
   42      H      -1.8621235281    -2.9830962220     0.1808967890
   43      H      -1.1144607637    -3.8346264560    -2.0845431538
   44      H      -2.7433427770    -3.2076815283    -2.4836713579
   45      H      -0.1034772822    -2.0843978742    -3.3466889383
   46      H      -1.7121350810    -1.4195651224    -3.7588235759
   47      H      -0.0016086085     0.0240810594    -2.0027515453
   48      H      -5.0701539146    -0.7034770475     2.8389340057
   49      H      -6.2271675981     0.4088556666     2.0020619414
   50      H       5.4149205587     1.3484048747    -2.1156875534
   51      H       3.8109304739     2.1871238516    -2.1182722229
   52      H       4.0909552792     0.7837977674    -3.2155561999
   53      H       1.0120665836     3.7090974513     0.1191401333
   54      H      -0.1950313062     4.0093687497     1.4387398055
   55      H      -2.0987556442     3.6236574927     0.0224463193
   56      H      -0.9496819530     4.2719525663    -1.2322263577
 ----------------------------------------------------------------

    8   -1510.2964625572      9.59E-09 Convergence criterion met
 Total energy in the final basis set = -1510.29646256
 Final energy is   -1510.29646255718
 **  OPTIMIZATION CONVERGED  **

                    Orbital Energies (a.u.)
 --------------------------------------------------------------

 Alpha MOs
 -- Occupied --
-18.938 -18.936 -18.931 -18.917 -18.888 -18.881 -18.877 -18.873
-18.871 -18.856 -10.103 -10.096 -10.095 -10.087 -10.072 -10.065
-10.059 -10.058 -10.052 -10.051 -10.049 -10.041 -10.036 -10.030
-10.025 -10.018 -10.016 -10.014 -10.011 -10.010  -1.019  -1.011
 -1.005  -0.994  -0.970  -0.960  -0.941  -0.932  -0.931  -0.921
 -0.759  -0.753  -0.723  -0.715  -0.708  -0.699  -0.690  -0.656
 -0.651  -0.614  -0.592  -0.572  -0.542  -0.538  -0.533  -0.528
 -0.505  -0.504  -0.484  -0.475  -0.459  -0.453  -0.449  -0.433
 -0.428  -0.423  -0.421  -0.411  -0.407  -0.404  -0.401  -0.398
 -0.394  -0.376  -0.374  -0.361  -0.355  -0.354  -0.351  -0.349
 -0.343  -0.334  -0.330  -0.324  -0.323  -0.322  -0.313  -0.310
 -0.301  -0.298  -0.297  -0.295  -0.292  -0.275  -0.273  -0.270
 -0.267  -0.251  -0.248  -0.244  -0.241  -0.234  -0.218  -0.180
 -0.175  -0.172  -0.162  -0.157  -0.154  -0.148  -0.145  -0.138
 -0.134

          Ground-State Mulliken Net Atomic Charges

     Atom                 Charge (a.u.)
  ----------------------------------------
      1 O                    -0.222515
      2 C                     0.214832
      3 C                    -0.080944
      4 C                    -0.077952
      5 C                     0.218600
      6 O                    -0.164995
      7 C                    -0.051899
      8 C                    -0.056763
      9 O                    -0.168789
     10 C                     0.208211
     11 C                    -0.080758
     12 C                    -0.092832
     13 C                     0.211611
     14 O                    -0.222902
     15 O                    -0.173625
     16 O                    -0.157130
     17 O                    -0.216097
     18 C                    -0.125889
     19 C                     0.025407
     20 C                    -0.142730
     21 C                    -0.144039
     22 C                     0.024450
     23 O                    -0.186732
     24 H                     0.097858
     25 H                     0.114007
     26 H                     0.081842
     27 H                     0.075550
     28 H                     0.077526
     29 H                     0.074826
     30 H                     0.074994
     31 H                     0.083416
     32 O                    -0.209534
     33 C                    -0.127952
     34 C                     0.026210
     35 C                    -0.145000
     36 C                    -0.145326
     37 C                     0.008505
     38 O                    -0.198614
     39 H                     0.083346
     40 H                     0.086173
     41 H                     0.091543
     42 H                     0.085162
     43 H                     0.075293
     44 H                     0.073200
     45 H                     0.076190
     46 H                     0.072310
     47 H                     0.117122
     48 H                     0.085455
     49 H                     0.085394
     50 H                     0.092405
     51 H                     0.093460
     52 H                     0.087204
     53 H                     0.099866
     54 H                     0.084640
     55 H                     0.097225
     56 H                     0.089183
  ----------------------------------------
  Sum of atomic charges =    -0.000000

                    Cartesian Multipole Moments
 -----------------------------------------------------------------
    Charge (ESU x 10^10)
                -0.0000
    Dipole Moment (Debye)
         X      -1.5126      Y      -0.1500      Z      -1.5407
       Tot       2.1643
    Quadrupole Moments (Debye-Ang)
        XX    -161.8974     XY      -2.0782     YY    -147.1149
        XZ      -2.5945     YZ       1.4720     ZZ    -155.2479

 Total job time:  59.02s(wall), 2813.70s(cpu)
        *  Thank you very much for using Q-Chem.  Have a nice day.  *
