 Q-Chem 5.0, Q-Chem, Inc., Pleasanton, CA (2017)
 Q-Chem 5.0.1 for Intel X86 EM64T Linux

User input:
--------------------------------------------------------------
$molecule
0  1
O -2.7390848603 -0.9826968858 1.845371221
C -3.383715472 -0.7870087352 0.7924689242
C -2.9600588214 -1.1853293718 -0.6704713972
C -2.2797223413 -0.0112685381 -1.4990694373
C -2.1509898943 1.3103950132 -0.6632516591
O -1.2013091496 2.1914702777 -1.2725475557
C -1.133372737 3.4602853488 -0.4999542808
C 0.0401703144 3.3853773527 0.5505387049
O 0.1676394072 1.9675296849 0.9589653029
C 1.5406040605 1.5562509633 0.8929083161
C 1.5943202607 0.0443527358 1.2645799578
C 2.0812968482 -0.8450412905 0.035653053
C 2.528387939 0.04110379 -1.1773288418
O 1.7884363963 0.4886118022 -2.0909108376
O -4.7430911529 -0.3261845277 0.7451482181
O 3.9289730333 0.2877084998 -1.1260815206
O 2.4781517715 2.3082298973 0.5431691078
C 4.3232289671 1.2086920504 -2.2175124824
C 2.6776699559 -0.3360302875 2.3617263756
C 2.2820166506 -1.7544275124 2.9338844634
C 2.6707581249 -2.6831235139 1.723778059
C 3.2747172664 -1.6337995889 0.7062036193
O 3.9038235899 -0.6147224403 1.581853772
H 0.5770956975 -0.259286182 1.5706662101
H 1.2246294943 -1.4731908181 -0.2943196821
H 2.8688046065 0.4479194653 3.1197597206
H 2.8791965864 -1.987214819 3.8301357113
H 1.2128569995 -1.8163285634 3.1923336191
H 3.4306796628 -3.4271655967 2.0111498923
H 1.8004106717 -3.2098576444 1.3007603895
H 4.0181243177 -2.0414047424 -0.0051722562
O -2.7776175523 1.581191433 0.3872771909
C -5.1660795199 0.1119422257 2.0928524191
C -1.8177312108 -2.2773389043 -0.6710320385
C -1.7464546253 -2.9324583548 -2.1041350332
C -1.0755432522 -1.7729505765 -2.9321463864
C -0.866125072 -0.6656585247 -1.8248439627
O -0.5882334705 -1.4615852138 -0.6049881268
H -3.8652814186 -1.5437133211 -1.1922455434
H -2.8422064757 0.2133934881 -2.4241000692
H -4.5657061632 0.9788310332 2.4369035458
H -1.8621235281 -2.983096222 0.180896789
H -1.1144607637 -3.834626456 -2.0845431538
H -2.743342777 -3.2076815283 -2.4836713579
H -0.1034772822 -2.0843978742 -3.3466889383
H -1.712135081 -1.4195651224 -3.7588235759
H -0.0016086085 0.0240810594 -2.0027515453
H -5.0701539146 -0.7034770475 2.8389340057
H -6.2271675981 0.4088556666 2.0020619414
H 5.4149205587 1.3484048747 -2.1156875534
H 3.8109304739 2.1871238516 -2.1182722229
H 4.0909552792 0.7837977674 -3.2155561999
H 1.0120665836 3.7090974513 0.1191401333
H -0.1950313062 4.0093687497 1.4387398055
H -2.0987556442 3.6236574927 0.0224463193
H -0.949681953 4.2719525663 -1.2322263577
$end

$rem
JOBTYPE                   OPT
METHOD                    B3LYP
DFT_D                     d3_op
BASIS                     STO-3G
GEOM_OPT_MAX_CYCLES       100
GEOM_OPT_TOL_GRADIENT     300
GEOM_OPT_TOL_DISPLACEMENT 1200
GEOM_OPT_TOL_ENERGY       100
SYMMETRY                  False
THRESH                    12
SCF_CONVERGENCE           8
MAX_SUB_FILE_NUM          128
MEM_STATIC                400
MEM_TOTAL                 4000
$end
--------------------------------------------------------------

   16   -1510.2964859287      6.17E-09 Convergence criterion met
 Total energy in the final basis set = -1510.29648593
   14   -1510.2908018510      8.33E-09 Convergence criterion met
 Total energy in the final basis set = -1510.29080185
   15   -1510.2912763055      2.41E-09 Convergence criterion met
 Total energy in the final basis set = -1510.29127631
   15   -1510.2277724592      9.28E-09 Convergence criterion met
 Total energy in the final basis set = -1510.22777246
   15   -1510.2933829923      3.68E-09 Convergence criterion met
 Total energy in the final basis set = -1510.29338299
   15   -1510.2921496690      8.59E-09 Convergence criterion met
 Total energy in the final basis set = -1510.29214967
   14   -1510.2960810562      3.31E-09 Convergence criterion met
 Total energy in the final basis set = -1510.29608106
   14   -1510.2971423235      9.14E-09 Convergence criterion met
   12   -1510.3056392485      8.37E-09 Convergence criterion met
 Total energy in the final basis set = -1510.30563925
   11   -1510.3056433405      4.28E-09 Convergence criterion met
 Total energy in the final basis set = -1510.30564334
   11   -1510.3056500812      2.29E-09 Convergence criterion met
 Total energy in the final basis set = -1510.30565008
   11   -1510.3056485092      6.65E-09 Convergence criterion met
 Total energy in the final basis set = -1510.30564851
   11   -1510.3056536984      1.90E-09 Convergence criterion met
 Total energy in the final basis set = -1510.30565370
   10   -1510.3056572552      8.59E-09 Convergence criterion met
 Total energy in the final basis set = -1510.30565726

             Standard Nuclear Orientation (Angstroms)
    I     Atom           X                Y                Z
 ----------------------------------------------------------------
    1      O      -1.6038235279    -1.1300735190     1.4560792241
    2      C      -2.6486827655    -0.9583415567     0.7820416986
    3      C      -2.7855400560    -0.9588454206    -0.7865105779
    4      C      -2.0502659352     0.2732027776    -1.4591026512
    5      C      -1.8509776811     1.4328854450    -0.4247070723
    6      O      -1.1097559723     2.5134378552    -0.9954859173
    7      C      -1.1026861387     3.6686579233    -0.0576609437
    8      C       0.1101500110     3.5892972121     0.9487154149
    9      O       0.2105381973     2.2074602320     1.4696406459
   10      C       1.2374769962     1.5055775756     0.7537779084
   11      C       1.1137293854    -0.0194887150     1.0221211099
   12      C       1.8852775490    -0.8796812784    -0.0623113017
   13      C       2.5367746697    -0.0097143579    -1.1932634597
   14      O       1.9483076489     0.4378788613    -2.2136094366
   15      O      -3.9568655532    -0.8860942582     1.3531424340
   16      O       3.9390187993     0.1325861156    -0.9818392078
   17      O       2.0781329296     2.0766764146     0.0189437464
   18      C       4.5154516536     1.0110925071    -2.0248633116
   19      C       1.8580848578    -0.4792243481     2.3502163349
   20      C       1.3381147608    -1.9312838741     2.6917006995
   21      C       2.1108600968    -2.7858430206     1.6194356619
   22      C       2.9144357514    -1.6624350431     0.8501377964
   23      O       3.2561589306    -0.6899163398     1.9157294664
   24      H       0.0384704545    -0.3115441886     1.0672582680
   25      H       1.1426705502    -1.5465623030    -0.5475512108
   26      H       1.8113626162     0.2487422187     3.1834147308
   27      H       1.6180655932    -2.2161421220     3.7184589744
   28      H       0.2433019783    -1.9989184810     2.5786843563
   29      H       2.8021729032    -3.5012424969     2.0928344714
   30      H       1.4323568108    -3.3357468449     0.9483086295
   31      H       3.8301998067    -2.0020985119     0.3299592835
   32      O      -2.3738276155     1.4667694286     0.7153124197
   33      C      -3.8567736384    -0.8613073438     2.8306678828
   34      C      -1.9440397947    -2.1597019646    -1.3833437334
   35      C      -2.1838453065    -2.2515324418    -2.9421969411
   36      C      -1.2731140528    -1.0769221509    -3.4647972806
   37      C      -0.7759607469    -0.4394021588    -2.1086146050
   38      O      -0.5663312916    -1.6414385423    -1.2683495791
   39      H      -3.8565680050    -1.0010803716    -1.0505628587
   40      H      -2.6770178893     0.6932533059    -2.2680564193
   41      H      -3.3010027816     0.0333541816     3.1780473736
   42      H      -2.0501526615    -3.1131275553    -0.8300077736
   43      H      -1.8523677850    -3.2285642037    -3.3281768776
   44      H      -3.2459216935    -2.1136448535    -3.2017992214
   45      H      -0.4127781676    -1.4635636880    -4.0343415339
   46      H      -1.8196547960    -0.3598046888    -4.0972505080
   47      H       0.1952716130     0.1273632165    -2.1682507877
   48      H      -3.3496205682    -1.7672111009     3.2211434357
   49      H      -4.8954527164    -0.8248922057     3.2072504286
   50      H       5.5938019201     1.0898863925    -1.7949201385
   51      H       4.0515613298     2.0180048604    -1.9970586315
   52      H       4.3799135873     0.5851364993    -3.0401907504
   53      H       1.0605331846     3.8445451563     0.4326951423
   54      H      -0.0642092693     4.2720775109     1.8047216813
   55      H      -2.0564430314     3.6913577865     0.5096645439
   56      H      -1.0117939640     4.5763124212    -0.6878698466
 ----------------------------------------------------------------

    9   -1510.3056576822      7.25E-09 Convergence criterion met
 Total energy in the final basis set = -1510.30565768
 Final energy is   -1510.30565768224
 **  OPTIMIZATION CONVERGED  **

                    Orbital Energies (a.u.)
 --------------------------------------------------------------

 Alpha MOs
 -- Occupied --
-18.945 -18.932 -18.930 -18.925 -18.888 -18.885 -18.875 -18.869
-18.867 -18.857 -10.107 -10.100 -10.093 -10.089 -10.076 -10.069
-10.062 -10.060 -10.052 -10.042 -10.041 -10.038 -10.037 -10.036
-10.018 -10.012 -10.009 -10.006 -10.002  -9.998  -1.024  -1.009
 -1.005  -0.997  -0.971  -0.952  -0.945  -0.933  -0.930  -0.921
 -0.762  -0.745  -0.722  -0.715  -0.702  -0.697  -0.685  -0.660
 -0.648  -0.615  -0.591  -0.569  -0.544  -0.535  -0.530  -0.520
 -0.508  -0.499  -0.486  -0.474  -0.459  -0.453  -0.448  -0.433
 -0.430  -0.422  -0.414  -0.413  -0.409  -0.405  -0.400  -0.399
 -0.392  -0.379  -0.368  -0.365  -0.359  -0.355  -0.351  -0.347
 -0.343  -0.340  -0.327  -0.322  -0.318  -0.315  -0.312  -0.308
 -0.300  -0.297  -0.294  -0.288  -0.285  -0.278  -0.273  -0.265
 -0.264  -0.255  -0.249  -0.244  -0.236  -0.228  -0.212  -0.195
 -0.174  -0.168  -0.163  -0.159  -0.154  -0.148  -0.143  -0.138
 -0.126

          Ground-State Mulliken Net Atomic Charges

     Atom                 Charge (a.u.)
  ----------------------------------------
      1 O                    -0.226252
      2 C                     0.222640
      3 C                    -0.079850
      4 C                    -0.081655
      5 C                     0.212305
      6 O                    -0.165541
      7 C                    -0.051631
      8 C                    -0.056036
      9 O                    -0.170995
     10 C                     0.209452
     11 C                    -0.094112
     12 C                    -0.096477
     13 C                     0.220720
     14 O                    -0.230140
     15 O                    -0.167381
     16 O                    -0.162998
     17 O                    -0.213182
     18 C                    -0.126080
     19 C                     0.025627
     20 C                    -0.146753
     21 C                    -0.143528
     22 C                     0.023992
     23 O                    -0.193024
     24 H                     0.113460
     25 H                     0.110954
     26 H                     0.078677
     27 H                     0.070884
     28 H                     0.087271
     29 H                     0.072037
     30 H                     0.073841
     31 H                     0.083402
     32 O                    -0.207454
     33 C                    -0.127717
     34 C                     0.027188
     35 C                    -0.145550
     36 C                    -0.143056
     37 C                     0.005581
     38 O                    -0.197203
     39 H                     0.085838
     40 H                     0.085784
     41 H                     0.094463
     42 H                     0.081495
     43 H                     0.076723
     44 H                     0.072459
     45 H                     0.077931
     46 H                     0.071787
     47 H                     0.120342
     48 H                     0.087551
     49 H                     0.088888
     50 H                     0.088580
     51 H                     0.094209
     52 H                     0.085833
     53 H                     0.102023
     54 H                     0.088407
     55 H                     0.095223
     56 H                     0.091049
  ----------------------------------------
  Sum of atomic charges =    -0.000000

                    Cartesian Multipole Moments
 -----------------------------------------------------------------
    Charge (ESU x 10^10)
                -0.0000
    Dipole Moment (Debye)
         X      -2.7834      Y       0.4151      Z      -0.8867
       Tot       2.9506
    Quadrupole Moments (Debye-Ang)
        XX    -158.6188     XY       0.5653     YY    -146.6211
        XZ      -3.3120     YZ       1.7882     ZZ    -155.8765

 Total job time:  117.80s(wall), 5620.36s(cpu)
        *  Thank you very much for using Q-Chem.  Have a nice day.  *
