 Q-Chem 5.0, Q-Chem, Inc., Pleasanton, CA (2017)
 Q-Chem 5.0.1 for Intel X86 EM64T Linux

User input:
--------------------------------------------------------------
$molecule
0  1
O -3.94934 -3.66094 2.70899
C -3.26408 -4.56952 2.26188
C -3.36658 -6.02376 2.66595
C -2.44054 -6.50642 3.79438
C -1.6422 -5.44171 4.51351
O -1.27155 -5.89408 5.74777
C -0.44031 -4.97121 6.45953
C -1.28824 -4.10864 7.38857
O -2.59368 -3.91584 6.82152
C -3.63118 -4.06698 7.6817
C -4.97677 -3.91729 7.01263
C -5.80294 -5.20876 6.92413
C -5.34254 -6.34964 7.80907
O -4.50157 -7.18464 7.5089
O -2.24621 -4.26484 1.41404
O -5.93947 -6.4839 9.0275
O -3.5198 -4.34713 8.87002
C -5.63727 -7.4683 9.94527
C -5.91539 -2.95143 7.7452
C -6.96206 -2.41359 6.77186
C -7.80982 -3.64965 6.56693
C -7.11617 -4.62338 7.53061
O -6.66795 -3.79311 8.575
H -4.7829 -3.53932 5.98166
H -6.1341 -5.56732 5.93993
H -5.37865 -2.11544 8.24493
H -7.56597 -1.6514 7.31438
H -6.54748 -1.96405 5.84382
H -8.83933 -3.42848 6.92737
H -7.84956 -4.03498 5.52528
H -7.83737 -5.41952 7.82229
O -1.4798 -4.28949 4.13007
C -1.96441 -2.99186 0.96428
C -4.73219 -6.37546 3.26991
C -5.02989 -7.86033 3.08068
C -4.02857 -8.46759 4.03722
C -3.46207 -7.19783 4.68813
O -4.51696 -6.29063 4.64772
H -3.26976 -6.61285 1.72581
H -1.69203 -7.25081 3.44379
H -1.72424 -2.32692 1.82133
H -5.56959 -5.76526 2.86543
H -6.05459 -8.0342 3.48161
H -4.97827 -8.23614 2.03628
H -4.58312 -9.08394 4.77942
H -3.22612 -9.07319 3.563
H -3.04274 -7.45528 5.67772
H -2.83241 -2.58364 0.40364
H -1.0874 -3.03149 0.28627
H -6.2735 -7.33491 10.84404
H -4.57068 -7.39416 10.2474
H -5.83682 -8.47111 9.51082
H -1.33009 -4.67818 8.34335
H -0.7788 -3.14392 7.59857
H 0.11417 -4.29133 5.7722
H 0.36738 -5.49708 7.01205
$end

$opt
CONSTRAINT
tors           1           2           3           4     -93.003
tors           3           4           5           6    +157.756
tors           4           5           6           7    +176.380
tors           5           6           7           8     +95.099
tors           6           7           8           9     -31.192
tors           7           8           9          10    +135.187
tors           8           9          10          11    -177.246
tors           9          10          11          12    +111.384
tors          11          12          13          14     -87.317
ENDCONSTRAINT
$end

$rem
JOBTYPE                   OPT
METHOD                    B3LYP
DFT_D                     d3_op
BASIS                     STO-3G
GEOM_OPT_MAX_CYCLES       100
GEOM_OPT_TOL_GRADIENT     300
GEOM_OPT_TOL_DISPLACEMENT 1200
GEOM_OPT_TOL_ENERGY       100
SYMMETRY                  False
THRESH                    12
SCF_CONVERGENCE           8
MAX_SUB_FILE_NUM          128
MEM_STATIC                400
MEM_TOTAL                 4000
$end
--------------------------------------------------------------

   15   -1510.1440848524      8.92E-09 Convergence criterion met
 Total energy in the final basis set = -1510.14408485
   14   -1510.2159301315      2.91E-09 Convergence criterion met
 Total energy in the final basis set = -1510.21593013
   14   -1510.2390762055      7.43E-09 Convergence criterion met
 Total energy in the final basis set = -1510.23907621
   14   -1510.2748951246      3.74E-09 Convergence criterion met
 Total energy in the final basis set = -1510.27489512
   13   -1510.2838363682      9.35E-09 Convergence criterion met
 Total energy in the final basis set = -1510.28383637
   13   -1510.2893577812      3.73E-09 Convergence criterion met
 Total energy in the final basis set = -1510.28935778
   13   -1510.2923860474      3.90E-09 Convergence criterion met
 Total energy in the final basis set = -1510.29238605
   13   -1510.2934895913      3.38E-09 Convergence criterion met
   12   -1510.2947950146      5.12E-09 Convergence criterion met
 Total energy in the final basis set = -1510.29479501
   11   -1510.2948309188      9.72E-09 Convergence criterion met
 Total energy in the final basis set = -1510.29483092
   11   -1510.2948559858      5.59E-09 Convergence criterion met
 Total energy in the final basis set = -1510.29485599
    9   -1510.2948738670      8.71E-09 Convergence criterion met
 Total energy in the final basis set = -1510.29487387
   10   -1510.2948921393      7.93E-09 Convergence criterion met
 Total energy in the final basis set = -1510.29489214
    9   -1510.2948966885      7.56E-09 Convergence criterion met
 Total energy in the final basis set = -1510.29489669

             Standard Nuclear Orientation (Angstroms)
    I     Atom           X                Y                Z
 ----------------------------------------------------------------
    1      O      -2.2797309068    -1.7127194247     1.2050815956
    2      C      -3.1039623715    -1.1394560166     0.4597399391
    3      C      -2.9293875055    -0.7983303984    -1.0663155334
    4      C      -2.3520536380     0.6596939352    -1.3352518250
    5      C      -2.1756452544     1.4936203685    -0.0174701040
    6      O      -1.2163917854     2.5408380634    -0.2070746845
    7      C      -1.1401078622     3.3624512879     1.0314207280
    8      C       0.0457722696     2.8452752072     1.9320037494
    9      O       0.1524568469     1.3912028931     1.6762215610
   10      C       1.5246639143     1.0140501550     1.4991199843
   11      C       1.5409412193    -0.5076224483     1.1664847236
   12      C       1.9944037608    -0.7632510175    -0.3406278169
   13      C       2.4598079871     0.5614433563    -1.0378842101
   14      O       1.7298172796     1.3863941244    -1.6440813093
   15      O      -4.4655510854    -0.8634642971     0.8175227582
   16      O       3.8660284101     0.7356301503    -0.8895550908
   17      O       2.4834627762     1.8155546023     1.5618602756
   18      C       4.2795387196     2.0380530885    -1.4610860036
   19      C       2.6181410760    -1.3641580941     1.9575774791
   20      C       2.1749572336    -2.8761575659     1.8439593571
   21      C       2.5255168160    -3.1766413661     0.3394590951
   22      C       3.1624254929    -1.8016542361    -0.1145243929
   23      O       3.8309205785    -1.3010647697     1.1124534759
   24      H       0.5172340000    -0.8938116963     1.3227440803
   25      H       1.1215520967    -1.1493896793    -0.9132312074
   26      H       2.8394366323    -1.0068009695     2.9818968693
   27      H       2.7676241443    -3.5026592314     2.5296941695
   28      H       1.1052023262    -3.0140468036     2.0685127966
   29      H       3.2592208673    -3.9933245780     0.2490697531
   30      H       1.6352058221    -3.4317805718    -0.2573105639
   31      H       3.8894363603    -1.8719125786    -0.9461091270
   32      O      -2.7763277196     1.2909712983     1.0628884455
   33      C      -4.6645932955    -1.1190030502     2.2606893901
   34      C      -1.8316379359    -1.7043578951    -1.7464777254
   35      C      -1.9362490147    -1.5510680456    -3.3150704305
   36      C      -1.2879627061    -0.1309465207    -3.5294630433
   37      C      -0.9691565476     0.2968301993    -2.0442964115
   38      O      -0.5878718757    -0.9873849807    -1.4119301443
   39      H      -3.9173938699    -0.9154168419    -1.5465052384
   40      H      -3.0078200647     1.2299074854    -2.0186263949
   41      H      -4.0555375867    -0.4253767485     2.8758427612
   42      H      -1.7969824869    -2.7441120910    -1.3673240195
   43      H      -1.3583928433    -2.3415805387    -3.8197401921
   44      H      -2.9800461491    -1.5992514273    -3.6643580741
   45      H      -0.3568448744    -0.1991822123    -4.1143657253
   46      H      -1.9675432562     0.5758947393    -4.0313150850
   47      H      -0.1180509243     1.0090111307    -1.9057747940
   48      H      -4.3999290510    -2.1612577233     2.5338074491
   49      H      -5.7379788649    -0.9440768644     2.4595103692
   50      H       5.3742681746     2.0967760285    -1.3202228814
   51      H       3.7903353189     2.8804145488    -0.9309704042
   52      H       4.0363744885     2.1076917344    -2.5411133486
   53      H       1.0148274352     3.3220608546     1.6704397539
   54      H      -0.1726154415     3.0256144560     3.0062208536
   55      H      -2.0984888350     3.2817817155     1.5848509424
   56      H      -0.9648960222     4.4094466009     0.7121966492
 ----------------------------------------------------------------

    9   -1510.2948972184      7.24E-09 Convergence criterion met
 Total energy in the final basis set = -1510.29489722
 Final energy is   -1510.29489721836
 **  OPTIMIZATION CONVERGED  **

                    Orbital Energies (a.u.)
 --------------------------------------------------------------

 Alpha MOs
 -- Occupied --
-18.938 -18.932 -18.929 -18.920 -18.891 -18.879 -18.875 -18.870
-18.867 -18.859 -10.102 -10.093 -10.092 -10.090 -10.071 -10.065
-10.061 -10.057 -10.053 -10.049 -10.046 -10.045 -10.037 -10.032
-10.023 -10.019 -10.016 -10.011 -10.009 -10.008  -1.019  -1.008
 -1.003  -0.997  -0.973  -0.957  -0.940  -0.929  -0.928  -0.923
 -0.761  -0.751  -0.723  -0.715  -0.707  -0.699  -0.689  -0.654
 -0.653  -0.613  -0.591  -0.571  -0.543  -0.538  -0.534  -0.526
 -0.506  -0.502  -0.483  -0.474  -0.458  -0.454  -0.450  -0.433
 -0.429  -0.422  -0.419  -0.408  -0.406  -0.404  -0.400  -0.400
 -0.392  -0.376  -0.372  -0.362  -0.353  -0.352  -0.350  -0.349
 -0.344  -0.334  -0.333  -0.325  -0.322  -0.320  -0.313  -0.311
 -0.301  -0.297  -0.296  -0.294  -0.289  -0.276  -0.273  -0.269
 -0.268  -0.251  -0.246  -0.243  -0.242  -0.231  -0.214  -0.179
 -0.172  -0.171  -0.166  -0.157  -0.152  -0.148  -0.143  -0.141
 -0.131

          Ground-State Mulliken Net Atomic Charges

     Atom                 Charge (a.u.)
  ----------------------------------------
      1 O                    -0.222357
      2 C                     0.214395
      3 C                    -0.080038
      4 C                    -0.078461
      5 C                     0.217086
      6 O                    -0.164019
      7 C                    -0.051955
      8 C                    -0.055427
      9 O                    -0.169958
     10 C                     0.207889
     11 C                    -0.081575
     12 C                    -0.095641
     13 C                     0.209583
     14 O                    -0.224602
     15 O                    -0.170804
     16 O                    -0.158156
     17 O                    -0.216248
     18 C                    -0.126121
     19 C                     0.025303
     20 C                    -0.142899
     21 C                    -0.144057
     22 C                     0.024122
     23 O                    -0.187099
     24 H                     0.097585
     25 H                     0.117523
     26 H                     0.081383
     27 H                     0.074739
     28 H                     0.077984
     29 H                     0.074152
     30 H                     0.074728
     31 H                     0.082568
     32 O                    -0.211545
     33 C                    -0.127655
     34 C                     0.027386
     35 C                    -0.144925
     36 C                    -0.144524
     37 C                     0.012146
     38 O                    -0.196998
     39 H                     0.084041
     40 H                     0.085924
     41 H                     0.091901
     42 H                     0.084950
     43 H                     0.076384
     44 H                     0.073470
     45 H                     0.077372
     46 H                     0.072705
     47 H                     0.117723
     48 H                     0.085810
     49 H                     0.086364
     50 H                     0.091721
     51 H                     0.092154
     52 H                     0.086521
     53 H                     0.098966
     54 H                     0.084213
     55 H                     0.097491
     56 H                     0.088784
  ----------------------------------------
  Sum of atomic charges =    -0.000000

                    Cartesian Multipole Moments
 -----------------------------------------------------------------
    Charge (ESU x 10^10)
                -0.0000
    Dipole Moment (Debye)
         X      -2.1102      Y       0.4444      Z      -1.4010
       Tot       2.5716
    Quadrupole Moments (Debye-Ang)
        XX    -162.6004     XY       0.3860     YY    -149.5494
        XZ      -3.1980     YZ       3.2434     ZZ    -151.5992

 Total job time:  59.81s(wall), 2847.73s(cpu)
        *  Thank you very much for using Q-Chem.  Have a nice day.  *
