 Q-Chem 5.0, Q-Chem, Inc., Pleasanton, CA (2017)
 Q-Chem 5.0.1 for Intel X86 EM64T Linux

User input:
--------------------------------------------------------------
$molecule
0  1
O -2.2797309068 -1.7127194247 1.2050815956
C -3.1039623715 -1.1394560166 0.4597399391
C -2.9293875055 -0.7983303984 -1.0663155334
C -2.352053638 0.6596939352 -1.335251825
C -2.1756452544 1.4936203685 -0.017470104
O -1.2163917854 2.5408380634 -0.2070746845
C -1.1401078622 3.3624512879 1.031420728
C 0.0457722696 2.8452752072 1.9320037494
O 0.1524568469 1.3912028931 1.676221561
C 1.5246639143 1.014050155 1.4991199843
C 1.5409412193 -0.5076224483 1.1664847236
C 1.9944037608 -0.7632510175 -0.3406278169
C 2.4598079871 0.5614433563 -1.0378842101
O 1.7298172796 1.3863941244 -1.6440813093
O -4.4655510854 -0.8634642971 0.8175227582
O 3.8660284101 0.7356301503 -0.8895550908
O 2.4834627762 1.8155546023 1.5618602756
C 4.2795387196 2.0380530885 -1.4610860036
C 2.618141076 -1.3641580941 1.9575774791
C 2.1749572336 -2.8761575659 1.8439593571
C 2.525516816 -3.1766413661 0.3394590951
C 3.1624254929 -1.8016542361 -0.1145243929
O 3.8309205785 -1.3010647697 1.1124534759
H 0.517234 -0.8938116963 1.3227440803
H 1.1215520967 -1.1493896793 -0.9132312074
H 2.8394366323 -1.0068009695 2.9818968693
H 2.7676241443 -3.5026592314 2.5296941695
H 1.1052023262 -3.0140468036 2.0685127966
H 3.2592208673 -3.993324578 0.2490697531
H 1.6352058221 -3.4317805718 -0.2573105639
H 3.8894363603 -1.8719125786 -0.946109127
O -2.7763277196 1.2909712983 1.0628884455
C -4.6645932955 -1.1190030502 2.2606893901
C -1.8316379359 -1.7043578951 -1.7464777254
C -1.9362490147 -1.5510680456 -3.3150704305
C -1.2879627061 -0.1309465207 -3.5294630433
C -0.9691565476 0.2968301993 -2.0442964115
O -0.5878718757 -0.9873849807 -1.4119301443
H -3.9173938699 -0.9154168419 -1.5465052384
H -3.0078200647 1.2299074854 -2.0186263949
H -4.0555375867 -0.4253767485 2.8758427612
H -1.7969824869 -2.744112091 -1.3673240195
H -1.3583928433 -2.3415805387 -3.8197401921
H -2.9800461491 -1.5992514273 -3.6643580741
H -0.3568448744 -0.1991822123 -4.1143657253
H -1.9675432562 0.5758947393 -4.031315085
H -0.1180509243 1.0090111307 -1.905774794
H -4.399929051 -2.1612577233 2.5338074491
H -5.7379788649 -0.9440768644 2.4595103692
H 5.3742681746 2.0967760285 -1.3202228814
H 3.7903353189 2.8804145488 -0.9309704042
H 4.0363744885 2.1076917344 -2.5411133486
H 1.0148274352 3.3220608546 1.6704397539
H -0.1726154415 3.025614456 3.0062208536
H -2.098488835 3.2817817155 1.5848509424
H -0.9648960222 4.4094466009 0.7121966492
$end

$rem
JOBTYPE                   OPT
METHOD                    B3LYP
DFT_D                     d3_op
BASIS                     STO-3G
GEOM_OPT_MAX_CYCLES       100
GEOM_OPT_TOL_GRADIENT     300
GEOM_OPT_TOL_DISPLACEMENT 1200
GEOM_OPT_TOL_ENERGY       100
SYMMETRY                  False
THRESH                    12
SCF_CONVERGENCE           8
MAX_SUB_FILE_NUM          128
MEM_STATIC                400
MEM_TOTAL                 4000
$end
--------------------------------------------------------------

   16   -1510.2946877103      7.21E-09 Convergence criterion met
 Total energy in the final basis set = -1510.29468771
   14   -1510.2899352736      7.17E-09 Convergence criterion met
 Total energy in the final basis set = -1510.28993527
   14   -1510.2957121497      5.78E-09 Convergence criterion met
 Total energy in the final basis set = -1510.29571215
   16   -1510.0261592043      7.25E-09 Convergence criterion met
 Total energy in the final basis set = -1510.02615920
   16   -1510.2905785137      3.38E-09 Convergence criterion met
 Total energy in the final basis set = -1510.29057851
   14   -1510.2944239562      3.93E-09 Convergence criterion met
 Total energy in the final basis set = -1510.29442396
   14   -1510.2947424151      1.54E-09 Convergence criterion met
 Total energy in the final basis set = -1510.29474242
   15   -1510.2914263654      4.16E-09 Convergence criterion met
   11   -1510.3055444634      4.01E-09 Convergence criterion met
 Total energy in the final basis set = -1510.30554446
   10   -1510.3055469187      9.16E-09 Convergence criterion met
 Total energy in the final basis set = -1510.30554692
    9   -1510.3055468391      5.32E-09 Convergence criterion met
 Total energy in the final basis set = -1510.30554684
    9   -1510.3055474843      3.07E-09 Convergence criterion met
 Total energy in the final basis set = -1510.30554748
   11   -1510.3055493902      4.85E-09 Convergence criterion met
 Total energy in the final basis set = -1510.30554939
    9   -1510.3055511904      6.01E-09 Convergence criterion met
 Total energy in the final basis set = -1510.30555119

             Standard Nuclear Orientation (Angstroms)
    I     Atom           X                Y                Z
 ----------------------------------------------------------------
    1      O      -1.5974732076    -1.2630991565     1.3807630381
    2      C      -2.6569918043    -1.0034455667     0.7597940541
    3      C      -2.8385206882    -0.8227166600    -0.7933878664
    4      C      -2.1029304698     0.4692049282    -1.3407042696
    5      C      -1.8455559461     1.4953302131    -0.1851192325
    6      O      -1.0771352868     2.6104784321    -0.6429469280
    7      C      -1.0300879198     3.6555399300     0.4149366607
    8      C       0.1908048514     3.4373685342     1.3918069233
    9      O       0.2810725828     2.0004426079     1.7368779035
   10      C       1.2619481613     1.3759898395     0.8958753334
   11      C       1.1274951129    -0.1692996882     0.9814635815
   12      C       1.8603988922    -0.8907909124    -0.2233920359
   13      C       2.4781830041     0.1075666942    -1.2647527135
   14      O       1.8620764498     0.6729020997    -2.2072631898
   15      O      -3.9477373656    -0.9733760525     1.3725144012
   16      O       3.8896324501     0.2088747387    -1.0904101737
   17      O       2.0819765548     2.0208749042     0.1993645407
   18      C       4.4429263397     1.1975389599    -2.0429197436
   19      C       1.9099838086    -0.7893572857     2.2183541287
   20      C       1.4009996835    -2.2753472906     2.3898933203
   21      C       2.1466346421    -2.9886235131     1.2017441646
   22      C       2.9211111818    -1.7734956779     0.5522346617
   23      O       3.2949987084    -0.9390025259     1.7194385600
   24      H       0.0510237899    -0.4591175199     1.0267440098
   25      H       1.1037615111    -1.4991500352    -0.7609871367
   26      H       1.8879260948    -0.1719147384     3.1373103728
   27      H       1.7082218378    -2.6830666371     3.3660902431
   28      H       0.3037946582    -2.3341294745     2.2993240667
   29      H       2.8547131227    -3.7503242599     1.5657914558
   30      H       1.4515982075    -3.4596712317     0.4884678457
   31      H       3.8201518143    -2.0405957351    -0.0350412183
   32      O      -2.3471270061     1.4143931767     0.9619328284
   33      C      -3.8089362718    -1.1079412128     2.8409158045
   34      C      -2.0382128335    -1.9564641301    -1.5560225493
   35      C      -2.3324008981    -1.8622910951    -3.1061429553
   36      C      -1.4252529459    -0.6410420850    -3.5191198274
   37      C      -0.8666189348    -0.1782141490    -2.1170341165
   38      O      -0.6478514307    -1.4752089981    -1.4330674606
   39      H      -3.9174257254    -0.8185228821    -1.0258031675
   40      H      -2.7491185672     0.9920230017    -2.0706345652
   41      H      -3.2268824906    -0.2646126844     3.2652066363
   42      H      -2.1426632263    -2.9669548166    -1.1152353576
   43      H      -2.0243670042    -2.7898814258    -3.6139257722
   44      H      -3.4008194786    -1.6865173772    -3.3110306308
   45      H      -0.5951259557    -0.9622262326    -4.1684211530
   46      H      -1.9883008325     0.1541540011    -4.0329507352
   47      H       0.1115446449     0.3788874541    -2.1440057488
   48      H      -3.3100294795    -2.0587742509     3.1188506073
   49      H      -4.8366069468    -1.0940303385     3.2480093379
   50      H       5.5381417605     1.1856605457    -1.8935573934
   51      H       4.0478516915     2.2126044056    -1.8336291054
   52      H       4.2039036878     0.9330984158    -3.0932127707
   53      H       1.1380944059     3.7459364087     0.9002394555
   54      H       0.0326622166     4.0086030432     2.3286317693
   55      H      -1.9772953595     3.6398218961     0.9931309580
   56      H      -0.9224432058     4.6238352999    -0.1144619666
 ----------------------------------------------------------------

    9   -1510.3055510558      3.79E-09 Convergence criterion met
 Total energy in the final basis set = -1510.30555106
 Final energy is   -1510.30555105575
 **  OPTIMIZATION CONVERGED  **

                    Orbital Energies (a.u.)
 --------------------------------------------------------------

 Alpha MOs
 -- Occupied --
-18.945 -18.933 -18.931 -18.925 -18.887 -18.885 -18.875 -18.869
-18.868 -18.857 -10.107 -10.100 -10.094 -10.089 -10.076 -10.069
-10.061 -10.060 -10.052 -10.043 -10.041 -10.038 -10.037 -10.035
-10.018 -10.012 -10.009 -10.007 -10.002  -9.999  -1.024  -1.009
 -1.005  -0.997  -0.970  -0.952  -0.944  -0.934  -0.931  -0.921
 -0.762  -0.745  -0.722  -0.715  -0.702  -0.697  -0.686  -0.660
 -0.648  -0.615  -0.591  -0.569  -0.543  -0.535  -0.530  -0.520
 -0.508  -0.499  -0.486  -0.474  -0.459  -0.454  -0.448  -0.433
 -0.430  -0.422  -0.414  -0.413  -0.409  -0.405  -0.399  -0.399
 -0.392  -0.379  -0.368  -0.364  -0.359  -0.355  -0.351  -0.347
 -0.343  -0.340  -0.327  -0.322  -0.317  -0.315  -0.311  -0.308
 -0.299  -0.296  -0.294  -0.288  -0.285  -0.278  -0.273  -0.265
 -0.264  -0.255  -0.249  -0.245  -0.236  -0.228  -0.212  -0.195
 -0.174  -0.168  -0.163  -0.160  -0.154  -0.148  -0.143  -0.138
 -0.126

          Ground-State Mulliken Net Atomic Charges

     Atom                 Charge (a.u.)
  ----------------------------------------
      1 O                    -0.225862
      2 C                     0.222684
      3 C                    -0.079986
      4 C                    -0.081575
      5 C                     0.212207
      6 O                    -0.165417
      7 C                    -0.051642
      8 C                    -0.055806
      9 O                    -0.170517
     10 C                     0.209725
     11 C                    -0.094332
     12 C                    -0.095644
     13 C                     0.221259
     14 O                    -0.230259
     15 O                    -0.167206
     16 O                    -0.163545
     17 O                    -0.212793
     18 C                    -0.126267
     19 C                     0.025443
     20 C                    -0.146402
     21 C                    -0.143505
     22 C                     0.023970
     23 O                    -0.193030
     24 H                     0.114127
     25 H                     0.109998
     26 H                     0.078882
     27 H                     0.071090
     28 H                     0.086473
     29 H                     0.072180
     30 H                     0.073652
     31 H                     0.083772
     32 O                    -0.207888
     33 C                    -0.127725
     34 C                     0.026924
     35 C                    -0.145494
     36 C                    -0.143046
     37 C                     0.004907
     38 O                    -0.197410
     39 H                     0.085925
     40 H                     0.085710
     41 H                     0.094588
     42 H                     0.081233
     43 H                     0.076682
     44 H                     0.072322
     45 H                     0.077812
     46 H                     0.071483
     47 H                     0.120699
     48 H                     0.087593
     49 H                     0.088931
     50 H                     0.088248
     51 H                     0.093253
     52 H                     0.086929
     53 H                     0.101811
     54 H                     0.088729
     55 H                     0.095008
     56 H                     0.091098
  ----------------------------------------
  Sum of atomic charges =    -0.000000

                    Cartesian Multipole Moments
 -----------------------------------------------------------------
    Charge (ESU x 10^10)
                -0.0000
    Dipole Moment (Debye)
         X      -2.7732      Y       0.5570      Z      -0.7064
       Tot       2.9155
    Quadrupole Moments (Debye-Ang)
        XX    -158.6388     XY       1.1206     YY    -147.1539
        XZ      -3.0923     YZ       2.7830     ZZ    -155.1749

 Total job time:  119.08s(wall), 5683.17s(cpu)
        *  Thank you very much for using Q-Chem.  Have a nice day.  *
