 Q-Chem 5.0, Q-Chem, Inc., Pleasanton, CA (2017)
 Q-Chem 5.0.1 for Intel X86 EM64T Linux

User input:
--------------------------------------------------------------
$molecule
0  1
O -3.2104415361 -0.9072261708 1.8313663873
C -3.6600996693 -0.7293852854 0.6791387041
C -3.0208748585 -1.1979664254 -0.6790304455
C -2.2232823021 -0.0691099651 -1.4575901098
C -2.1528420555 1.2769708742 -0.6539875578
O -1.0991444391 2.0815833251 -1.1822088328
C -1.0335907067 3.389938413 -0.4856397317
C 0.1275822953 3.3784006257 0.5843752268
O 0.3258405447 1.9732461202 1.0077676121
C 1.7054739616 1.5944074431 0.9569486529
C 1.7557927111 0.070201764 1.2963165192
C 2.1428061215 -0.8295111818 0.0416429499
C 2.528633197 0.0485953682 -1.1949583306
O 1.7390768568 0.5129553342 -2.0583007034
O -4.9676373229 -0.2115869131 0.3876313605
O 3.9293162333 0.2889375375 -1.2192584336
O 2.6365049225 2.3666267041 0.6384447967
C 4.2698247903 1.2096398847 -2.329666916
C 2.8960891842 -0.3392398037 2.3250096352
C 2.5071885655 -1.7497826264 2.9196339929
C 2.7970285458 -2.683374453 1.6860035079
C 3.360564498 -1.6445255741 0.6351186579
O 4.0649143525 -0.6417654304 1.4701279923
H 0.7537716623 -0.2159163806 1.6623908277
H 1.2604353836 -1.4524418135 -0.220771047
H 3.1512175649 0.4391847278 3.0698196374
H 3.1548587469 -1.9981067734 3.775708228
H 1.4557480123 -1.78886639 3.2465503236
H 3.5559691696 -3.4454859079 1.9235934286
H 1.8895333544 -3.1870115543 1.3168228101
H 4.0480296182 -2.06566278 -0.1231431161
O -2.8846543964 1.6191811134 0.3029550985
C -5.5923611914 0.2932616832 1.629228044
C -1.8820009609 -2.282905283 -0.4673896173
C -1.6748984685 -3.0440526263 -1.8331290266
C -0.9569492429 -1.9313242966 -2.6839210485
C -0.8103756147 -0.7591451333 -1.6328556747
O -0.6468781733 -1.4742749444 -0.3433993898
H -3.8374612052 -1.5895712209 -1.3110023347
H -2.6885278023 0.144623465 -2.4379490412
H -5.0348473868 1.1644981699 2.0302898375
H -2.0199389972 -2.9202400361 0.4276705311
H -1.029024897 -3.9253808086 -1.6903673604
H -2.6284755647 -3.3732605247 -2.2754145705
H 0.0357119262 -2.2626960109 -3.0284473671
H -1.5474455524 -1.6242429169 -3.5615930893
H 0.0656048265 -0.081378531 -1.8123026502
H -5.6372265759 -0.4895183259 2.4140932121
H -6.6174248592 0.6040838078 1.3551070772
H 5.3655901507 1.3461527756 -2.2826110123
H 3.7656863554 2.1893606674 -2.2051175517
H 3.9862665209 0.7847116983 -3.3142731909
H 1.0850224772 3.7565306214 0.1650223493
H -0.1540804353 3.9941998698 1.4647488022
H -2.0068694683 3.5794078798 0.0140926333
H -0.8419203258 4.1621782328 -1.2578597114
$end

$rem
JOBTYPE                   OPT
METHOD                    B3LYP
DFT_D                     d3_op
BASIS                     STO-3G
GEOM_OPT_MAX_CYCLES       100
GEOM_OPT_TOL_GRADIENT     300
GEOM_OPT_TOL_DISPLACEMENT 1200
GEOM_OPT_TOL_ENERGY       100
SYMMETRY                  False
THRESH                    12
SCF_CONVERGENCE           8
MAX_SUB_FILE_NUM          128
MEM_STATIC                400
MEM_TOTAL                 4000
$end
--------------------------------------------------------------

   16   -1510.2959078184      6.63E-09 Convergence criterion met
 Total energy in the final basis set = -1510.29590782
   14   -1510.2444089020      5.97E-09 Convergence criterion met
 Total energy in the final basis set = -1510.24440890
   14   -1510.2937206375      6.85E-09 Convergence criterion met
 Total energy in the final basis set = -1510.29372064
   14   -1510.2833393081      6.18E-09 Convergence criterion met
 Total energy in the final basis set = -1510.28333931
   14   -1510.2963696687      4.29E-09 Convergence criterion met
 Total energy in the final basis set = -1510.29636967
   15   -1510.2952428249      3.32E-09 Convergence criterion met
 Total energy in the final basis set = -1510.29524282
   14   -1510.2951792987      5.40E-09 Convergence criterion met
 Total energy in the final basis set = -1510.29517930
   14   -1510.2976694914      6.83E-09 Convergence criterion met
   12   -1510.3055860696      2.96E-09 Convergence criterion met
 Total energy in the final basis set = -1510.30558607
   11   -1510.3056110607      6.94E-09 Convergence criterion met
 Total energy in the final basis set = -1510.30561106
   11   -1510.3055992626      5.32E-09 Convergence criterion met
 Total energy in the final basis set = -1510.30559926
    9   -1510.3055995662      9.71E-09 Convergence criterion met
 Total energy in the final basis set = -1510.30559957
    9   -1510.3055994123      5.56E-09 Convergence criterion met
 Total energy in the final basis set = -1510.30559941
    9   -1510.3056000718      2.83E-09 Convergence criterion met
 Total energy in the final basis set = -1510.30560007

             Standard Nuclear Orientation (Angstroms)
    I     Atom           X                Y                Z
 ----------------------------------------------------------------
    1      O      -1.5929274075    -1.0385390254     1.5167787849
    2      C      -2.6335214917    -0.9140867372     0.8262092489
    3      C      -2.7624102889    -1.0369872166    -0.7384436928
    4      C      -2.0322640508     0.1442412295    -1.5022584018
    5      C      -1.8397429017     1.3786308482    -0.5564353736
    6      O      -1.1115840768     2.4219859221    -1.2067724772
    7      C      -1.1164549933     3.6438663768    -0.3573190802
    8      C       0.1010964617     3.6581387167     0.6456972168
    9      O       0.2082631975     2.3284000274     1.2873831604
   10      C       1.2433686891     1.5726250742     0.6412337575
   11      C       1.1199672311     0.0738350414     1.0317946304
   12      C       1.8867945464    -0.8702473667     0.0160573310
   13      C       2.5500915113    -0.0935831625    -1.1743527617
   14      O       1.9715996353     0.2669598250    -2.2340757959
   15      O      -3.9449503112    -0.7945456495     1.3824682274
   16      O       3.9501366967     0.0666388734    -0.9606088001
   17      O       2.0852926490     2.0828568702    -0.1357912628
   18      C       4.5372419397     0.8599133572    -2.0641996970
   19      C       1.8596134068    -0.2901428810     2.3923465673
   20      C       1.3218081860    -1.7068978603     2.8384886275
   21      C       2.0899971651    -2.6477483019     1.8384526419
   22      C       2.9051151103    -1.5938034936     0.9871502982
   23      O       3.2556225138    -0.5478881207     1.9782622999
   24      H       0.0445114044    -0.2119646590     1.0964288784
   25      H       1.1389756552    -1.5633916191    -0.4232665939
   26      H       1.8195252570     0.4988166964     3.1685719834
   27      H       1.5920622443    -1.9167635209     3.8855467424
   28      H       0.2271273664    -1.7709114295     2.7223066040
   29      H       2.7756577234    -3.3286724308     2.3677797294
   30      H       1.4087428173    -3.2443996506     1.2115204697
   31      H       3.8184601791    -1.9816948351     0.4971103200
   32      O      -2.3600052036     1.4905446200     0.5798810070
   33      C      -3.8520263559    -0.6488238157     2.8533103788
   34      C      -1.9117342102    -2.2751898804    -1.2372448042
   35      C      -2.1484559527    -2.4915338316    -2.7841841904
   36      C      -1.2450635980    -1.3558625700    -3.3970372004
   37      C      -0.7540010487    -0.6094200017    -2.0954407385
   38      O      -0.5369913537    -1.7406888698    -1.1637268231
   39      H      -3.8320237590    -1.1062444055    -1.0023202233
   40      H      -2.6603317778     0.4979254786    -2.3411856514
   41      H      -3.3060707864     0.2766862145     3.1281707964
   42      H      -2.0113705103    -3.1825660034    -0.6103059526
   43      H      -1.8100562474    -3.4937210762    -3.0917285828
   44      H      -3.2108825700    -2.3813100663    -3.0550460481
   45      H      -0.3808912982    -1.7800543082    -3.9332049132
   46      H      -1.7956293937    -0.6950340075    -4.0851258982
   47      H       0.2140178939    -0.0431504626    -2.1967774154
   48      H      -3.3379929367    -1.5149770102     3.3180331875
   49      H      -4.8926113473    -0.5915335665     3.2219635401
   50      H       5.6172363212     0.9385330197    -1.8419679081
   51      H       4.0887908180     1.8733725303    -2.1063018412
   52      H       4.3922426185     0.3658349878    -3.0467521646
   53      H       1.0485929744     3.8691181542     0.1048898964
   54      H      -0.0729051552     4.4149379757     1.4370875253
   55      H      -2.0679014914     3.6948556583     0.2121221254
   56      H      -1.0422092492     4.5032706059    -1.0539613164
 ----------------------------------------------------------------

    8   -1510.3056001559      8.91E-09 Convergence criterion met
 Total energy in the final basis set = -1510.30560016
 Final energy is   -1510.30560015586
 **  OPTIMIZATION CONVERGED  **

                    Orbital Energies (a.u.)
 --------------------------------------------------------------

 Alpha MOs
 -- Occupied --
-18.946 -18.932 -18.930 -18.925 -18.889 -18.886 -18.875 -18.869
-18.867 -18.857 -10.107 -10.100 -10.094 -10.089 -10.076 -10.069
-10.062 -10.060 -10.052 -10.042 -10.040 -10.039 -10.038 -10.036
-10.018 -10.013 -10.009 -10.005 -10.002  -9.998  -1.024  -1.009
 -1.005  -0.997  -0.971  -0.952  -0.945  -0.934  -0.930  -0.921
 -0.762  -0.745  -0.722  -0.715  -0.702  -0.697  -0.685  -0.660
 -0.648  -0.616  -0.591  -0.569  -0.544  -0.536  -0.530  -0.520
 -0.508  -0.499  -0.486  -0.474  -0.459  -0.453  -0.448  -0.433
 -0.430  -0.422  -0.414  -0.413  -0.408  -0.405  -0.399  -0.399
 -0.392  -0.379  -0.367  -0.365  -0.359  -0.355  -0.351  -0.347
 -0.343  -0.340  -0.327  -0.323  -0.318  -0.314  -0.312  -0.307
 -0.300  -0.297  -0.294  -0.288  -0.285  -0.278  -0.274  -0.265
 -0.264  -0.255  -0.249  -0.244  -0.235  -0.227  -0.212  -0.195
 -0.174  -0.168  -0.163  -0.160  -0.154  -0.149  -0.143  -0.138
 -0.126

          Ground-State Mulliken Net Atomic Charges

     Atom                 Charge (a.u.)
  ----------------------------------------
      1 O                    -0.226837
      2 C                     0.222709
      3 C                    -0.079956
      4 C                    -0.081620
      5 C                     0.212447
      6 O                    -0.165395
      7 C                    -0.051569
      8 C                    -0.056111
      9 O                    -0.171047
     10 C                     0.209326
     11 C                    -0.093843
     12 C                    -0.097347
     13 C                     0.220477
     14 O                    -0.230521
     15 O                    -0.167643
     16 O                    -0.162995
     17 O                    -0.213042
     18 C                    -0.126162
     19 C                     0.025653
     20 C                    -0.147129
     21 C                    -0.143545
     22 C                     0.024078
     23 O                    -0.192931
     24 H                     0.112595
     25 H                     0.111788
     26 H                     0.078585
     27 H                     0.070654
     28 H                     0.087820
     29 H                     0.071941
     30 H                     0.073887
     31 H                     0.083133
     32 O                    -0.207092
     33 C                    -0.127752
     34 C                     0.027247
     35 C                    -0.145469
     36 C                    -0.143034
     37 C                     0.005962
     38 O                    -0.196803
     39 H                     0.085864
     40 H                     0.085922
     41 H                     0.094270
     42 H                     0.081758
     43 H                     0.076848
     44 H                     0.072542
     45 H                     0.078144
     46 H                     0.071838
     47 H                     0.120379
     48 H                     0.087681
     49 H                     0.088772
     50 H                     0.088453
     51 H                     0.093834
     52 H                     0.086106
     53 H                     0.102236
     54 H                     0.088383
     55 H                     0.095408
     56 H                     0.091099
  ----------------------------------------
  Sum of atomic charges =    -0.000000

                    Cartesian Multipole Moments
 -----------------------------------------------------------------
    Charge (ESU x 10^10)
                -0.0000
    Dipole Moment (Debye)
         X      -2.8345      Y       0.3756      Z      -0.9567
       Tot       3.0150
    Quadrupole Moments (Debye-Ang)
        XX    -158.7104     XY       0.2609     YY    -146.3785
        XZ      -3.2854     YZ       1.1346     ZZ    -156.1682

 Total job time:  143.85s(wall), 6868.95s(cpu)
        *  Thank you very much for using Q-Chem.  Have a nice day.  *
