 Q-Chem 5.0, Q-Chem, Inc., Pleasanton, CA (2017)
 Q-Chem 5.0.1 for Intel X86 EM64T Linux

User input:
--------------------------------------------------------------
$molecule
0  1
O -3.94934 -3.66094 2.70899
C -3.26408 -4.56952 2.26188
C -3.36658 -6.02376 2.66595
C -2.33773 -6.54466 3.6828
C -1.43278 -5.51128 4.31626
O -0.87465 -6.01879 5.45483
C 0.03899 -5.11494 6.08536
C -0.63451 -4.42673 7.2681
O -2.05409 -4.36934 7.05743
C -2.8153 -4.79884 8.09437
C -4.28969 -4.8293 7.7689
C -4.8964 -6.23461 7.64527
C -4.05859 -7.36748 8.20327
O -3.19229 -7.9761 7.59198
O -2.2718 -4.27013 1.38199
O -4.3265 -7.78046 9.4744
O -2.37742 -5.19862 9.16736
C -3.66321 -8.80068 10.12385
C -5.1723 -4.17053 8.83664
C -6.4903 -3.72253 8.20839
C -7.14913 -5.06236 7.95851
C -6.11155 -6.00117 8.58974
O -5.57116 -5.24357 9.64606
H -4.41821 -4.28933 6.8022
H -5.33457 -6.55047 6.68828
H -4.67481 -3.3205 9.35285
H -7.06479 -3.18278 8.99503
H -6.38938 -3.07037 7.31418
H -8.1011 -5.09488 8.53391
H -7.3412 -5.30845 6.89176
H -6.60697 -6.95404 8.88158
O -1.31787 -4.34648 3.95563
C -2.00499 -3.0003 0.91446
C -4.68292 -6.2887 3.40237
C -5.06295 -7.76487 3.30782
C -4.01011 -8.37759 4.19704
C -3.31093 -7.10899 4.69551
O -4.31998 -6.13731 4.737
H -3.3928 -6.6109 1.72033
H -1.682 -7.34676 3.2775
H -1.74143 -2.3284 1.75911
H -5.5311 -5.66113 3.04948
H -6.05645 -7.88234 3.79743
H -5.10837 -8.17429 2.27578
H -4.51931 -8.89524 5.04044
H -3.30346 -9.07135 3.69227
H -2.76742 -7.31446 5.60009
H -2.88925 -2.59754 0.37576
H -1.14762 -3.04406 0.21203
H -4.08607 -8.9185 11.14251
H -2.58231 -8.55875 10.21065
H -3.79224 -9.75498 9.56991
H -0.35919 -5.0368 8.15608
H -0.20025 -3.41655 7.42846
H 0.39908 -4.31086 5.40467
H 0.9775 -5.62917 6.38377
$end

$opt
CONSTRAINT
tors           1           2           3           4     -99.562
tors           3           4           5           6    +161.684
tors           4           5           6           7    +177.675
tors           5           6           7           8    +100.871
tors           6           7           8           9     -26.819
tors           7           8           9          10    +130.512
tors           8           9          10          11    -174.917
tors           9          10          11          12    +110.012
tors          11          12          13          14     -87.113
ENDCONSTRAINT
$end

$rem
JOBTYPE                   OPT
METHOD                    B3LYP
DFT_D                     d3_op
BASIS                     STO-3G
GEOM_OPT_MAX_CYCLES       100
GEOM_OPT_TOL_GRADIENT     300
GEOM_OPT_TOL_DISPLACEMENT 1200
GEOM_OPT_TOL_ENERGY       100
SYMMETRY                  False
THRESH                    12
SCF_CONVERGENCE           8
MAX_SUB_FILE_NUM          128
MEM_STATIC                400
MEM_TOTAL                 4000
$end
--------------------------------------------------------------

   16   -1510.1476251105      2.20E-09 Convergence criterion met
 Total energy in the final basis set = -1510.14762511
   13   -1510.2207895467      6.76E-09 Convergence criterion met
 Total energy in the final basis set = -1510.22078955
   14   -1510.2586357151      6.19E-09 Convergence criterion met
 Total energy in the final basis set = -1510.25863572
   15   -1510.2753357672      4.03E-09 Convergence criterion met
 Total energy in the final basis set = -1510.27533577
   14   -1510.2861635290      3.32E-09 Convergence criterion met
 Total energy in the final basis set = -1510.28616353
   13   -1510.2903283365      9.23E-09 Convergence criterion met
 Total energy in the final basis set = -1510.29032834
   13   -1510.2940972126      9.05E-09 Convergence criterion met
 Total energy in the final basis set = -1510.29409721
   13   -1510.2950370909      7.09E-09 Convergence criterion met
   10   -1510.2957156174      6.64E-09 Convergence criterion met
 Total energy in the final basis set = -1510.29571562
    9   -1510.2957189250      7.38E-09 Convergence criterion met
 Total energy in the final basis set = -1510.29571892
    9   -1510.2957218988      4.67E-09 Convergence criterion met
 Total energy in the final basis set = -1510.29572190
    9   -1510.2957236271      3.09E-09 Convergence criterion met
 Total energy in the final basis set = -1510.29572363
    9   -1510.2957248123      1.88E-09 Convergence criterion met
 Total energy in the final basis set = -1510.29572481
    9   -1510.2957258379      2.69E-09 Convergence criterion met
 Total energy in the final basis set = -1510.29572584

             Standard Nuclear Orientation (Angstroms)
    I     Atom           X                Y                Z
 ----------------------------------------------------------------
    1      O      -3.2104415361    -0.9072261708     1.8313663873
    2      C      -3.6600996693    -0.7293852854     0.6791387041
    3      C      -3.0208748585    -1.1979664254    -0.6790304455
    4      C      -2.2232823021    -0.0691099651    -1.4575901098
    5      C      -2.1528420555     1.2769708742    -0.6539875578
    6      O      -1.0991444391     2.0815833251    -1.1822088328
    7      C      -1.0335907067     3.3899384130    -0.4856397317
    8      C       0.1275822953     3.3784006257     0.5843752268
    9      O       0.3258405447     1.9732461202     1.0077676121
   10      C       1.7054739616     1.5944074431     0.9569486529
   11      C       1.7557927111     0.0702017640     1.2963165192
   12      C       2.1428061215    -0.8295111818     0.0416429499
   13      C       2.5286331970     0.0485953682    -1.1949583306
   14      O       1.7390768568     0.5129553342    -2.0583007034
   15      O      -4.9676373229    -0.2115869131     0.3876313605
   16      O       3.9293162333     0.2889375375    -1.2192584336
   17      O       2.6365049225     2.3666267041     0.6384447967
   18      C       4.2698247903     1.2096398847    -2.3296669160
   19      C       2.8960891842    -0.3392398037     2.3250096352
   20      C       2.5071885655    -1.7497826264     2.9196339929
   21      C       2.7970285458    -2.6833744530     1.6860035079
   22      C       3.3605644980    -1.6445255741     0.6351186579
   23      O       4.0649143525    -0.6417654304     1.4701279923
   24      H       0.7537716623    -0.2159163806     1.6623908277
   25      H       1.2604353836    -1.4524418135    -0.2207710470
   26      H       3.1512175649     0.4391847278     3.0698196374
   27      H       3.1548587469    -1.9981067734     3.7757082280
   28      H       1.4557480123    -1.7888663900     3.2465503236
   29      H       3.5559691696    -3.4454859079     1.9235934286
   30      H       1.8895333544    -3.1870115543     1.3168228101
   31      H       4.0480296182    -2.0656627800    -0.1231431161
   32      O      -2.8846543964     1.6191811134     0.3029550985
   33      C      -5.5923611914     0.2932616832     1.6292280440
   34      C      -1.8820009609    -2.2829052830    -0.4673896173
   35      C      -1.6748984685    -3.0440526263    -1.8331290266
   36      C      -0.9569492429    -1.9313242966    -2.6839210485
   37      C      -0.8103756147    -0.7591451333    -1.6328556747
   38      O      -0.6468781733    -1.4742749444    -0.3433993898
   39      H      -3.8374612052    -1.5895712209    -1.3110023347
   40      H      -2.6885278023     0.1446234650    -2.4379490412
   41      H      -5.0348473868     1.1644981699     2.0302898375
   42      H      -2.0199389972    -2.9202400361     0.4276705311
   43      H      -1.0290248970    -3.9253808086    -1.6903673604
   44      H      -2.6284755647    -3.3732605247    -2.2754145705
   45      H       0.0357119262    -2.2626960109    -3.0284473671
   46      H      -1.5474455524    -1.6242429169    -3.5615930893
   47      H       0.0656048265    -0.0813785310    -1.8123026502
   48      H      -5.6372265759    -0.4895183259     2.4140932121
   49      H      -6.6174248592     0.6040838078     1.3551070772
   50      H       5.3655901507     1.3461527756    -2.2826110123
   51      H       3.7656863554     2.1893606674    -2.2051175517
   52      H       3.9862665209     0.7847116983    -3.3142731909
   53      H       1.0850224772     3.7565306214     0.1650223493
   54      H      -0.1540804353     3.9941998698     1.4647488022
   55      H      -2.0068694683     3.5794078798     0.0140926333
   56      H      -0.8419203258     4.1621782328    -1.2578597114
 ----------------------------------------------------------------

    9   -1510.2957259027      1.43E-09 Convergence criterion met
 Total energy in the final basis set = -1510.29572590
 Final energy is   -1510.29572590274
 **  OPTIMIZATION CONVERGED  **

                    Orbital Energies (a.u.)
 --------------------------------------------------------------

 Alpha MOs
 -- Occupied --
-18.942 -18.938 -18.931 -18.916 -18.884 -18.880 -18.880 -18.878
-18.874 -18.856 -10.102 -10.102 -10.097 -10.086 -10.072 -10.068
-10.063 -10.055 -10.053 -10.052 -10.051 -10.036 -10.034 -10.028
-10.028 -10.023 -10.016 -10.013 -10.012 -10.012  -1.019  -1.015
 -1.006  -0.994  -0.967  -0.962  -0.942  -0.937  -0.931  -0.920
 -0.759  -0.756  -0.723  -0.716  -0.709  -0.699  -0.691  -0.659
 -0.651  -0.615  -0.592  -0.573  -0.543  -0.538  -0.533  -0.529
 -0.508  -0.504  -0.483  -0.476  -0.461  -0.452  -0.448  -0.435
 -0.426  -0.424  -0.422  -0.413  -0.411  -0.403  -0.402  -0.398
 -0.394  -0.378  -0.375  -0.361  -0.358  -0.356  -0.353  -0.350
 -0.342  -0.334  -0.329  -0.325  -0.323  -0.322  -0.314  -0.309
 -0.301  -0.300  -0.297  -0.295  -0.293  -0.277  -0.274  -0.269
 -0.267  -0.252  -0.248  -0.243  -0.240  -0.234  -0.221  -0.180
 -0.179  -0.173  -0.162  -0.158  -0.156  -0.150  -0.143  -0.138
 -0.136

          Ground-State Mulliken Net Atomic Charges

     Atom                 Charge (a.u.)
  ----------------------------------------
      1 O                    -0.220950
      2 C                     0.214430
      3 C                    -0.081675
      4 C                    -0.077307
      5 C                     0.219828
      6 O                    -0.165420
      7 C                    -0.052010
      8 C                    -0.054989
      9 O                    -0.169570
     10 C                     0.207960
     11 C                    -0.079950
     12 C                    -0.089951
     13 C                     0.212693
     14 O                    -0.218340
     15 O                    -0.174037
     16 O                    -0.155616
     17 O                    -0.215529
     18 C                    -0.125850
     19 C                     0.025319
     20 C                    -0.142731
     21 C                    -0.144208
     22 C                     0.024900
     23 O                    -0.186442
     24 H                     0.097472
     25 H                     0.110636
     26 H                     0.082507
     27 H                     0.076053
     28 H                     0.076827
     29 H                     0.075430
     30 H                     0.075863
     31 H                     0.083584
     32 O                    -0.210998
     33 C                    -0.128031
     34 C                     0.025232
     35 C                    -0.144803
     36 C                    -0.146073
     37 C                     0.003780
     38 O                    -0.200383
     39 H                     0.083343
     40 H                     0.085378
     41 H                     0.091087
     42 H                     0.085060
     43 H                     0.074296
     44 H                     0.072694
     45 H                     0.073930
     46 H                     0.071647
     47 H                     0.117989
     48 H                     0.085963
     49 H                     0.085253
     50 H                     0.093891
     51 H                     0.094018
     52 H                     0.088319
     53 H                     0.097604
     54 H                     0.085369
     55 H                     0.097879
     56 H                     0.088628
  ----------------------------------------
  Sum of atomic charges =    -0.000000

                    Cartesian Multipole Moments
 -----------------------------------------------------------------
    Charge (ESU x 10^10)
                -0.0000
    Dipole Moment (Debye)
         X      -1.0056      Y      -0.1376      Z      -1.7060
       Tot       1.9851
    Quadrupole Moments (Debye-Ang)
        XX    -162.5913     XY      -2.5602     YY    -147.3421
        XZ      -2.2466     YZ       1.0780     ZZ    -155.6343

 Total job time:  60.54s(wall), 2884.17s(cpu)
        *  Thank you very much for using Q-Chem.  Have a nice day.  *
