 Q-Chem 5.0, Q-Chem, Inc., Pleasanton, CA (2017)
 Q-Chem 5.0.1 for Intel X86 EM64T Linux

User input:
--------------------------------------------------------------
$molecule
0  1
O -3.94934 -3.66094 2.70899
C -3.26408 -4.56952 2.26188
C -3.36658 -6.02376 2.66595
C -2.36023 -6.53565 3.70954
C -1.47892 -5.49482 4.36381
O -0.93927 -5.9995 5.5125
C -0.05236 -5.08593 6.16676
C -0.78974 -4.33887 7.27325
O -2.16018 -4.13329 6.89576
C -3.0801 -4.46932 7.83383
C -4.50112 -4.30648 7.34924
C -5.30411 -5.61156 7.24805
C -4.71332 -6.80826 7.96609
O -3.98477 -7.64968 7.46033
O -2.26202 -4.26829 1.39396
O -5.02346 -6.96884 9.28419
O -2.81541 -4.87212 8.96104
C -4.56151 -7.99701 10.07917
C -5.35693 -3.43763 8.27825
C -6.53834 -2.85964 7.50106
C -7.38062 -4.10219 7.3151
C -6.53291 -5.12726 8.08185
O -5.96719 -4.37063 9.12513
H -4.44625 -3.83092 6.34242
H -5.79619 -5.90313 6.30903
H -4.77789 -2.62643 8.77163
H -7.07969 -2.15831 8.17555
H -6.25994 -2.33091 6.56395
H -8.34841 -3.94809 7.84285
H -7.57028 -4.39857 6.26097
H -7.18331 -5.97295 8.40067
O -1.38373 -4.32212 4.02282
C -1.98911 -2.99727 0.93332
C -4.67854 -6.33874 3.39114
C -5.03794 -7.81318 3.22841
C -3.96251 -8.45638 4.07355
C -3.3023 -7.20754 4.67455
O -4.32598 -6.2648 4.73925
H -3.37048 -6.61046 1.7194
H -1.65959 -7.28643 3.28135
H -1.73408 -2.32823 1.78285
H -5.53381 -5.7036 3.07143
H -6.02067 -7.95823 3.73263
H -5.10546 -8.1843 2.18326
H -4.45412 -9.07035 4.86044
H -3.22578 -9.07239 3.51365
H -2.76241 -7.47617 5.59333
H -2.86719 -2.59207 0.38639
H -1.12428 -3.03959 0.24
H -4.97161 -7.87726 11.1028
H -3.4521 -7.96956 10.13252
H -4.89492 -8.97529 9.67178
H -0.68965 -4.98247 8.17479
H -0.27648 -3.37924 7.49675
H 0.36844 -4.32674 5.46834
H 0.84797 -5.60765 6.55564
$end

$opt
CONSTRAINT
tors           1           2           3           4     -98.050
tors           3           4           5           6    +162.084
tors           4           5           6           7    +177.928
tors           5           6           7           8     +96.825
tors           6           7           8           9     -33.333
tors           7           8           9          10    +131.451
tors           8           9          10          11    -176.656
tors           9          10          11          12    +115.190
tors          11          12          13          14     -93.736
ENDCONSTRAINT
$end

$rem
JOBTYPE                   OPT
METHOD                    B3LYP
DFT_D                     d3_op
BASIS                     STO-3G
GEOM_OPT_MAX_CYCLES       100
GEOM_OPT_TOL_GRADIENT     300
GEOM_OPT_TOL_DISPLACEMENT 1200
GEOM_OPT_TOL_ENERGY       100
SYMMETRY                  False
THRESH                    12
SCF_CONVERGENCE           8
MAX_SUB_FILE_NUM          128
MEM_STATIC                400
MEM_TOTAL                 4000
$end
--------------------------------------------------------------

   15   -1510.1395060963      8.82E-09 Convergence criterion met
 Total energy in the final basis set = -1510.13950610
   14   -1510.2112191837      1.92E-09 Convergence criterion met
 Total energy in the final basis set = -1510.21121918
   14   -1510.2423075026      4.98E-09 Convergence criterion met
 Total energy in the final basis set = -1510.24230750
   14   -1510.2737962026      3.70E-09 Convergence criterion met
 Total energy in the final basis set = -1510.27379620
   14   -1510.2839893803      4.07E-09 Convergence criterion met
 Total energy in the final basis set = -1510.28398938
   13   -1510.2902062295      5.60E-09 Convergence criterion met
 Total energy in the final basis set = -1510.29020623
   13   -1510.2934281229      4.69E-09 Convergence criterion met
 Total energy in the final basis set = -1510.29342812
   13   -1510.2946099727      6.78E-09 Convergence criterion met
   12   -1510.2958045630      3.27E-09 Convergence criterion met
 Total energy in the final basis set = -1510.29580456
   11   -1510.2958287161      3.92E-09 Convergence criterion met
 Total energy in the final basis set = -1510.29582872
   11   -1510.2958387867      2.62E-09 Convergence criterion met
 Total energy in the final basis set = -1510.29583879
    9   -1510.2958462887      9.34E-09 Convergence criterion met
 Total energy in the final basis set = -1510.29584629
    9   -1510.2958520222      3.67E-09 Convergence criterion met
 Total energy in the final basis set = -1510.29585202
    9   -1510.2958544982      3.77E-09 Convergence criterion met
 Total energy in the final basis set = -1510.29585450

             Standard Nuclear Orientation (Angstroms)
    I     Atom           X                Y                Z
 ----------------------------------------------------------------
    1      O      -2.7883781481    -0.9766367459     1.8769765786
    2      C      -3.4152830828    -0.7760288646     0.8143873060
    3      C      -2.9742271816    -1.1811509938    -0.6415142283
    4      C      -2.2996794820    -0.0082771096    -1.4770945944
    5      C      -2.1636687910     1.3123530903    -0.6396470582
    6      O      -1.2087714608     2.1924282106    -1.2423778011
    7      C      -1.1344547674     3.4556788773    -0.4598984629
    8      C       0.0758370396     3.3933927307     0.5467134892
    9      O       0.2120836748     1.9837646154     0.9794963945
   10      C       1.5816142533     1.5670825669     0.8693317313
   11      C       1.6426792199     0.0592797308     1.2549765613
   12      C       2.0830479655    -0.8430276157     0.0180315365
   13      C       2.5265171077     0.0270260160    -1.2077382192
   14      O       1.8019617528     0.3919988652    -2.1686755842
   15      O      -4.7710240389    -0.3066967868     0.7463259410
   16      O       3.9114887097     0.3434985236    -1.1179253289
   17      O       2.5068316146     2.3146787578     0.4798576653
   18      C       4.3009197349     1.2418280806    -2.2294925943
   19      C       2.7539982471    -0.3243846655     2.3234588767
   20      C       2.3514920026    -1.7284895523     2.9250022858
   21      C       2.6769388799    -2.6764100508     1.7110273678
   22      C       3.2765298349    -1.6511573120     0.6658277479
   23      O       3.9510261190    -0.6365748438     1.5125805747
   24      H       0.6336256673    -0.2351506986     1.5948267537
   25      H       1.2082943884    -1.4557407133    -0.2929149176
   26      H       2.9815641116     0.4653976481     3.0652016926
   27      H       2.9772871654    -1.9643936897     3.8007058507
   28      H       1.2918482426    -1.7666789647     3.2242633445
   29      H       3.4246740975    -3.4390216777     1.9808973572
   30      H       1.7794961553    -3.1813822081     1.3194482415
   31      H       3.9920329563    -2.0831283842    -0.0597735669
   32      O      -2.7894871452     1.5812320318     0.4121592136
   33      C      -5.2110516457     0.1356163126     2.0871109614
   34      C      -1.8250135924    -2.2659288978    -0.6280462158
   35      C      -1.7589958905    -2.9439007896    -2.0503443772
   36      C      -1.1100918884    -1.7893965049    -2.9023399494
   37      C      -0.8905894004    -0.6667869223    -1.8121772660
   38      O      -0.5987534629    -1.4437148266    -0.5836219809
   39      H      -3.8724671020    -1.5511494324    -1.1673855519
   40      H      -2.8696666928     0.2172150906    -2.3973228080
   41      H      -4.6137268735     1.0023456084     2.4368833821
   42      H      -1.8612932363    -2.9566204666     0.2365118686
   43      H      -1.1152295744    -3.8375253986    -2.0222627076
   44      H      -2.7557720827    -3.2377553729    -2.4160033622
   45      H      -0.1420920908    -2.0975737400    -3.3284979182
   46      H      -1.7624491873    -1.4500232023    -3.7226225435
   47      H      -0.0269295006     0.0153081586    -2.0146958198
   48      H      -5.1263599753    -0.6780219108     2.8364899167
   49      H      -6.2702941969     0.4342241016     1.9815295594
   50      H       5.3871212392     1.4112712104    -2.1150959225
   51      H       3.7645076882     2.2102782721    -2.1651979836
   52      H       4.0939615885     0.7837412116    -3.2183032594
   53      H       1.0328973949     3.7033306094     0.0738633719
   54      H      -0.1236230350     4.0377419824     1.4292778910
   55      H      -2.0837240865     3.5913736905     0.0989461363
   56      H      -0.9933900784     4.2797507808    -1.1879717527
 ----------------------------------------------------------------

    9   -1510.2958554710      2.40E-09 Convergence criterion met
 Total energy in the final basis set = -1510.29585547
 Final energy is   -1510.29585547101
 **  OPTIMIZATION CONVERGED  **

                    Orbital Energies (a.u.)
 --------------------------------------------------------------

 Alpha MOs
 -- Occupied --
-18.939 -18.935 -18.931 -18.917 -18.889 -18.882 -18.878 -18.873
-18.870 -18.856 -10.104 -10.096 -10.095 -10.088 -10.072 -10.066
-10.059 -10.058 -10.052 -10.051 -10.050 -10.043 -10.038 -10.031
-10.026 -10.018 -10.016 -10.014 -10.011 -10.010  -1.020  -1.010
 -1.005  -0.994  -0.971  -0.960  -0.942  -0.931  -0.931  -0.921
 -0.760  -0.753  -0.723  -0.715  -0.708  -0.699  -0.691  -0.655
 -0.652  -0.614  -0.592  -0.572  -0.543  -0.538  -0.534  -0.528
 -0.505  -0.504  -0.484  -0.475  -0.459  -0.453  -0.449  -0.433
 -0.428  -0.423  -0.420  -0.410  -0.407  -0.405  -0.401  -0.398
 -0.394  -0.377  -0.373  -0.362  -0.355  -0.354  -0.351  -0.349
 -0.343  -0.334  -0.330  -0.325  -0.324  -0.322  -0.314  -0.310
 -0.302  -0.298  -0.297  -0.295  -0.292  -0.275  -0.273  -0.269
 -0.268  -0.251  -0.247  -0.243  -0.241  -0.234  -0.218  -0.181
 -0.173  -0.172  -0.163  -0.158  -0.154  -0.148  -0.145  -0.138
 -0.134

          Ground-State Mulliken Net Atomic Charges

     Atom                 Charge (a.u.)
  ----------------------------------------
      1 O                    -0.222377
      2 C                     0.214912
      3 C                    -0.080975
      4 C                    -0.077629
      5 C                     0.218475
      6 O                    -0.165317
      7 C                    -0.052657
      8 C                    -0.056963
      9 O                    -0.169176
     10 C                     0.207783
     11 C                    -0.080795
     12 C                    -0.093404
     13 C                     0.210365
     14 O                    -0.223585
     15 O                    -0.173816
     16 O                    -0.156531
     17 O                    -0.215419
     18 C                    -0.125857
     19 C                     0.025586
     20 C                    -0.142572
     21 C                    -0.144133
     22 C                     0.024636
     23 O                    -0.186151
     24 H                     0.096916
     25 H                     0.114254
     26 H                     0.081944
     27 H                     0.075599
     28 H                     0.077150
     29 H                     0.074863
     30 H                     0.075138
     31 H                     0.082504
     32 O                    -0.209144
     33 C                    -0.127973
     34 C                     0.026194
     35 C                    -0.144848
     36 C                    -0.145248
     37 C                     0.010064
     38 O                    -0.198193
     39 H                     0.083467
     40 H                     0.086579
     41 H                     0.091384
     42 H                     0.085708
     43 H                     0.075479
     44 H                     0.073321
     45 H                     0.077122
     46 H                     0.072423
     47 H                     0.116246
     48 H                     0.085612
     49 H                     0.085404
     50 H                     0.092198
     51 H                     0.092477
     52 H                     0.087297
     53 H                     0.099869
     54 H                     0.084556
     55 H                     0.098337
     56 H                     0.088901
  ----------------------------------------
  Sum of atomic charges =    -0.000000

                    Cartesian Multipole Moments
 -----------------------------------------------------------------
    Charge (ESU x 10^10)
                -0.0000
    Dipole Moment (Debye)
         X      -1.5839      Y      -0.1136      Z      -1.4567
       Tot       2.1550
    Quadrupole Moments (Debye-Ang)
        XX    -162.0837     XY      -2.0363     YY    -146.9358
        XZ      -1.9867     YZ       1.5026     ZZ    -155.6334

 Total job time:  58.55s(wall), 2790.69s(cpu)
        *  Thank you very much for using Q-Chem.  Have a nice day.  *
