 Q-Chem 5.0, Q-Chem, Inc., Pleasanton, CA (2017)
 Q-Chem 5.0.1 for Intel X86 EM64T Linux

User input:
--------------------------------------------------------------
$molecule
0  1
O -2.7883781481 -0.9766367459 1.8769765786
C -3.4152830828 -0.7760288646 0.814387306
C -2.9742271816 -1.1811509938 -0.6415142283
C -2.299679482 -0.0082771096 -1.4770945944
C -2.163668791 1.3123530903 -0.6396470582
O -1.2087714608 2.1924282106 -1.2423778011
C -1.1344547674 3.4556788773 -0.4598984629
C 0.0758370396 3.3933927307 0.5467134892
O 0.2120836748 1.9837646154 0.9794963945
C 1.5816142533 1.5670825669 0.8693317313
C 1.6426792199 0.0592797308 1.2549765613
C 2.0830479655 -0.8430276157 0.0180315365
C 2.5265171077 0.027026016 -1.2077382192
O 1.8019617528 0.3919988652 -2.1686755842
O -4.7710240389 -0.3066967868 0.746325941
O 3.9114887097 0.3434985236 -1.1179253289
O 2.5068316146 2.3146787578 0.4798576653
C 4.3009197349 1.2418280806 -2.2294925943
C 2.7539982471 -0.3243846655 2.3234588767
C 2.3514920026 -1.7284895523 2.9250022858
C 2.6769388799 -2.6764100508 1.7110273678
C 3.2765298349 -1.651157312 0.6658277479
O 3.951026119 -0.6365748438 1.5125805747
H 0.6336256673 -0.2351506986 1.5948267537
H 1.2082943884 -1.4557407133 -0.2929149176
H 2.9815641116 0.4653976481 3.0652016926
H 2.9772871654 -1.9643936897 3.8007058507
H 1.2918482426 -1.7666789647 3.2242633445
H 3.4246740975 -3.4390216777 1.9808973572
H 1.7794961553 -3.1813822081 1.3194482415
H 3.9920329563 -2.0831283842 -0.0597735669
O -2.7894871452 1.5812320318 0.4121592136
C -5.2110516457 0.1356163126 2.0871109614
C -1.8250135924 -2.2659288978 -0.6280462158
C -1.7589958905 -2.9439007896 -2.0503443772
C -1.1100918884 -1.7893965049 -2.9023399494
C -0.8905894004 -0.6667869223 -1.812177266
O -0.5987534629 -1.4437148266 -0.5836219809
H -3.872467102 -1.5511494324 -1.1673855519
H -2.8696666928 0.2172150906 -2.397322808
H -4.6137268735 1.0023456084 2.4368833821
H -1.8612932363 -2.9566204666 0.2365118686
H -1.1152295744 -3.8375253986 -2.0222627076
H -2.7557720827 -3.2377553729 -2.4160033622
H -0.1420920908 -2.09757374 -3.3284979182
H -1.7624491873 -1.4500232023 -3.7226225435
H -0.0269295006 0.0153081586 -2.0146958198
H -5.1263599753 -0.6780219108 2.8364899167
H -6.2702941969 0.4342241016 1.9815295594
H 5.3871212392 1.4112712104 -2.1150959225
H 3.7645076882 2.2102782721 -2.1651979836
H 4.0939615885 0.7837412116 -3.2183032594
H 1.0328973949 3.7033306094 0.0738633719
H -0.123623035 4.0377419824 1.429277891
H -2.0837240865 3.5913736905 0.0989461363
H -0.9933900784 4.2797507808 -1.1879717527
$end

$rem
JOBTYPE                   OPT
METHOD                    B3LYP
DFT_D                     d3_op
BASIS                     STO-3G
GEOM_OPT_MAX_CYCLES       100
GEOM_OPT_TOL_GRADIENT     300
GEOM_OPT_TOL_DISPLACEMENT 1200
GEOM_OPT_TOL_ENERGY       100
SYMMETRY                  False
THRESH                    12
SCF_CONVERGENCE           8
MAX_SUB_FILE_NUM          128
MEM_STATIC                400
MEM_TOTAL                 4000
$end
--------------------------------------------------------------

   16   -1510.2958583253      6.29E-09 Convergence criterion met
 Total energy in the final basis set = -1510.29585833
   14   -1510.2918270888      8.36E-09 Convergence criterion met
 Total energy in the final basis set = -1510.29182709
   14   -1510.2943890335      2.88E-09 Convergence criterion met
 Total energy in the final basis set = -1510.29438903
   15   -1510.2678530415      6.92E-09 Convergence criterion met
 Total energy in the final basis set = -1510.26785304
   14   -1510.2928158661      4.77E-09 Convergence criterion met
 Total energy in the final basis set = -1510.29281587
   14   -1510.2953706556      8.01E-09 Convergence criterion met
 Total energy in the final basis set = -1510.29537066
   13   -1510.2966876503      8.33E-09 Convergence criterion met
 Total energy in the final basis set = -1510.29668765
   13   -1510.2977824741      7.58E-09 Convergence criterion met
   13   -1510.3056295652      7.62E-09 Convergence criterion met
 Total energy in the final basis set = -1510.30562957
   13   -1510.3054758981      2.90E-09 Convergence criterion met
 Total energy in the final basis set = -1510.30547590
   12   -1510.3056547290      6.76E-09 Convergence criterion met
 Total energy in the final basis set = -1510.30565473
   11   -1510.3056505186      9.60E-09 Convergence criterion met
 Total energy in the final basis set = -1510.30565052
   11   -1510.3056607244      6.18E-09 Convergence criterion met
 Total energy in the final basis set = -1510.30566072
   10   -1510.3056668914      5.20E-09 Convergence criterion met
 Total energy in the final basis set = -1510.30566689

             Standard Nuclear Orientation (Angstroms)
    I     Atom           X                Y                Z
 ----------------------------------------------------------------
    1      O      -1.6018564967    -1.0962398814     1.4853158591
    2      C      -2.6478594169    -0.9316590476     0.8112414592
    3      C      -2.7896360195    -0.9623551099    -0.7565685154
    4      C      -2.0534057776     0.2545203932    -1.4556758639
    5      C      -1.8462660379     1.4323220583    -0.4434115226
    6      O      -1.1057860766     2.5010611327    -1.0367050344
    7      C      -1.0914657104     3.6727011231    -0.1193814330
    8      C       0.1254754107     3.6079327216     0.8829563444
    9      O       0.2230231068     2.2357637394     1.4294460489
   10      C       1.2464578658     1.5172317479     0.7251588316
   11      C       1.1180197623    -0.0019662987     1.0229619873
   12      C       1.8809954971    -0.8858116731    -0.0483322394
   13      C       2.5337049986    -0.0401714454    -1.1967486074
   14      O       1.9443944004     0.3899674477    -2.2240533882
   15      O      -3.9539089286    -0.8415843967     1.3848046101
   16      O       3.9370105107     0.1003920547    -0.9911688415
   17      O       2.0866587346     2.0715058990    -0.0229559635
   18      C       4.5147079133     0.9556117253    -2.0526923982
   19      C       1.8644298882    -0.4418956572     2.3567991503
   20      C       1.3353911685    -1.8837917796     2.7258493407
   21      C       2.0988392203    -2.7628994211     1.6670818034
   22      C       2.9076481178    -1.6590944620     0.8748671661
   23      O       3.2594781057    -0.6700434709     1.9218393406
   24      H       0.0417215983    -0.2883904042     1.0770113549
   25      H       1.1324898896    -1.5561252787    -0.5197692164
   26      H       1.8255232455     0.3013845047     3.1768383387
   27      H       1.6161021821    -2.1521374851     3.7568103134
   28      H       0.2398390858    -1.9456135972     2.6166991363
   29      H       2.7871439810    -3.4740073751     2.1512084687
   30      H       1.4145224119    -3.3205904887     1.0084409755
   31      H       3.8194551038    -2.0146309726     0.3583028959
   32      O      -2.3640117768     1.4875903797     0.6981533080
   33      C      -3.8486542390    -0.7851250220     2.8610770975
   34      C      -1.9535687439    -2.1769138122    -1.3325840372
   35      C      -2.2009818219    -2.2990591701    -2.8881286047
   36      C      -1.2892455444    -1.1380992222    -3.4382447195
   37      C      -0.7842984916    -0.4744521386    -2.0974771843
   38      O      -0.5739938834    -1.6600735838    -1.2344803521
   39      H      -3.8616680156    -1.0067601786    -1.0161776192
   40      H      -2.6827378669     0.6608866647    -2.2695581269
   41      H      -3.2897316454     0.1156989419     3.1868637357
   42      H      -2.0593290377    -3.1187965404    -0.7597504462
   43      H      -1.8746833337    -3.2846341581    -3.2564643806
   44      H      -3.2638491449    -2.1626470038    -3.1452069275
   45      H      -0.4322301789    -1.5387721257    -4.0031154774
   46      H      -1.8362618408    -0.4326002714    -4.0832605869
   47      H       0.1882233757     0.0881845943    -2.1724906237
   48      H      -3.3420031770    -1.6834599160     3.2693374021
   49      H      -4.8859106881    -0.7382302299     3.2404045892
   50      H       5.5941004929     1.0334997276    -1.8273596166
   51      H       4.0558695242     1.9651782111    -2.0430486017
   52      H       4.3741537367     0.5107738729    -3.0592024860
   53      H       1.0746605858     3.8493632639     0.3581230541
   54      H      -0.0426032998     4.3077862979     1.7263568052
   55      H      -2.0427307957     3.7079485417     0.4515012854
   56      H      -1.0009198858     4.5688566176    -0.7658653771
 ----------------------------------------------------------------

    9   -1510.3056670324      8.78E-09 Convergence criterion met
 Total energy in the final basis set = -1510.30566703
 Final energy is   -1510.30566703244
 **  OPTIMIZATION CONVERGED  **

                    Orbital Energies (a.u.)
 --------------------------------------------------------------

 Alpha MOs
 -- Occupied --
-18.945 -18.932 -18.930 -18.925 -18.888 -18.885 -18.875 -18.869
-18.867 -18.857 -10.107 -10.100 -10.093 -10.089 -10.076 -10.069
-10.062 -10.060 -10.052 -10.042 -10.040 -10.039 -10.037 -10.036
-10.018 -10.013 -10.009 -10.006 -10.002  -9.998  -1.024  -1.009
 -1.005  -0.997  -0.971  -0.952  -0.945  -0.933  -0.930  -0.921
 -0.762  -0.745  -0.722  -0.715  -0.702  -0.697  -0.685  -0.660
 -0.648  -0.615  -0.591  -0.569  -0.544  -0.535  -0.530  -0.520
 -0.508  -0.499  -0.486  -0.474  -0.459  -0.453  -0.448  -0.433
 -0.430  -0.422  -0.414  -0.413  -0.409  -0.405  -0.399  -0.399
 -0.392  -0.379  -0.368  -0.365  -0.359  -0.355  -0.351  -0.347
 -0.343  -0.340  -0.327  -0.323  -0.318  -0.315  -0.312  -0.308
 -0.300  -0.297  -0.294  -0.288  -0.285  -0.278  -0.273  -0.265
 -0.264  -0.255  -0.249  -0.244  -0.236  -0.228  -0.212  -0.195
 -0.174  -0.168  -0.163  -0.160  -0.154  -0.148  -0.143  -0.138
 -0.126

          Ground-State Mulliken Net Atomic Charges

     Atom                 Charge (a.u.)
  ----------------------------------------
      1 O                    -0.226394
      2 C                     0.222665
      3 C                    -0.079867
      4 C                    -0.081643
      5 C                     0.212368
      6 O                    -0.165464
      7 C                    -0.051602
      8 C                    -0.056062
      9 O                    -0.171026
     10 C                     0.209404
     11 C                    -0.094099
     12 C                    -0.096697
     13 C                     0.220636
     14 O                    -0.230249
     15 O                    -0.167458
     16 O                    -0.162978
     17 O                    -0.213192
     18 C                    -0.126093
     19 C                     0.025657
     20 C                    -0.146843
     21 C                    -0.143540
     22 C                     0.024006
     23 O                    -0.193015
     24 H                     0.113318
     25 H                     0.111137
     26 H                     0.078641
     27 H                     0.070825
     28 H                     0.087405
     29 H                     0.072005
     30 H                     0.073833
     31 H                     0.083319
     32 O                    -0.207342
     33 C                    -0.127721
     34 C                     0.027213
     35 C                    -0.145529
     36 C                    -0.143062
     37 C                     0.005737
     38 O                    -0.197118
     39 H                     0.085845
     40 H                     0.085821
     41 H                     0.094437
     42 H                     0.081574
     43 H                     0.076743
     44 H                     0.072476
     45 H                     0.077990
     46 H                     0.071821
     47 H                     0.120342
     48 H                     0.087583
     49 H                     0.088851
     50 H                     0.088563
     51 H                     0.094165
     52 H                     0.085823
     53 H                     0.102055
     54 H                     0.088406
     55 H                     0.095237
     56 H                     0.091089
  ----------------------------------------
  Sum of atomic charges =    -0.000000

                    Cartesian Multipole Moments
 -----------------------------------------------------------------
    Charge (ESU x 10^10)
                -0.0000
    Dipole Moment (Debye)
         X      -2.7981      Y       0.4183      Z      -0.8931
       Tot       2.9668
    Quadrupole Moments (Debye-Ang)
        XX    -158.6609     XY       0.5378     YY    -146.5560
        XZ      -3.3077     YZ       1.6697     ZZ    -155.9314

 Total job time:  110.34s(wall), 5266.37s(cpu)
        *  Thank you very much for using Q-Chem.  Have a nice day.  *
