 Q-Chem 5.0, Q-Chem, Inc., Pleasanton, CA (2017)
 Q-Chem 5.0.1 for Intel X86 EM64T Linux

User input:
--------------------------------------------------------------
$molecule
0  1
O -3.94934 -3.66094 2.70899
C -3.26408 -4.56952 2.26188
C -3.36658 -6.02376 2.66595
C -2.30733 -6.55754 3.64417
C -1.37008 -5.53486 4.24731
O -0.7806 -6.04909 5.36691
C 0.26698 -5.22095 5.88267
C -0.29042 -4.25549 6.9235
O -1.661 -3.94919 6.62255
C -2.52371 -4.05218 7.66383
C -3.97003 -3.94707 7.2422
C -4.80336 -5.21749 7.46553
C -4.19026 -6.25733 8.3818
O -3.38704 -7.1147 8.04369
O -2.28226 -4.27145 1.36963
O -4.59469 -6.26817 9.68375
O -2.1913 -4.22769 8.83076
C -4.13711 -7.15015 10.64055
C -4.75497 -2.88183 8.01831
C -5.95808 -2.42874 7.19414
C -6.83083 -3.66212 7.27672
C -5.98588 -4.53435 8.21641
O -5.35281 -3.6032 9.06047
H -3.97464 -3.68836 6.1576
H -5.28734 -5.7138 6.62144
H -4.13292 -2.00917 8.31532
H -6.45187 -1.6028 7.75464
H -5.72095 -2.08443 6.16437
H -7.78765 -3.37888 7.76943
H -7.03748 -4.16657 6.30811
H -6.648 -5.27245 8.72193
O -1.22424 -4.37868 3.86977
C -2.02145 -3.00238 0.89663
C -4.65616 -6.32677 3.42846
C -5.00978 -7.80884 3.32075
C -3.94177 -8.41473 4.20152
C -3.24623 -7.14606 4.70683
O -4.26943 -6.19616 4.75818
H -3.40824 -6.59852 1.71333
H -1.66827 -7.35903 3.21222
H -1.74852 -2.3288 1.73699
H -5.52016 -5.7061 3.1037
H -5.99816 -7.95039 3.81424
H -5.05557 -8.20794 2.28468
H -4.44214 -8.93953 5.04603
H -3.23612 -9.1051 3.69092
H -2.73715 -7.37308 5.66311
H -2.912 -2.60097 0.36739
H -1.17215 -3.04709 0.18452
H -4.63417 -6.928 11.60696
H -3.03915 -7.0386 10.76871
H -4.37778 -8.19384 10.34564
H -0.18514 -4.78609 7.89604
H 0.33728 -3.34054 6.97782
H 0.75042 -4.62663 5.07221
H 1.09914 -5.82937 6.29683
$end

$opt
CONSTRAINT
tors           1           2           3           4    -101.691
tors           3           4           5           6    +161.454
tors           4           5           6           7    +171.221
tors           5           6           7           8     +91.845
tors           6           7           8           9     -29.534
tors           7           8           9          10    +131.451
tors           8           9          10          11    -170.348
tors           9          10          11          12    +115.190
tors          11          12          13          14     -84.572
ENDCONSTRAINT
$end

$rem
JOBTYPE                   OPT
METHOD                    B3LYP
DFT_D                     d3_op
BASIS                     STO-3G
GEOM_OPT_MAX_CYCLES       100
GEOM_OPT_TOL_GRADIENT     300
GEOM_OPT_TOL_DISPLACEMENT 1200
GEOM_OPT_TOL_ENERGY       100
SYMMETRY                  False
THRESH                    12
SCF_CONVERGENCE           8
MAX_SUB_FILE_NUM          128
MEM_STATIC                400
MEM_TOTAL                 4000
$end
--------------------------------------------------------------

   16   -1510.1495898732      2.24E-09 Convergence criterion met
 Total energy in the final basis set = -1510.14958987
   13   -1510.2210844839      7.35E-09 Convergence criterion met
 Total energy in the final basis set = -1510.22108448
   14   -1510.2560482073      5.15E-09 Convergence criterion met
 Total energy in the final basis set = -1510.25604821
   14   -1510.2793146499      7.52E-09 Convergence criterion met
 Total energy in the final basis set = -1510.27931465
   13   -1510.2881198433      9.54E-09 Convergence criterion met
 Total energy in the final basis set = -1510.28811984
   13   -1510.2914686771      7.08E-09 Convergence criterion met
 Total energy in the final basis set = -1510.29146868
   13   -1510.2935389587      8.15E-09 Convergence criterion met
 Total energy in the final basis set = -1510.29353896
   12   -1510.2944569915      8.53E-09 Convergence criterion met
   12   -1510.2952834050      2.96E-09 Convergence criterion met
 Total energy in the final basis set = -1510.29528340
   10   -1510.2953118960      9.50E-09 Convergence criterion met
 Total energy in the final basis set = -1510.29531190
   11   -1510.2953414928      3.95E-09 Convergence criterion met
 Total energy in the final basis set = -1510.29534149
   10   -1510.2953534736      9.99E-09 Convergence criterion met
 Total energy in the final basis set = -1510.29535347
   10   -1510.2953592536      8.53E-09 Convergence criterion met
 Total energy in the final basis set = -1510.29535925
    9   -1510.2953606917      6.95E-09 Convergence criterion met
 Total energy in the final basis set = -1510.29536069

             Standard Nuclear Orientation (Angstroms)
    I     Atom           X                Y                Z
 ----------------------------------------------------------------
    1      O      -2.6945772550    -1.1867116343     1.7553188323
    2      C      -3.3262919292    -0.7716114473     0.7598513203
    3      C      -2.9818997230    -1.0167505267    -0.7559945322
    4      C      -2.2834763252     0.2186729164    -1.4706253928
    5      C      -2.0148591079     1.4185144377    -0.4942282586
    6      O      -1.0298599037     2.2774003508    -1.0745840080
    7      C      -0.9036604099     3.5280392877    -0.2831925221
    8      C       0.2250460063     3.3511017327     0.8072680222
    9      O       0.2526123134     1.9129266829     1.1567183192
   10      C       1.5927021792     1.4057047609     1.1288241173
   11      C       1.4928282336    -0.1459086297     1.2612301408
   12      C       2.0122149865    -0.8913244263    -0.0475207214
   13      C       2.5027429330     0.1151225605    -1.1406470210
   14      O       1.7850551113     0.7006587432    -1.9915801944
   15      O      -4.6250324021    -0.1627548432     0.8178809190
   16      O       3.9125461176     0.2969034951    -1.0564414804
   17      O       2.6069747293     2.1158362862     0.9503915627
   18      C       4.3538034848     1.3188819123    -2.0338022157
   19      C       2.4650926424    -0.7597380518     2.3564125296
   20      C       1.9763583711    -2.2325483904     2.6534234450
   21      C       2.4659603015    -2.9800937820     1.3577410876
   22      C       3.1532911827    -1.7990915178     0.5620336345
   23      O       3.7394399625    -0.9541132264     1.6305960494
   24      H       0.4351625772    -0.4012146932     1.4524381218
   25      H       1.1552267298    -1.4587723718    -0.4723197983
   26      H       2.6202209345    -0.1226971162     3.2486853265
   27      H       2.4657400521    -2.6270186941     3.5582071700
   28      H       0.8839978008    -2.2861946421     2.7875511219
   29      H       3.2009503167    -3.7651893660     1.5964644791
   30      H       1.6358452302    -3.4294731280     0.7899318690
   31      H       3.9354720563    -2.1059365676    -0.1584551869
   32      O      -2.5681256441     1.6288922355     0.6084854642
   33      C      -4.9722762032     0.1383852826     2.2236285245
   34      C      -1.9029182492    -2.1527530577    -0.9536367815
   35      C      -1.9342810177    -2.6220138969    -2.4602665940
   36      C      -1.2402429825    -1.4007867711    -3.1736030518
   37      C      -0.9211320627    -0.4552511288    -1.9497213916
   38      O      -0.6299842911    -1.4116116150    -0.8553925010
   39      H      -3.9289250347    -1.2627298942    -1.2691369936
   40      H      -2.8783925615     0.5877410493    -2.3255904328
   41      H      -4.2936308480     0.9085971522     2.6440899813
   42      H      -1.9431046451    -2.9589076710    -0.1953871919
   43      H      -1.3527803896    -3.5493021762    -2.5874543077
   44      H      -2.9610446457    -2.7979477903    -2.8187048384
   45      H      -0.3088227332    -1.7044525835    -3.6773028972
   46      H      -1.8968505286    -0.9138258739    -3.9117316445
   47      H      -0.0358552112     0.2204250005    -2.0679668693
   48      H      -4.9198931737    -0.7672466804     2.8619613808
   49      H      -6.0078560406     0.5253530646     2.2099284544
   50      H       5.4545600366     1.3669020792    -1.9461664471
   51      H       3.9187555125     2.3112573641    -1.7975185077
   52      H       4.0706757998     1.0437855706    -3.0703592031
   53      H       1.2274587559     3.6417492732     0.4255981618
   54      H      -0.0089426353     3.9541420749     1.7102811100
   55      H      -1.8706918884     3.7637472262     0.2074596320
   56      H      -0.6338625100     4.3293935278    -1.0001002245
 ----------------------------------------------------------------

    9   -1510.2953602469      3.00E-09 Convergence criterion met
 Total energy in the final basis set = -1510.29536025
 Final energy is   -1510.29536024691
 **  OPTIMIZATION CONVERGED  **

                    Orbital Energies (a.u.)
 --------------------------------------------------------------

 Alpha MOs
 -- Occupied --
-18.937 -18.936 -18.929 -18.918 -18.889 -18.880 -18.876 -18.871
-18.870 -18.859 -10.102 -10.096 -10.094 -10.089 -10.074 -10.066
-10.060 -10.060 -10.052 -10.050 -10.048 -10.043 -10.036 -10.031
-10.024 -10.019 -10.015 -10.015 -10.009 -10.008  -1.019  -1.010
 -1.004  -0.996  -0.972  -0.958  -0.941  -0.931  -0.930  -0.923
 -0.760  -0.752  -0.723  -0.715  -0.708  -0.699  -0.690  -0.656
 -0.652  -0.614  -0.592  -0.572  -0.543  -0.537  -0.534  -0.527
 -0.506  -0.504  -0.483  -0.474  -0.459  -0.453  -0.450  -0.434
 -0.428  -0.423  -0.420  -0.410  -0.407  -0.404  -0.401  -0.399
 -0.392  -0.378  -0.373  -0.362  -0.355  -0.353  -0.350  -0.348
 -0.343  -0.334  -0.331  -0.325  -0.324  -0.321  -0.313  -0.310
 -0.301  -0.298  -0.296  -0.294  -0.292  -0.275  -0.273  -0.271
 -0.267  -0.251  -0.248  -0.242  -0.242  -0.233  -0.216  -0.179
 -0.174  -0.171  -0.164  -0.157  -0.152  -0.148  -0.145  -0.140
 -0.132

          Ground-State Mulliken Net Atomic Charges

     Atom                 Charge (a.u.)
  ----------------------------------------
      1 O                    -0.221855
      2 C                     0.214666
      3 C                    -0.081123
      4 C                    -0.078228
      5 C                     0.218902
      6 O                    -0.166239
      7 C                    -0.049661
      8 C                    -0.054773
      9 O                    -0.170157
     10 C                     0.207990
     11 C                    -0.080022
     12 C                    -0.094114
     13 C                     0.210596
     14 O                    -0.223093
     15 O                    -0.172749
     16 O                    -0.157933
     17 O                    -0.215105
     18 C                    -0.126124
     19 C                     0.025596
     20 C                    -0.143489
     21 C                    -0.143642
     22 C                     0.024276
     23 O                    -0.187407
     24 H                     0.097540
     25 H                     0.114641
     26 H                     0.081306
     27 H                     0.075150
     28 H                     0.078433
     29 H                     0.074546
     30 H                     0.074584
     31 H                     0.083722
     32 O                    -0.208888
     33 C                    -0.128002
     34 C                     0.026265
     35 C                    -0.144571
     36 C                    -0.145365
     37 C                     0.010017
     38 O                    -0.199111
     39 H                     0.083583
     40 H                     0.086157
     41 H                     0.091944
     42 H                     0.085922
     43 H                     0.075754
     44 H                     0.073266
     45 H                     0.076531
     46 H                     0.072514
     47 H                     0.116824
     48 H                     0.086267
     49 H                     0.085692
     50 H                     0.092260
     51 H                     0.091915
     52 H                     0.087759
     53 H                     0.097891
     54 H                     0.084768
     55 H                     0.094338
     56 H                     0.090038
  ----------------------------------------
  Sum of atomic charges =    -0.000000

                    Cartesian Multipole Moments
 -----------------------------------------------------------------
    Charge (ESU x 10^10)
                -0.0000
    Dipole Moment (Debye)
         X      -1.8216      Y       0.2047      Z      -1.8986
       Tot       2.6391
    Quadrupole Moments (Debye-Ang)
        XX    -161.7226     XY      -0.9758     YY    -147.2404
        XZ      -3.6176     YZ       1.7496     ZZ    -155.2470

 Total job time:  60.65s(wall), 2889.89s(cpu)
        *  Thank you very much for using Q-Chem.  Have a nice day.  *
