 Q-Chem 5.0, Q-Chem, Inc., Pleasanton, CA (2017)
 Q-Chem 5.0.1 for Intel X86 EM64T Linux

User input:
--------------------------------------------------------------
$molecule
0  1
O -2.694577255 -1.1867116343 1.7553188323
C -3.3262919292 -0.7716114473 0.7598513203
C -2.981899723 -1.0167505267 -0.7559945322
C -2.2834763252 0.2186729164 -1.4706253928
C -2.0148591079 1.4185144377 -0.4942282586
O -1.0298599037 2.2774003508 -1.074584008
C -0.9036604099 3.5280392877 -0.2831925221
C 0.2250460063 3.3511017327 0.8072680222
O 0.2526123134 1.9129266829 1.1567183192
C 1.5927021792 1.4057047609 1.1288241173
C 1.4928282336 -0.1459086297 1.2612301408
C 2.0122149865 -0.8913244263 -0.0475207214
C 2.502742933 0.1151225605 -1.140647021
O 1.7850551113 0.7006587432 -1.9915801944
O -4.6250324021 -0.1627548432 0.817880919
O 3.9125461176 0.2969034951 -1.0564414804
O 2.6069747293 2.1158362862 0.9503915627
C 4.3538034848 1.3188819123 -2.0338022157
C 2.4650926424 -0.7597380518 2.3564125296
C 1.9763583711 -2.2325483904 2.653423445
C 2.4659603015 -2.980093782 1.3577410876
C 3.1532911827 -1.7990915178 0.5620336345
O 3.7394399625 -0.9541132264 1.6305960494
H 0.4351625772 -0.4012146932 1.4524381218
H 1.1552267298 -1.4587723718 -0.4723197983
H 2.6202209345 -0.1226971162 3.2486853265
H 2.4657400521 -2.6270186941 3.55820717
H 0.8839978008 -2.2861946421 2.7875511219
H 3.2009503167 -3.765189366 1.5964644791
H 1.6358452302 -3.429473128 0.789931869
H 3.9354720563 -2.1059365676 -0.1584551869
O -2.5681256441 1.6288922355 0.6084854642
C -4.9722762032 0.1383852826 2.2236285245
C -1.9029182492 -2.1527530577 -0.9536367815
C -1.9342810177 -2.6220138969 -2.460266594
C -1.2402429825 -1.4007867711 -3.1736030518
C -0.9211320627 -0.4552511288 -1.9497213916
O -0.6299842911 -1.411611615 -0.855392501
H -3.9289250347 -1.2627298942 -1.2691369936
H -2.8783925615 0.5877410493 -2.3255904328
H -4.293630848 0.9085971522 2.6440899813
H -1.9431046451 -2.958907671 -0.1953871919
H -1.3527803896 -3.5493021762 -2.5874543077
H -2.9610446457 -2.7979477903 -2.8187048384
H -0.3088227332 -1.7044525835 -3.6773028972
H -1.8968505286 -0.9138258739 -3.9117316445
H -0.0358552112 0.2204250005 -2.0679668693
H -4.9198931737 -0.7672466804 2.8619613808
H -6.0078560406 0.5253530646 2.2099284544
H 5.4545600366 1.3669020792 -1.9461664471
H 3.9187555125 2.3112573641 -1.7975185077
H 4.0706757998 1.0437855706 -3.0703592031
H 1.2274587559 3.6417492732 0.4255981618
H -0.0089426353 3.9541420749 1.71028111
H -1.8706918884 3.7637472262 0.207459632
H -0.63386251 4.3293935278 -1.0001002245
$end

$rem
JOBTYPE                   OPT
METHOD                    B3LYP
DFT_D                     d3_op
BASIS                     STO-3G
GEOM_OPT_MAX_CYCLES       100
GEOM_OPT_TOL_GRADIENT     300
GEOM_OPT_TOL_DISPLACEMENT 1200
GEOM_OPT_TOL_ENERGY       100
SYMMETRY                  False
THRESH                    12
SCF_CONVERGENCE           8
MAX_SUB_FILE_NUM          128
MEM_STATIC                400
MEM_TOTAL                 4000
$end
--------------------------------------------------------------

   16   -1510.2954808135      5.77E-09 Convergence criterion met
 Total energy in the final basis set = -1510.29548081
   14   -1510.2817123084      9.60E-09 Convergence criterion met
 Total energy in the final basis set = -1510.28171231
   15   -1510.2867224737      4.23E-09 Convergence criterion met
 Total energy in the final basis set = -1510.28672247
   15   -1510.2903412990      5.65E-09 Convergence criterion met
 Total energy in the final basis set = -1510.29034130
   14   -1510.2940965021      7.66E-09 Convergence criterion met
 Total energy in the final basis set = -1510.29409650
   14   -1510.2940721916      3.35E-09 Convergence criterion met
 Total energy in the final basis set = -1510.29407219
   14   -1510.2962549822      9.64E-09 Convergence criterion met
 Total energy in the final basis set = -1510.29625498
   14   -1510.2973257582      4.89E-09 Convergence criterion met
   12   -1510.3055092706      8.67E-09 Convergence criterion met
 Total energy in the final basis set = -1510.30550927
   12   -1510.3056308614      6.99E-09 Convergence criterion met
 Total energy in the final basis set = -1510.30563086
   11   -1510.3056308676      6.62E-09 Convergence criterion met
 Total energy in the final basis set = -1510.30563087
   11   -1510.3056418380      3.79E-09 Convergence criterion met
 Total energy in the final basis set = -1510.30564184
   11   -1510.3056433581      3.22E-09 Convergence criterion met
 Total energy in the final basis set = -1510.30564336
   10   -1510.3056458329      7.44E-09 Convergence criterion met
 Total energy in the final basis set = -1510.30564583

             Standard Nuclear Orientation (Angstroms)
    I     Atom           X                Y                Z
 ----------------------------------------------------------------
    1      O      -1.6302342595    -1.1102945464     1.4299872798
    2      C      -2.6776122792    -0.8948152332     0.7725436326
    3      C      -2.8331483579    -0.8496135270    -0.7934734685
    4      C      -2.0688055288     0.3770810311    -1.4422414586
    5      C      -1.8239646728     1.5035401152    -0.3816149639
    6      O      -1.0508207429     2.5721882233    -0.9322615186
    7      C      -1.0003373238     3.7047333611     0.0311389094
    8      C       0.2150611636     3.5618543664     1.0278144149
    9      O       0.2799745771     2.1631525303     1.5076688198
   10      C       1.2721698268     1.4507437872     0.7540197805
   11      C       1.1108685913    -0.0762778478     0.9883306223
   12      C       1.8492014587    -0.9310096238    -0.1227375818
   13      C       2.5119866892    -0.0530606314    -1.2408972351
   14      O       1.9264900272     0.4328279342    -2.2451687267
   15      O      -3.9768500984    -0.8042327435     1.3609450597
   16      O       3.9196264782     0.0464576304    -1.0405023474
   17      O       2.1163118198     2.0163451202     0.0189804727
   18      C       4.5103537228     0.9300781320    -2.0710754282
   19      C       1.8584939407    -0.5815473549     2.2979048512
   20      C       1.3080414624    -2.0273060386     2.6172003577
   21      C       2.0432388503    -2.8775085457     1.5156291199
   22      C       2.8679492575    -1.7588444348     0.7616094536
   23      O       3.2460474532    -0.8178600545     1.8430511951
   24      H       0.0290324648    -0.3424614689     1.0402294662
   25      H       1.0867115074    -1.5697657916    -0.6147876277
   26      H       1.8392486702     0.1303417502     3.1458934847
   27      H       1.5970937965    -2.3404977350     3.6331724631
   28      H       0.2103076390    -2.0666970120     2.5207822286
   29      H       2.7197153505    -3.6232827193     1.9628137544
   30      H       1.3413271851    -3.3918302928     0.8402296891
   31      H       3.7688440728    -2.1108456568     0.2239734169
   32      O      -2.3378258815     1.5270931466     0.7626746697
   33      C      -3.8603437554    -0.8255342553     2.8373628287
   34      C      -2.0368214957    -2.0585574963    -1.4349322023
   35      C      -2.2996274281    -2.0972580747    -2.9925935227
   36      C      -1.3586892504    -0.9372232466    -3.4941131947
   37      C      -0.8245217281    -0.3552770728    -2.1270065296
   38      O      -0.6422746637    -1.5869848888    -1.3237641209
   39      H      -3.9081312776    -0.8520318133    -1.0442068222
   40      H      -2.6920295653     0.8364617963    -2.2323736271
   41      H      -3.2782792692     0.0441586387     3.2045215108
   42      H      -2.1664352034    -3.0239647842    -0.9080801266
   43      H      -2.0040824663    -3.0725970610    -3.4104852431
   44      H      -3.3600273351    -1.9183052477    -3.2332740176
   45      H      -0.5186597114    -1.3337300050    -4.0866715313
   46      H      -1.8905098870    -0.1845544878    -4.0971512462
   47      H       0.1630500773     0.1823062680    -2.1831898903
   48      H      -3.3723271670    -1.7550906803     3.1951983272
   49      H      -4.8936852091    -0.7741398716     3.2266384882
   50      H       5.5892822300     0.9903485509    -1.8382386077
   51      H       4.0607602512     1.9430035976    -2.0319492308
   52      H       4.3714284817     0.5186061760    -3.0919917584
   53      H       1.1690571360     3.8060739855     0.5132197318
   54      H       0.0646524411     4.2229682713     1.9050619929
   55      H      -1.9495072585     3.7464160215     0.6050144122
   56      H      -0.8829414568     4.6229602958    -0.5791521973
 ----------------------------------------------------------------

    9   -1510.3056454691      5.42E-09 Convergence criterion met
 Total energy in the final basis set = -1510.30564547
 Final energy is   -1510.30564546912
 **  OPTIMIZATION CONVERGED  **

                    Orbital Energies (a.u.)
 --------------------------------------------------------------

 Alpha MOs
 -- Occupied --
-18.945 -18.933 -18.930 -18.925 -18.888 -18.885 -18.875 -18.869
-18.868 -18.857 -10.107 -10.100 -10.093 -10.089 -10.076 -10.069
-10.062 -10.060 -10.052 -10.042 -10.041 -10.038 -10.037 -10.036
-10.018 -10.012 -10.009 -10.007 -10.002  -9.999  -1.024  -1.009
 -1.005  -0.997  -0.970  -0.952  -0.944  -0.933  -0.931  -0.921
 -0.762  -0.745  -0.722  -0.715  -0.702  -0.697  -0.685  -0.660
 -0.648  -0.615  -0.591  -0.569  -0.543  -0.535  -0.530  -0.520
 -0.508  -0.499  -0.486  -0.474  -0.459  -0.453  -0.448  -0.433
 -0.430  -0.422  -0.414  -0.413  -0.409  -0.405  -0.400  -0.398
 -0.392  -0.379  -0.368  -0.365  -0.359  -0.355  -0.351  -0.347
 -0.343  -0.340  -0.327  -0.322  -0.318  -0.315  -0.312  -0.308
 -0.300  -0.297  -0.294  -0.288  -0.285  -0.278  -0.273  -0.265
 -0.264  -0.255  -0.249  -0.244  -0.236  -0.228  -0.212  -0.195
 -0.174  -0.168  -0.163  -0.159  -0.154  -0.148  -0.143  -0.138
 -0.126

          Ground-State Mulliken Net Atomic Charges

     Atom                 Charge (a.u.)
  ----------------------------------------
      1 O                    -0.225991
      2 C                     0.222687
      3 C                    -0.079820
      4 C                    -0.081695
      5 C                     0.212273
      6 O                    -0.165612
      7 C                    -0.051603
      8 C                    -0.055958
      9 O                    -0.170947
     10 C                     0.209456
     11 C                    -0.094422
     12 C                    -0.095984
     13 C                     0.220846
     14 O                    -0.230059
     15 O                    -0.167241
     16 O                    -0.163115
     17 O                    -0.213167
     18 C                    -0.126060
     19 C                     0.025610
     20 C                    -0.146566
     21 C                    -0.143554
     22 C                     0.023995
     23 O                    -0.193019
     24 H                     0.113938
     25 H                     0.110368
     26 H                     0.078714
     27 H                     0.070985
     28 H                     0.086927
     29 H                     0.072052
     30 H                     0.073805
     31 H                     0.083445
     32 O                    -0.207609
     33 C                    -0.127722
     34 C                     0.027088
     35 C                    -0.145561
     36 C                    -0.143009
     37 C                     0.005581
     38 O                    -0.197236
     39 H                     0.085880
     40 H                     0.085732
     41 H                     0.094468
     42 H                     0.081396
     43 H                     0.076714
     44 H                     0.072419
     45 H                     0.077940
     46 H                     0.071729
     47 H                     0.120351
     48 H                     0.087594
     49 H                     0.088959
     50 H                     0.088593
     51 H                     0.094386
     52 H                     0.085502
     53 H                     0.101873
     54 H                     0.088486
     55 H                     0.095108
     56 H                     0.091051
  ----------------------------------------
  Sum of atomic charges =    -0.000000

                    Cartesian Multipole Moments
 -----------------------------------------------------------------
    Charge (ESU x 10^10)
                -0.0000
    Dipole Moment (Debye)
         X      -2.7735      Y       0.5075      Z      -0.8190
       Tot       2.9361
    Quadrupole Moments (Debye-Ang)
        XX    -158.5271     XY       1.0045     YY    -146.7388
        XZ      -3.1197     YZ       2.0292     ZZ    -155.6887

 Total job time:  116.35s(wall), 5555.33s(cpu)
        *  Thank you very much for using Q-Chem.  Have a nice day.  *
