 Q-Chem 5.0, Q-Chem, Inc., Pleasanton, CA (2017)
 Q-Chem 5.0.1 for Intel X86 EM64T Linux

User input:
--------------------------------------------------------------
$molecule
0  1
O -3.94934 -3.66094 2.70899
C -3.26408 -4.56952 2.26188
C -3.36658 -6.02376 2.66595
C -2.38109 -6.52764 3.73308
C -1.52153 -5.48022 4.40552
O -0.99379 -5.98437 5.55997
C -0.1012 -5.07661 6.21457
C -0.88669 -4.11041 7.09524
O -2.19564 -3.89883 6.54319
C -3.22336 -4.00722 7.42136
C -4.57519 -3.84509 6.76795
C -5.4657 -5.09568 6.80389
C -5.04147 -6.18133 7.77244
O -4.24713 -7.07803 7.52846
O -2.25446 -4.26576 1.40348
O -5.59413 -6.17118 9.01927
O -3.09904 -4.22127 8.62213
C -5.30649 -7.08311 10.01346
C -5.43408 -2.77119 7.4442
C -6.48813 -2.26097 6.46387
C -7.41233 -3.45566 6.40955
C -6.7201 -4.38697 7.41635
O -6.18942 -3.4996 8.37038
H -4.38674 -3.56083 5.7066
H -5.92075 -5.48763 5.88631
H -4.8353 -1.92619 7.84959
H -7.02565 -1.41384 6.94678
H -6.08099 -1.93152 5.48351
H -8.403 -3.14616 6.81189
H -7.54298 -3.91487 5.40605
H -7.4702 -5.11395 7.80202
O -1.36817 -4.32433 4.02854
C -1.97765 -2.9934 0.94881
C -4.68699 -6.41625 3.33028
C -4.97394 -7.90021 3.11025
C -3.91076 -8.52417 3.99147
C -3.32662 -7.26854 4.65619
O -4.39081 -6.38459 4.69349
H -3.3128 -6.59686 1.71237
H -1.6502 -7.25338 3.31207
H -1.72995 -2.32678 1.80241
H -5.55193 -5.80115 2.99858
H -5.97154 -8.10138 3.56333
H -4.97911 -8.24434 2.05375
H -4.41463 -9.17544 4.73979
H -3.1273 -9.10022 3.45304
H -2.84915 -7.53807 5.61819
H -2.85105 -2.58665 0.39558
H -1.1069 -3.03373 0.26283
H -5.89812 -6.8334 10.91788
H -4.22618 -7.04092 10.26944
H -5.57517 -8.1087 9.68155
H -0.92369 -4.59169 8.09747
H -0.32756 -3.15766 7.21093
H 0.49857 -4.50806 5.46574
H 0.65556 -5.62212 6.81811
$end

$opt
CONSTRAINT
tors           1           2           3           4     -96.690
tors           3           4           5           6    +162.713
tors           4           5           6           7    +176.463
tors           5           6           7           8     +84.658
tors           6           7           8           9     -29.514
tors           7           8           9          10    +131.918
tors           8           9          10          11    -177.030
tors           9          10          11          12    +115.190
tors          11          12          13          14     -87.113
ENDCONSTRAINT
$end

$rem
JOBTYPE                   OPT
METHOD                    B3LYP
DFT_D                     d3_op
BASIS                     STO-3G
GEOM_OPT_MAX_CYCLES       100
GEOM_OPT_TOL_GRADIENT     300
GEOM_OPT_TOL_DISPLACEMENT 1200
GEOM_OPT_TOL_ENERGY       100
SYMMETRY                  False
THRESH                    12
SCF_CONVERGENCE           8
MAX_SUB_FILE_NUM          128
MEM_STATIC                400
MEM_TOTAL                 4000
$end
--------------------------------------------------------------

   16   -1510.1362995455      2.25E-09 Convergence criterion met
 Total energy in the final basis set = -1510.13629955
   14   -1510.2065257347      2.49E-09 Convergence criterion met
 Total energy in the final basis set = -1510.20652573
   14   -1510.2471526222      5.24E-09 Convergence criterion met
 Total energy in the final basis set = -1510.24715262
   14   -1510.2715133896      4.35E-09 Convergence criterion met
 Total energy in the final basis set = -1510.27151339
   13   -1510.2824311314      7.38E-09 Convergence criterion met
 Total energy in the final basis set = -1510.28243113
    2   -1510.2824311315      9.08E-09 Convergence criterion met
 Total energy in the final basis set = -1510.28243113
   13   -1510.2886195172      5.39E-09 Convergence criterion met
 Total energy in the final basis set = -1510.28861952
   13   -1510.2919338011      4.03E-09 Convergence criterion met
   11   -1510.2948406117      7.26E-09 Convergence criterion met
 Total energy in the final basis set = -1510.29484061
   11   -1510.2948784757      4.47E-09 Convergence criterion met
 Total energy in the final basis set = -1510.29487848
   11   -1510.2949062202      5.89E-09 Convergence criterion met
 Total energy in the final basis set = -1510.29490622
   11   -1510.2949258397      3.81E-09 Convergence criterion met
 Total energy in the final basis set = -1510.29492584
    9   -1510.2949329446      8.95E-09 Convergence criterion met
 Total energy in the final basis set = -1510.29493294
    9   -1510.2949349744      7.83E-09 Convergence criterion met
 Total energy in the final basis set = -1510.29493497

             Standard Nuclear Orientation (Angstroms)
    I     Atom           X                Y                Z
 ----------------------------------------------------------------
    1      O      -2.0925787202    -2.0402177785     0.5296891505
    2      C      -2.9400509555    -1.2367181490     0.0800783776
    3      C      -2.8610676957    -0.4398455906    -1.2754172412
    4      C      -2.3086557272     1.0409373755    -1.1137093722
    5      C      -2.1108551653     1.4550050916     0.3864236934
    6      O      -1.2576153501     2.6030880005     0.4784495621
    7      C      -1.1579851758     3.0232357962     1.9014864124
    8      C      -0.0400113872     2.2008083444     2.6561148705
    9      O       0.0416309964     0.8754809641     2.0041920623
   10      C       1.4069319469     0.5401180002     1.7210602097
   11      C       1.4020904972    -0.8249469517     0.9714553117
   12      C       1.9466485561    -0.6646554483    -0.5181999987
   13      C       2.4709494133     0.7871424896    -0.7937608566
   14      O       1.7891902285     1.7681310003    -1.1847446853
   15      O      -4.2726402370    -1.0990882584     0.5950942185
   16      O       3.8721094116     0.8655069521    -0.5451312240
   17      O       2.3789593682     1.2747333772     2.0065662809
   18      C       4.3400747577     2.2611918702    -0.7083078383
   19      C       2.4089785329    -1.9087964835     1.5467254144
   20      C       1.9522996125    -3.3104202333     0.9794296711
   21      C       2.4049094767    -3.1859411888    -0.5227210483
   22      C       3.0869842224    -1.7588598351    -0.5264171385
   23      O       3.6763990798    -1.6459594357     0.8306743477
   24      H       0.3608101560    -1.1999512057     0.9589360578
   25      H       1.1063315037    -0.8494753925    -1.2232504982
   26      H       2.5655779944    -1.8659170309     2.6420255877
   27      H       2.4847753681    -4.1255013896     1.4954257098
   28      H       0.8669939307    -3.4690309089     1.0851420964
   29      H       3.1338865765    -3.9661584779    -0.7933656402
   30      H       1.5558829101    -3.2332605619    -1.2229855549
   31      H       3.8661701111    -1.6097462739    -1.2978789124
   32      O      -2.6259646697     0.8917975935     1.3789621651
   33      C      -4.3853082229    -1.8165100252     1.8835049542
   34      C      -1.8060005761    -1.0649460154    -2.2641774572
   35      C      -1.9849590912    -0.4095540667    -3.6913327313
   36      C      -1.3126452430     0.9996158231    -3.4727429280
   37      C      -0.9433869191     0.9324819916    -1.9395631957
   38      O      -0.5443974841    -0.4832873871    -1.7744637238
   39      H      -3.8772867214    -0.4248761578    -1.7085814381
   40      H      -2.9880407524     1.7746701171    -1.5847822123
   41      H      -3.7402898200    -1.3508413169     2.6564933095
   42      H      -1.7590183723    -2.1710048524    -2.2456408835
   43      H      -1.4548757015    -0.9980582672    -4.4569236706
   44      H      -3.0461081924    -0.3326141661    -3.9773206821
   45      H      -0.3993300637     1.1065665361    -4.0795562821
   46      H      -1.9916878236     1.8354452053    -3.7047159235
   47      H      -0.0873540953     1.5658691969    -1.5993697612
   48      H      -4.1045873269    -2.8851086444     1.7833709173
   49      H      -5.4447221229    -1.7370188325     2.1892133747
   50      H       5.4324794865     2.2363838828    -0.5419486433
   51      H       3.8653890313     2.9301782380     0.0380593871
   52      H       4.1233714739     2.6502214644    -1.7241291457
   53      H       0.9575904102     2.6860730630     2.5850513681
   54      H      -0.3124988940     2.0746448054     3.7253290591
   55      H      -2.1355341441     2.8786607803     2.4066746529
   56      H      -0.8990531532     4.1007555971     1.8845027989
 ----------------------------------------------------------------

    9   -1510.2949346287      6.47E-09 Convergence criterion met
 Total energy in the final basis set = -1510.29493463
 Final energy is   -1510.29493462868
 **  OPTIMIZATION CONVERGED  **

                    Orbital Energies (a.u.)
 --------------------------------------------------------------

 Alpha MOs
 -- Occupied --
-18.938 -18.930 -18.930 -18.920 -18.893 -18.879 -18.874 -18.871
-18.864 -18.860 -10.103 -10.093 -10.090 -10.090 -10.073 -10.065
-10.062 -10.056 -10.053 -10.048 -10.047 -10.045 -10.037 -10.033
-10.021 -10.020 -10.016 -10.009 -10.007 -10.006  -1.019  -1.007
 -1.002  -0.997  -0.975  -0.956  -0.940  -0.931  -0.927  -0.924
 -0.761  -0.749  -0.723  -0.715  -0.707  -0.698  -0.689  -0.654
 -0.652  -0.614  -0.591  -0.571  -0.544  -0.538  -0.534  -0.525
 -0.506  -0.501  -0.483  -0.474  -0.457  -0.454  -0.450  -0.433
 -0.428  -0.424  -0.418  -0.408  -0.406  -0.404  -0.400  -0.400
 -0.391  -0.377  -0.371  -0.362  -0.353  -0.351  -0.349  -0.348
 -0.344  -0.334  -0.333  -0.325  -0.323  -0.319  -0.313  -0.311
 -0.301  -0.297  -0.295  -0.294  -0.289  -0.276  -0.273  -0.269
 -0.267  -0.252  -0.246  -0.243  -0.241  -0.231  -0.213  -0.181
 -0.171  -0.169  -0.166  -0.157  -0.151  -0.147  -0.142  -0.141
 -0.130

          Ground-State Mulliken Net Atomic Charges

     Atom                 Charge (a.u.)
  ----------------------------------------
      1 O                    -0.224173
      2 C                     0.215146
      3 C                    -0.080046
      4 C                    -0.079298
      5 C                     0.217035
      6 O                    -0.165131
      7 C                    -0.050052
      8 C                    -0.056321
      9 O                    -0.170119
     10 C                     0.208119
     11 C                    -0.082282
     12 C                    -0.096545
     13 C                     0.209482
     14 O                    -0.226303
     15 O                    -0.170317
     16 O                    -0.158748
     17 O                    -0.215989
     18 C                    -0.126296
     19 C                     0.025560
     20 C                    -0.143176
     21 C                    -0.143954
     22 C                     0.024129
     23 O                    -0.187554
     24 H                     0.098421
     25 H                     0.118218
     26 H                     0.080706
     27 H                     0.074298
     28 H                     0.079583
     29 H                     0.073829
     30 H                     0.074817
     31 H                     0.082754
     32 O                    -0.208980
     33 C                    -0.127641
     34 C                     0.027693
     35 C                    -0.144889
     36 C                    -0.143794
     37 C                     0.014000
     38 O                    -0.196748
     39 H                     0.084311
     40 H                     0.085862
     41 H                     0.091690
     42 H                     0.085536
     43 H                     0.076798
     44 H                     0.073429
     45 H                     0.078008
     46 H                     0.072893
     47 H                     0.116400
     48 H                     0.086055
     49 H                     0.086361
     50 H                     0.091142
     51 H                     0.091793
     52 H                     0.086693
     53 H                     0.099580
     54 H                     0.084676
     55 H                     0.093374
     56 H                     0.089964
  ----------------------------------------
  Sum of atomic charges =    -0.000000

                    Cartesian Multipole Moments
 -----------------------------------------------------------------
    Charge (ESU x 10^10)
                -0.0000
    Dipole Moment (Debye)
         X      -2.2809      Y       0.9034      Z      -1.1265
       Tot       2.6995
    Quadrupole Moments (Debye-Ang)
        XX    -161.7970     XY       1.5049     YY    -151.7773
        XZ      -2.9575     YZ       3.4497     ZZ    -149.7365

 Total job time:  63.32s(wall), 3018.29s(cpu)
        *  Thank you very much for using Q-Chem.  Have a nice day.  *
